 Gaussian 16, Revision A.03,
 Gaussian 16:  ES64L-G16RevA.03 25-Dec-2016

 --------------------------------
 #p wB97XD/Def2SVP td=(nstates=5)
 --------------------------------

 -----------------------------------------------------
 step_1851_chromophore_12 TDDFT with wB97XD functional
 -----------------------------------------------------
 Symbolic Z-matrix:
 Charge =  0 Multiplicity = 1

                         Standard orientation:
 ---------------------------------------------------------------------
 Center     Atomic      Atomic             Coordinates (Angstroms)
 Number     Number       Type             X           Y           Z
 ---------------------------------------------------------------------
      1         12           0       -4.079115    0.319671   -0.285305
      2          6           0       -2.818182   -2.839086    0.772534
      3          6           0       -0.914535    1.465306   -0.699329
      4          6           0       -5.467977    3.194101   -1.231356
      5          6           0       -7.419671   -0.872908    0.550950
      6          7           0       -2.199793   -0.593834    0.047103
      7          6           0       -1.836069   -1.890725    0.386927
      8          6           0       -0.390819   -2.176322    0.183480
      9          6           0        0.184930   -0.670845    0.197027
     10          6           0       -1.055268    0.152370   -0.278583
     11          6           0        0.728824   -0.273073    1.608027
     12          6           0       -0.010224   -2.926689   -1.115420
     13          6           0        1.390221   -3.658982   -1.050746
     14          6           0        2.451847   -3.861754   -2.100353
     15          8           0        2.311047   -3.804179   -3.315599
     16          8           0        3.690432   -4.164594   -1.602526
     17          7           0       -3.303636    2.136057   -0.818617
     18          6           0       -1.929286    2.380857   -1.005298
     19          6           0       -1.820651    3.756654   -1.490249
     20          6           0       -3.146264    4.261671   -1.622028
     21          6           0       -4.069776    3.204752   -1.252634
     22          6           0       -0.435142    4.262021   -1.758153
     23          6           0       -3.649112    5.691225   -2.083077
     24          8           0       -4.839629    6.077796   -2.173705
     25          6           0       -2.662140    6.702792   -2.346184
     26          7           0       -6.158688    1.082918   -0.140893
     27          6           0       -6.407084    2.260914   -0.768101
     28          6           0       -7.860917    2.501991   -0.948158
     29          6           0       -8.492870    1.196787   -0.427587
     30          6           0       -7.305935    0.376369   -0.014629
     31          6           0       -8.403287    3.745035   -0.310287
     32          6           0       -9.377157    0.528031   -1.527401
     33          6           0       -8.704089    0.165569   -2.840445
     34          7           0       -5.019434   -1.483087    0.580061
     35          6           0       -6.346432   -1.788757    0.762907
     36          6           0       -6.390909   -3.041792    1.454779
     37          6           0       -5.021000   -3.599324    1.305415
     38          6           0       -4.210460   -2.552590    0.849890
     39          6           0       -7.610066   -3.737795    1.909662
     40          6           0       -4.207423   -4.743951    1.498771
     41          8           0       -4.533352   -5.850281    1.792669
     42          6           0       -2.708934   -4.294062    1.124618
     43          6           0       -1.893250   -4.593275    2.357809
     44          8           0       -1.955156   -3.871574    3.356807
     45          8           0       -1.222725   -5.811534    2.227877
     46          6           0       -0.249923   -6.035284    3.300714
     47          6           0        4.762449   -4.172740   -2.576241
     48          6           0        6.051048   -3.828437   -1.842576
     49          6           0        7.131328   -3.368480   -2.318768
     50          6           0        7.301551   -3.138414   -3.774064
     51          6           0        8.323164   -3.014609   -1.381205
     52          6           0        9.243508   -1.938737   -1.913248
     53          6           0       10.295328   -1.506076   -0.976947
     54          6           0       10.428118    0.008213   -0.763043
     55          6           0       11.999245    0.203095   -0.413228
     56          6           0        9.495768    0.504625    0.369060
     57          6           0        8.860659    1.919116    0.079936
     58          6           0        8.592784    2.652630    1.382301
     59          6           0        7.433155    3.669361    1.349930
     60          6           0        7.998687    5.128836    1.266043
     61          6           0        6.493860    3.680411    2.624529
     62          6           0        4.982088    3.578261    2.289541
     63          6           0        4.123656    4.303241    3.407551
     64          6           0        2.872081    5.020480    2.790886
     65          6           0        2.337696    5.980226    3.918678
     66          6           0        1.853808    3.948331    2.345775
     67          1           0        0.146442    1.721205   -0.681786
     68          1           0       -5.870304    4.129373   -1.626696
     69          1           0       -8.439310   -1.261825    0.532964
     70          1           0       -0.023115   -2.811676    0.987883
     71          1           0        1.002388   -0.459301   -0.491657
     72          1           0        0.608697   -1.044031    2.368921
     73          1           0        0.206553    0.630160    1.922785
     74          1           0        1.796374   -0.194788    1.400921
     75          1           0       -0.079639   -2.261074   -1.975338
     76          1           0       -0.814627   -3.650348   -1.245710
     77          1           0        1.057510   -4.646166   -0.729884
     78          1           0        1.858764   -3.224910   -0.167232
     79          1           0       -0.417781    5.093466   -2.462963
     80          1           0        0.264185    3.541985   -2.184419
     81          1           0       -0.098415    4.481902   -0.745195
     82          1           0       -1.905209    6.854072   -1.575324
     83          1           0       -3.152361    7.670262   -2.459784
     84          1           0       -2.160703    6.570013   -3.304447
     85          1           0       -8.041650    2.670101   -2.009555
     86          1           0       -9.190288    1.362958    0.394701
     87          1           0       -8.837746    4.436739   -1.031755
     88          1           0       -7.561948    4.279430    0.130215
     89          1           0       -9.187841    3.595601    0.431166
     90          1           0      -10.109418    1.266631   -1.854965
     91          1           0       -9.958385   -0.215208   -0.981585
     92          1           0       -7.633219    0.370363   -2.834583
     93          1           0       -9.195515    0.616437   -3.702375
     94          1           0       -8.723521   -0.895960   -3.089333
     95          1           0       -7.158155   -4.478901    2.569429
     96          1           0       -8.091920   -4.222290    1.060065
     97          1           0       -8.355147   -3.146874    2.443090
     98          1           0       -2.269073   -4.929781    0.355835
     99          1           0       -0.051523   -7.101554    3.412014
    100          1           0       -0.668898   -5.858402    4.291334
    101          1           0        0.603327   -5.413019    3.029831
    102          1           0        4.561489   -3.448285   -3.365307
    103          1           0        4.975600   -5.100486   -3.107719
    104          1           0        6.052096   -4.095673   -0.786218
    105          1           0        7.632724   -2.104766   -3.871983
    106          1           0        6.405769   -3.172480   -4.394580
    107          1           0        8.051557   -3.854254   -4.108482
    108          1           0        8.823347   -3.981255   -1.314392
    109          1           0        7.897417   -2.657709   -0.443895
    110          1           0        8.718872   -1.026416   -2.196024
    111          1           0        9.725560   -2.354901   -2.799046
    112          1           0       11.202918   -2.008177   -1.311280
    113          1           0       10.072843   -1.928386    0.003265
    114          1           0       10.412813    0.528054   -1.721148
    115          1           0       12.143295    0.632974    0.578066
    116          1           0       12.491331    0.817214   -1.168297
    117          1           0       12.517070   -0.739363   -0.238166
    118          1           0       10.002791    0.394822    1.327410
    119          1           0        8.625956   -0.151287    0.337112
    120          1           0        7.978710    1.730911   -0.533123
    121          1           0        9.634318    2.480718   -0.443428
    122          1           0        9.545529    3.156043    1.544019
    123          1           0        8.433348    1.938927    2.190803
    124          1           0        6.879582    3.471738    0.432531
    125          1           0        7.281381    5.861835    0.898604
    126          1           0        8.709049    5.003298    0.448594
    127          1           0        8.436539    5.404023    2.226273
    128          1           0        6.749659    4.603182    3.145275
    129          1           0        6.656423    2.804563    3.252736
    130          1           0        4.789580    2.507076    2.229865
    131          1           0        4.765978    4.015390    1.314088
    132          1           0        4.705588    4.973672    4.040897
    133          1           0        3.945476    3.484457    4.105164
    134          1           0        3.263301    5.652942    1.993930
    135          1           0        1.323899    5.724335    4.224940
    136          1           0        2.292850    7.031766    3.635638
    137          1           0        2.909265    6.034952    4.845045
    138          1           0        1.138094    3.643924    3.110166
    139          1           0        2.465715    3.067422    2.152661
    140          1           0        1.223339    4.237747    1.504936
 ---------------------------------------------------------------------

 SCF Done:  E(RwB97XD) =  -3007.84644429     A.U. after   20 cycles

 Excitation energies and oscillator strengths:

 Excited State   1:      Singlet-A      1.6039 eV  773.02 nm  f=0.3804  <S**2>=0.000
     245 -> 248       -0.17895
     246 -> 247        0.68590
     245 <- 248       -0.11840
 This state for optimization and/or second-order correction.
 Total Energy, E(TD-HF/TD-DFT) =  -3007.78750243
 Copying the excited state density for this state as the 1-particle RhoCI density.

 Excited State   2:      Singlet-A      2.1222 eV  584.22 nm  f=0.1214  <S**2>=0.000
     245 -> 247        0.64292
     246 -> 248        0.27022

 Excited State   3:      Singlet-A      2.9124 eV  425.71 nm  f=0.0106  <S**2>=0.000
     241 -> 247       -0.10045
     244 -> 247        0.68053

 Excited State   4:      Singlet-A      3.3811 eV  366.70 nm  f=0.0141  <S**2>=0.000
     240 -> 247       -0.10905
     241 -> 247        0.63943
     246 -> 248       -0.22408

 Excited State   5:      Singlet-A      3.4289 eV  361.59 nm  f=0.0028  <S**2>=0.000
     238 -> 247        0.20175
     243 -> 247        0.59351
     243 -> 249       -0.19496
     243 -> 250       -0.18622

 The electronic state is 1-A.
 Alpha  occ. eigenvalues --  -46.95002 -19.30436 -19.30405 -19.24950 -19.24725
 Alpha  occ. eigenvalues --  -19.24451 -19.23234 -14.47391 -14.46613 -14.44597
 Alpha  occ. eigenvalues --  -14.42810 -10.43796 -10.43141 -10.40250 -10.38028
 Alpha  occ. eigenvalues --  -10.35780 -10.35554 -10.35501 -10.35397 -10.35025
 Alpha  occ. eigenvalues --  -10.35002 -10.34860 -10.34032 -10.33902 -10.32916
 Alpha  occ. eigenvalues --  -10.32823 -10.32777 -10.32698 -10.32667 -10.32389
 Alpha  occ. eigenvalues --  -10.32276 -10.32046 -10.32018 -10.31812 -10.31746
 Alpha  occ. eigenvalues --  -10.31686 -10.31090 -10.30827 -10.30679 -10.30592
 Alpha  occ. eigenvalues --  -10.30560 -10.30367 -10.30294 -10.30115 -10.29903
 Alpha  occ. eigenvalues --  -10.29823 -10.29787 -10.29615 -10.29314 -10.29269
 Alpha  occ. eigenvalues --  -10.29229 -10.29201 -10.29140 -10.29074 -10.29020
 Alpha  occ. eigenvalues --  -10.28997 -10.28992 -10.28791 -10.28652 -10.28612
 Alpha  occ. eigenvalues --  -10.28593 -10.28466 -10.28350 -10.28270 -10.28169
 Alpha  occ. eigenvalues --  -10.27777  -3.20880  -1.94484  -1.94003  -1.93841
 Alpha  occ. eigenvalues --   -1.19250  -1.17401  -1.13072  -1.11646  -1.09628
 Alpha  occ. eigenvalues --   -1.09508  -1.06571  -1.05105  -1.04348  -1.03604
 Alpha  occ. eigenvalues --   -0.94281  -0.93309  -0.91800  -0.91540  -0.91308
 Alpha  occ. eigenvalues --   -0.91211  -0.90751  -0.89840  -0.89554  -0.89317
 Alpha  occ. eigenvalues --   -0.87712  -0.87273  -0.86763  -0.85866  -0.85457
 Alpha  occ. eigenvalues --   -0.84885  -0.84563  -0.83716  -0.82991  -0.82538
 Alpha  occ. eigenvalues --   -0.81846  -0.80764  -0.80100  -0.79410  -0.78157
 Alpha  occ. eigenvalues --   -0.77880  -0.77788  -0.77271  -0.76689  -0.75768
 Alpha  occ. eigenvalues --   -0.75625  -0.74332  -0.73888  -0.72781  -0.72125
 Alpha  occ. eigenvalues --   -0.70308  -0.70125  -0.69073  -0.68245  -0.67477
 Alpha  occ. eigenvalues --   -0.67316  -0.66855  -0.66620  -0.66277  -0.66168
 Alpha  occ. eigenvalues --   -0.65896  -0.65762  -0.64848  -0.63699  -0.62665
 Alpha  occ. eigenvalues --   -0.62414  -0.61382  -0.60917  -0.60507  -0.59466
 Alpha  occ. eigenvalues --   -0.59064  -0.58880  -0.58312  -0.58265  -0.58064
 Alpha  occ. eigenvalues --   -0.57565  -0.57533  -0.57295  -0.56508  -0.56384
 Alpha  occ. eigenvalues --   -0.56233  -0.55703  -0.55575  -0.55132  -0.55034
 Alpha  occ. eigenvalues --   -0.54842  -0.54653  -0.54528  -0.54279  -0.54065
 Alpha  occ. eigenvalues --   -0.54030  -0.53858  -0.53372  -0.53136  -0.52808
 Alpha  occ. eigenvalues --   -0.52569  -0.52352  -0.52146  -0.51927  -0.51854
 Alpha  occ. eigenvalues --   -0.51370  -0.51253  -0.51212  -0.51036  -0.50976
 Alpha  occ. eigenvalues --   -0.50892  -0.50757  -0.50510  -0.50152  -0.50049
 Alpha  occ. eigenvalues --   -0.49779  -0.49521  -0.49237  -0.48811  -0.48574
 Alpha  occ. eigenvalues --   -0.48469  -0.48386  -0.48186  -0.47708  -0.47598
 Alpha  occ. eigenvalues --   -0.47434  -0.47342  -0.47077  -0.46997  -0.46823
 Alpha  occ. eigenvalues --   -0.46414  -0.46271  -0.45980  -0.45861  -0.45592
 Alpha  occ. eigenvalues --   -0.45539  -0.45435  -0.45145  -0.44853  -0.44725
 Alpha  occ. eigenvalues --   -0.44532  -0.44373  -0.44233  -0.44174  -0.44105
 Alpha  occ. eigenvalues --   -0.43861  -0.43640  -0.43609  -0.43458  -0.43324
 Alpha  occ. eigenvalues --   -0.43215  -0.42923  -0.42612  -0.42548  -0.42155
 Alpha  occ. eigenvalues --   -0.41743  -0.41740  -0.40858  -0.40787  -0.40679
 Alpha  occ. eigenvalues --   -0.40604  -0.40203  -0.40152  -0.40032  -0.39536
 Alpha  occ. eigenvalues --   -0.39362  -0.38950  -0.38896  -0.38811  -0.38727
 Alpha  occ. eigenvalues --   -0.38514  -0.37497  -0.37208  -0.36189  -0.35898
 Alpha  occ. eigenvalues --   -0.35857  -0.35567  -0.35016  -0.33914  -0.33718
 Alpha  occ. eigenvalues --   -0.32605  -0.32438  -0.32093  -0.30132  -0.26316
 Alpha  occ. eigenvalues --   -0.23378
 Alpha virt. eigenvalues --   -0.07731  -0.00030   0.01976   0.04138   0.05805
 Alpha virt. eigenvalues --    0.06578   0.07074   0.07438   0.09219   0.09860
 Alpha virt. eigenvalues --    0.10583   0.10729   0.10923   0.11962   0.12077

 Mulliken charges:
               1
     1  Mg   0.924379
     2  C    0.019850
     3  C   -0.093265
     4  C   -0.066727
     5  C   -0.048633
     6  N   -0.406891
     7  C    0.050499
     8  C   -0.103610
     9  C   -0.149054
    10  C    0.081899
    11  C    0.032929
    12  C    0.073915
    13  C   -0.049490
    14  C    0.237843
    15  O   -0.265804
    16  O   -0.359887
    17  N   -0.523009
    18  C    0.203296
    19  C   -0.159885
    20  C   -0.093146
    21  C    0.143821
    22  C    0.058469
    23  C    0.104851
    24  O   -0.252280
    25  C   -0.027416
    26  N   -0.315134
    27  C    0.076241
    28  C   -0.095461
    29  C   -0.049467
    30  C    0.052933
    31  C    0.028792
    32  C   -0.027038
    33  C   -0.053657
    34  N   -0.406021
    35  C    0.128527
    36  C   -0.168913
    37  C   -0.038930
    38  C    0.125426
    39  C    0.051368
    40  C    0.075331
    41  O   -0.175868
    42  C   -0.103137
    43  C    0.255021
    44  O   -0.256862
    45  O   -0.373935
    46  C    0.140008
    47  C    0.269331
    48  C   -0.179950
    49  C   -0.203868
    50  C    0.042943
    51  C    0.037340
    52  C   -0.056626
    53  C    0.032077
    54  C   -0.212773
    55  C   -0.019095
    56  C    0.023011
    57  C   -0.036042
    58  C    0.009080
    59  C   -0.190028
    60  C   -0.013058
    61  C    0.027932
    62  C   -0.061854
    63  C   -0.044491
    64  C   -0.176222
    65  C   -0.011838
    66  C    0.005382
    67  H    0.005140
    68  H    0.020386
    69  H    0.005488
    70  H    0.024985
    71  H    0.025744
    72  H    0.052020
    73  H    0.053234
    74  H    0.040290
    75  H    0.039750
    76  H    0.029748
    77  H    0.075715
    78  H    0.052747
    79  H    0.040726
    80  H    0.054461
    81  H    0.066911
    82  H    0.060663
    83  H    0.051167
    84  H    0.065346
    85  H    0.045414
    86  H    0.036084
    87  H    0.030792
    88  H    0.043369
    89  H    0.033382
    90  H    0.025577
    91  H    0.030281
    92  H    0.039975
    93  H    0.039238
    94  H    0.035135
    95  H    0.062322
    96  H    0.058806
    97  H    0.042387
    98  H    0.061397
    99  H    0.054966
   100  H    0.060547
   101  H    0.053341
   102  H    0.051195
   103  H    0.051375
   104  H    0.009453
   105  H    0.037908
   106  H    0.027416
   107  H    0.049516
   108  H    0.042256
   109  H    0.030630
   110  H    0.024240
   111  H    0.021485
   112  H    0.015706
   113  H    0.007161
   114  H    0.026008
   115  H    0.010837
   116  H    0.039724
   117  H    0.024365
   118  H    0.031810
   119  H    0.018630
   120  H    0.027813
   121  H    0.026377
   122  H    0.018291
   123  H    0.018521
   124  H    0.015469
   125  H    0.031151
   126  H    0.019722
   127  H    0.045562
   128  H    0.015802
   129  H    0.015435
   130  H    0.032221
   131  H    0.018675
   132  H    0.022816
   133  H    0.019621
   134  H    0.032546
   135  H    0.021317
   136  H    0.022411
   137  H    0.025401
   138  H    0.032542
   139  H    0.025612
   140  H    0.032318
 Sum of Mulliken charges =  -0.00000

 Dipole moment (field-independent basis, Debye):
    X=              4.3565    Y=              3.6898    Z=             -1.7252  Tot=              5.9640
 Quadrupole moment (field-independent basis, Debye-Ang):
   XX=           -364.3596   YY=           -423.6809   ZZ=           -412.4629
   XY=            -14.7833   XZ=             10.5334   YZ=             -1.2801

 Normal termination of Gaussian 16 at Wed May  4 15:13:17 2022.
