 Gaussian 16, Revision A.03,
 Gaussian 16:  ES64L-G16RevA.03 25-Dec-2016

 --------------------
 #p ZINDO=(nstates=5)
 --------------------

 ------------------------------
 step_1851_chromophore_12 ZINDO
 ------------------------------
 Symbolic Z-matrix:
 Charge =  0 Multiplicity = 1

                         Standard orientation:
 ---------------------------------------------------------------------
 Center     Atomic      Atomic             Coordinates (Angstroms)
 Number     Number       Type             X           Y           Z
 ---------------------------------------------------------------------
      1         12           0       -4.079115    0.319671   -0.285305
      2          6           0       -2.818182   -2.839086    0.772534
      3          6           0       -0.914535    1.465306   -0.699329
      4          6           0       -5.467977    3.194101   -1.231356
      5          6           0       -7.419671   -0.872908    0.550950
      6          7           0       -2.199793   -0.593834    0.047103
      7          6           0       -1.836069   -1.890725    0.386927
      8          6           0       -0.390819   -2.176322    0.183480
      9          6           0        0.184930   -0.670845    0.197027
     10          6           0       -1.055268    0.152370   -0.278583
     11          6           0        0.728824   -0.273073    1.608027
     12          6           0       -0.010224   -2.926689   -1.115420
     13          6           0        1.390221   -3.658982   -1.050746
     14          6           0        2.451847   -3.861754   -2.100353
     15          8           0        2.311047   -3.804179   -3.315599
     16          8           0        3.690432   -4.164594   -1.602526
     17          7           0       -3.303636    2.136057   -0.818617
     18          6           0       -1.929286    2.380857   -1.005298
     19          6           0       -1.820651    3.756654   -1.490249
     20          6           0       -3.146264    4.261671   -1.622028
     21          6           0       -4.069776    3.204752   -1.252634
     22          6           0       -0.435142    4.262021   -1.758153
     23          6           0       -3.649112    5.691225   -2.083077
     24          8           0       -4.839629    6.077796   -2.173705
     25          6           0       -2.662140    6.702792   -2.346184
     26          7           0       -6.158688    1.082918   -0.140893
     27          6           0       -6.407084    2.260914   -0.768101
     28          6           0       -7.860917    2.501991   -0.948158
     29          6           0       -8.492870    1.196787   -0.427587
     30          6           0       -7.305935    0.376369   -0.014629
     31          6           0       -8.403287    3.745035   -0.310287
     32          6           0       -9.377157    0.528031   -1.527401
     33          6           0       -8.704089    0.165569   -2.840445
     34          7           0       -5.019434   -1.483087    0.580061
     35          6           0       -6.346432   -1.788757    0.762907
     36          6           0       -6.390909   -3.041792    1.454779
     37          6           0       -5.021000   -3.599324    1.305415
     38          6           0       -4.210460   -2.552590    0.849890
     39          6           0       -7.610066   -3.737795    1.909662
     40          6           0       -4.207423   -4.743951    1.498771
     41          8           0       -4.533352   -5.850281    1.792669
     42          6           0       -2.708934   -4.294062    1.124618
     43          6           0       -1.893250   -4.593275    2.357809
     44          8           0       -1.955156   -3.871574    3.356807
     45          8           0       -1.222725   -5.811534    2.227877
     46          6           0       -0.249923   -6.035284    3.300714
     47          6           0        4.762449   -4.172740   -2.576241
     48          6           0        6.051048   -3.828437   -1.842576
     49          6           0        7.131328   -3.368480   -2.318768
     50          6           0        7.301551   -3.138414   -3.774064
     51          6           0        8.323164   -3.014609   -1.381205
     52          6           0        9.243508   -1.938737   -1.913248
     53          6           0       10.295328   -1.506076   -0.976947
     54          6           0       10.428118    0.008213   -0.763043
     55          6           0       11.999245    0.203095   -0.413228
     56          6           0        9.495768    0.504625    0.369060
     57          6           0        8.860659    1.919116    0.079936
     58          6           0        8.592784    2.652630    1.382301
     59          6           0        7.433155    3.669361    1.349930
     60          6           0        7.998687    5.128836    1.266043
     61          6           0        6.493860    3.680411    2.624529
     62          6           0        4.982088    3.578261    2.289541
     63          6           0        4.123656    4.303241    3.407551
     64          6           0        2.872081    5.020480    2.790886
     65          6           0        2.337696    5.980226    3.918678
     66          6           0        1.853808    3.948331    2.345775
     67          1           0        0.146442    1.721205   -0.681786
     68          1           0       -5.870304    4.129373   -1.626696
     69          1           0       -8.439310   -1.261825    0.532964
     70          1           0       -0.023115   -2.811676    0.987883
     71          1           0        1.002388   -0.459301   -0.491657
     72          1           0        0.608697   -1.044031    2.368921
     73          1           0        0.206553    0.630160    1.922785
     74          1           0        1.796374   -0.194788    1.400921
     75          1           0       -0.079639   -2.261074   -1.975338
     76          1           0       -0.814627   -3.650348   -1.245710
     77          1           0        1.057510   -4.646166   -0.729884
     78          1           0        1.858764   -3.224910   -0.167232
     79          1           0       -0.417781    5.093466   -2.462963
     80          1           0        0.264185    3.541985   -2.184419
     81          1           0       -0.098415    4.481902   -0.745195
     82          1           0       -1.905209    6.854072   -1.575324
     83          1           0       -3.152361    7.670262   -2.459784
     84          1           0       -2.160703    6.570013   -3.304447
     85          1           0       -8.041650    2.670101   -2.009555
     86          1           0       -9.190288    1.362958    0.394701
     87          1           0       -8.837746    4.436739   -1.031755
     88          1           0       -7.561948    4.279430    0.130215
     89          1           0       -9.187841    3.595601    0.431166
     90          1           0      -10.109418    1.266631   -1.854965
     91          1           0       -9.958385   -0.215208   -0.981585
     92          1           0       -7.633219    0.370363   -2.834583
     93          1           0       -9.195515    0.616437   -3.702375
     94          1           0       -8.723521   -0.895960   -3.089333
     95          1           0       -7.158155   -4.478901    2.569429
     96          1           0       -8.091920   -4.222290    1.060065
     97          1           0       -8.355147   -3.146874    2.443090
     98          1           0       -2.269073   -4.929781    0.355835
     99          1           0       -0.051523   -7.101554    3.412014
    100          1           0       -0.668898   -5.858402    4.291334
    101          1           0        0.603327   -5.413019    3.029831
    102          1           0        4.561489   -3.448285   -3.365307
    103          1           0        4.975600   -5.100486   -3.107719
    104          1           0        6.052096   -4.095673   -0.786218
    105          1           0        7.632724   -2.104766   -3.871983
    106          1           0        6.405769   -3.172480   -4.394580
    107          1           0        8.051557   -3.854254   -4.108482
    108          1           0        8.823347   -3.981255   -1.314392
    109          1           0        7.897417   -2.657709   -0.443895
    110          1           0        8.718872   -1.026416   -2.196024
    111          1           0        9.725560   -2.354901   -2.799046
    112          1           0       11.202918   -2.008177   -1.311280
    113          1           0       10.072843   -1.928386    0.003265
    114          1           0       10.412813    0.528054   -1.721148
    115          1           0       12.143295    0.632974    0.578066
    116          1           0       12.491331    0.817214   -1.168297
    117          1           0       12.517070   -0.739363   -0.238166
    118          1           0       10.002791    0.394822    1.327410
    119          1           0        8.625956   -0.151287    0.337112
    120          1           0        7.978710    1.730911   -0.533123
    121          1           0        9.634318    2.480718   -0.443428
    122          1           0        9.545529    3.156043    1.544019
    123          1           0        8.433348    1.938927    2.190803
    124          1           0        6.879582    3.471738    0.432531
    125          1           0        7.281381    5.861835    0.898604
    126          1           0        8.709049    5.003298    0.448594
    127          1           0        8.436539    5.404023    2.226273
    128          1           0        6.749659    4.603182    3.145275
    129          1           0        6.656423    2.804563    3.252736
    130          1           0        4.789580    2.507076    2.229865
    131          1           0        4.765978    4.015390    1.314088
    132          1           0        4.705588    4.973672    4.040897
    133          1           0        3.945476    3.484457    4.105164
    134          1           0        3.263301    5.652942    1.993930
    135          1           0        1.323899    5.724335    4.224940
    136          1           0        2.292850    7.031766    3.635638
    137          1           0        2.909265    6.034952    4.845045
    138          1           0        1.138094    3.643924    3.110166
    139          1           0        2.465715    3.067422    2.152661
    140          1           0        1.223339    4.237747    1.504936
 ---------------------------------------------------------------------

 SCF Done:  E(RZINDO/S) =  -474.377417308     A.U. after   19 cycles

 Excitation energies and oscillator strengths:

 Excited State   1:      Singlet-A      1.2402 eV  999.75 nm  f=0.6168  <S**2>=0.000
     175 ->178         0.18002
     176 ->177         0.66594
 This state for optimization and/or second-order correction.
 Total Energy, E(CIS/TDA) =  -474.331842454
 Copying the excited state density for this state as the 1-particle RhoCI density.

 Excited State   2:      Singlet-A      1.9148 eV  647.51 nm  f=0.0790  <S**2>=0.000
     175 ->177         0.56899
     176 ->178        -0.38905

 Excited State   3:      Singlet-A      2.8548 eV  434.30 nm  f=0.0218  <S**2>=0.000
     173 ->177         0.14733
     174 ->177         0.66282

 Excited State   4:      Singlet-A      2.9230 eV  424.17 nm  f=0.0082  <S**2>=0.000
     167 ->177         0.20009
     167 ->179        -0.34400
     167 ->180         0.18904
     167 ->184        -0.12408
     167 ->185        -0.15517
     168 ->177         0.21581
     168 ->179        -0.32401
     168 ->180         0.17001
     168 ->184        -0.11365
     168 ->185        -0.14801

 Excited State   5:      Singlet-A      3.0300 eV  409.19 nm  f=0.0079  <S**2>=0.000
     171 ->177         0.36438
     171 ->178        -0.13406
     171 ->179         0.26319
     171 ->180         0.33615
     171 ->185         0.15892
     171 ->187         0.18604
     171 ->203        -0.11960

 The electronic state is 1-A.
 Alpha  occ. eigenvalues --   -1.83442  -1.81364  -1.79373  -1.74764  -1.71494
 Alpha  occ. eigenvalues --   -1.70280  -1.65749  -1.61848  -1.58899  -1.58659
 Alpha  occ. eigenvalues --   -1.56267  -1.52654  -1.49463  -1.48483  -1.46698
 Alpha  occ. eigenvalues --   -1.43983  -1.43533  -1.41411  -1.40534  -1.39512
 Alpha  occ. eigenvalues --   -1.36048  -1.33831  -1.32758  -1.32311  -1.28598
 Alpha  occ. eigenvalues --   -1.28424  -1.25707  -1.23136  -1.21107  -1.18414
 Alpha  occ. eigenvalues --   -1.17245  -1.16669  -1.16325  -1.14629  -1.13650
 Alpha  occ. eigenvalues --   -1.12323  -1.11936  -1.10407  -1.05069  -1.03933
 Alpha  occ. eigenvalues --   -1.02736  -1.00492  -0.98688  -0.98429  -0.97308
 Alpha  occ. eigenvalues --   -0.96092  -0.93922  -0.93276  -0.92988  -0.92807
 Alpha  occ. eigenvalues --   -0.90440  -0.89932  -0.88519  -0.87205  -0.87073
 Alpha  occ. eigenvalues --   -0.85471  -0.85114  -0.83707  -0.82075  -0.81097
 Alpha  occ. eigenvalues --   -0.79216  -0.78604  -0.77617  -0.76790  -0.76295
 Alpha  occ. eigenvalues --   -0.75953  -0.75448  -0.75237  -0.74815  -0.73689
 Alpha  occ. eigenvalues --   -0.73095  -0.72804  -0.72389  -0.72119  -0.70911
 Alpha  occ. eigenvalues --   -0.70401  -0.69570  -0.68753  -0.68353  -0.68243
 Alpha  occ. eigenvalues --   -0.67980  -0.67568  -0.66893  -0.66522  -0.66284
 Alpha  occ. eigenvalues --   -0.66169  -0.65250  -0.64756  -0.64253  -0.64212
 Alpha  occ. eigenvalues --   -0.63655  -0.63478  -0.63247  -0.62846  -0.62342
 Alpha  occ. eigenvalues --   -0.61904  -0.61703  -0.61369  -0.61213  -0.60989
 Alpha  occ. eigenvalues --   -0.60211  -0.59870  -0.59528  -0.59089  -0.58455
 Alpha  occ. eigenvalues --   -0.57992  -0.56825  -0.56471  -0.56360  -0.55797
 Alpha  occ. eigenvalues --   -0.55531  -0.55410  -0.55251  -0.54631  -0.53965
 Alpha  occ. eigenvalues --   -0.53772  -0.53489  -0.53479  -0.53045  -0.53002
 Alpha  occ. eigenvalues --   -0.52743  -0.51697  -0.51592  -0.51400  -0.51209
 Alpha  occ. eigenvalues --   -0.50896  -0.50649  -0.50489  -0.50413  -0.50193
 Alpha  occ. eigenvalues --   -0.49997  -0.49755  -0.49702  -0.49504  -0.48685
 Alpha  occ. eigenvalues --   -0.48640  -0.48471  -0.48265  -0.48188  -0.47865
 Alpha  occ. eigenvalues --   -0.47657  -0.47398  -0.47145  -0.47116  -0.46782
 Alpha  occ. eigenvalues --   -0.46631  -0.45883  -0.45789  -0.45714  -0.45563
 Alpha  occ. eigenvalues --   -0.45328  -0.45129  -0.44632  -0.44519  -0.44455
 Alpha  occ. eigenvalues --   -0.43926  -0.43053  -0.43020  -0.42734  -0.42301
 Alpha  occ. eigenvalues --   -0.41829  -0.41783  -0.41565  -0.39217  -0.38765
 Alpha  occ. eigenvalues --   -0.38200  -0.36352  -0.35886  -0.34838  -0.34026
 Alpha  occ. eigenvalues --   -0.33771  -0.33233  -0.32722  -0.30604  -0.26833
 Alpha  occ. eigenvalues --   -0.22130
 Alpha virt. eigenvalues --   -0.09075  -0.02135  -0.00752   0.00869   0.01632
 Alpha virt. eigenvalues --    0.02378   0.02735   0.02882   0.04553   0.05899
 Alpha virt. eigenvalues --    0.06211   0.06494   0.06721   0.07248   0.08015

 Mulliken charges:
               1
     1  Mg   0.420945
     2  C   -0.031233
     3  C   -0.072655
     4  C   -0.065110
     5  C   -0.065289
     6  N   -0.287523
     7  C    0.116983
     8  C    0.007917
     9  C   -0.007505
    10  C    0.137457
    11  C   -0.053216
    12  C   -0.016276
    13  C    0.000173
    14  C    0.476669
    15  O   -0.523963
    16  O   -0.264708
    17  N   -0.341341
    18  C    0.117114
    19  C    0.026325
    20  C   -0.039638
    21  C    0.144260
    22  C   -0.039230
    23  C    0.334327
    24  O   -0.523952
    25  C   -0.023988
    26  N   -0.266228
    27  C    0.171616
    28  C    0.011965
    29  C    0.002785
    30  C    0.120001
    31  C   -0.049069
    32  C   -0.029017
    33  C   -0.050685
    34  N   -0.339850
    35  C    0.087820
    36  C    0.018424
    37  C   -0.070976
    38  C    0.109715
    39  C   -0.040536
    40  C    0.341532
    41  O   -0.517281
    42  C    0.055623
    43  C    0.479755
    44  O   -0.524467
    45  O   -0.267813
    46  C    0.071490
    47  C    0.103973
    48  C   -0.086735
    49  C   -0.010548
    50  C   -0.046277
    51  C   -0.023333
    52  C   -0.029723
    53  C   -0.031516
    54  C   -0.018453
    55  C   -0.076516
    56  C   -0.034218
    57  C   -0.036757
    58  C   -0.031592
    59  C   -0.023402
    60  C   -0.061957
    61  C   -0.043513
    62  C   -0.043632
    63  C   -0.041688
    64  C   -0.003050
    65  C   -0.064688
    66  C   -0.052400
    67  H    0.030125
    68  H    0.044144
    69  H    0.026613
    70  H    0.031893
    71  H    0.023359
    72  H    0.029460
    73  H    0.032342
    74  H    0.020551
    75  H    0.030656
    76  H    0.021777
    77  H    0.045426
    78  H    0.030621
    79  H    0.024680
    80  H    0.030844
    81  H    0.040056
    82  H    0.032660
    83  H    0.030784
    84  H    0.040146
    85  H    0.034019
    86  H    0.031170
    87  H    0.017410
    88  H    0.023016
    89  H    0.021789
    90  H    0.007869
    91  H    0.024036
    92  H    0.022872
    93  H    0.020783
    94  H    0.013853
    95  H    0.032289
    96  H    0.034076
    97  H    0.028076
    98  H    0.050098
    99  H    0.033677
   100  H    0.050512
   101  H    0.042063
   102  H    0.051432
   103  H    0.051855
   104  H    0.018009
   105  H    0.021585
   106  H    0.024437
   107  H    0.032681
   108  H    0.033029
   109  H    0.027233
   110  H    0.019060
   111  H    0.013566
   112  H    0.014929
   113  H    0.011273
   114  H    0.028594
   115  H    0.010882
   116  H    0.022011
   117  H    0.019545
   118  H    0.032954
   119  H    0.012029
   120  H    0.025840
   121  H    0.020041
   122  H    0.018184
   123  H    0.018177
   124  H    0.021872
   125  H    0.018041
   126  H    0.009586
   127  H    0.030754
   128  H    0.026055
   129  H    0.017504
   130  H    0.019882
   131  H    0.017127
   132  H    0.020101
   133  H    0.017349
   134  H    0.029812
   135  H    0.014779
   136  H    0.011855
   137  H    0.020303
   138  H    0.021955
   139  H    0.019785
   140  H    0.016828
 Sum of Mulliken charges =   0.00000

 Dipole moment (field-independent basis, Debye):
    X=              7.4336    Y=              4.8781    Z=             -3.3767  Tot=              9.5108
 N-N= 4.486369449723D+03 E-N= 0.000000000000D+00  KE=-9.646687742260D+03
 Leave Link  601 at Wed May  4 15:27:46 2022, MaxMem=  6710886400 cpu:               1.0 elap:               0.1
 (Enter /sw/apps/gaussian-16.0/g16/l9999.exe)
 1\1\GINC-BP1-COMPUTE065\SP\RZINDO CIS\STO-3G\C55H74Mg1N4O6\OF15641\04-
 May-2022\0\\#p ZINDO=(nstates=5)\\step_1851_chromophore_12 ZINDO\\0,1\
 Mg,0,47.943,15.311,28.378\C,0,45.772,15.065,31.191\C,0,50.051,17.286,3
 0.154\C,0,49.82,15.419,25.63\C,0,45.438,13.505,26.443\N,0,47.839,16.05
 5,30.356\C,0,46.961,15.809,31.404\C,0,47.459,16.285,32.722\C,0,48.54,1
 7.372,32.224\C,0,48.924,16.821,30.813\C,0,47.945,18.818,32.219\C,0,48.
 097,15.22,33.646\C,0,48.122,15.624,35.175\C,0,49.145,15.368,36.251\O,0

 Normal termination of Gaussian 16 at Wed May  4 15:27:46 2022.
