 Gaussian 16, Revision A.03,
 Gaussian 16:  ES64L-G16RevA.03 25-Dec-2016

 ------------------------------
 #p blyp/Def2SVP td=(nstates=5)
 ------------------------------

 -------------------------------------------------
 step_251_chromophore_1 TDDFT with blyp functional
 -------------------------------------------------
 Symbolic Z-matrix:
 Charge =  0 Multiplicity = 1

                         Standard orientation:
 ---------------------------------------------------------------------
 Center     Atomic      Atomic             Coordinates (Angstroms)
 Number     Number       Type             X           Y           Z
 ---------------------------------------------------------------------
      1         12           0        6.272544    0.356541   -0.042368
      2          6           0        3.718230   -2.126146   -0.522250
      3          6           0        3.811698    2.742452   -0.949316
      4          6           0        8.631400    2.916947    0.234097
      5          6           0        8.596883   -1.999882    0.410428
      6          7           0        4.005121    0.225379   -0.880211
      7          6           0        3.208585   -0.864640   -0.853864
      8          6           0        1.780137   -0.496850   -1.394652
      9          6           0        1.976708    1.030442   -1.703494
     10          6           0        3.334845    1.409013   -1.069391
     11          6           0        1.888747    1.344789   -3.237775
     12          6           0        0.663142   -0.757928   -0.384490
     13          6           0       -0.570294   -1.409693   -0.917819
     14          6           0       -1.688722   -1.789627    0.063337
     15          8           0       -1.661277   -1.665570    1.318237
     16          8           0       -2.830637   -2.199191   -0.634644
     17          7           0        6.216456    2.495934   -0.105627
     18          6           0        5.117851    3.250183   -0.504137
     19          6           0        5.478813    4.651287   -0.416932
     20          6           0        6.793236    4.750263    0.008350
     21          6           0        7.310303    3.340399   -0.009323
     22          6           0        4.608191    5.788525   -0.868391
     23          6           0        7.716480    6.012354    0.257665
     24          8           0        8.864568    6.024105    0.628972
     25          6           0        7.091030    7.388957    0.194265
     26          7           0        8.287508    0.477047    0.117209
     27          6           0        9.093449    1.580725    0.220874
     28          6           0       10.595291    1.213279    0.184753
     29          6           0       10.577090   -0.344613    0.491368
     30          6           0        9.033917   -0.637917    0.360039
     31          6           0       11.293926    1.628110   -1.149557
     32          6           0       11.149533   -0.736400    1.887591
     33          6           0       10.322552   -0.289866    3.091135
     34          7           0        6.257761   -1.617296   -0.068561
     35          6           0        7.315567   -2.526767    0.211089
     36          6           0        6.841134   -3.906519    0.130979
     37          6           0        5.458640   -3.780427   -0.094660
     38          6           0        5.134956   -2.401586   -0.197367
     39          6           0        7.647811   -5.105725    0.323827
     40          6           0        4.258946   -4.590827   -0.278194
     41          8           0        4.120303   -5.800089   -0.201082
     42          6           0        3.070110   -3.553808   -0.657419
     43          6           0        2.035108   -3.956416    0.395848
     44          8           0        2.054936   -3.740646    1.621073
     45          8           0        1.084672   -4.663048   -0.190783
     46          6           0       -0.204594   -4.943742    0.562163
     47          6           0       -3.901938   -2.695348    0.179491
     48          6           0       -5.103892   -1.825724   -0.143411
     49          6           0       -6.382739   -2.263571   -0.342306
     50          6           0       -6.939612   -3.635197   -0.368319
     51          6           0       -7.393772   -1.179825   -0.722540
     52          6           0       -8.358532   -0.737932    0.407603
     53          6           0       -9.345519    0.337426   -0.041460
     54          6           0       -9.476477    1.578593    0.882381
     55          6           0       -8.163403    2.372535    0.823480
     56          6           0       -9.985379    1.282210    2.356978
     57          6           0      -11.306352    2.017871    2.822375
     58          6           0      -12.508143    1.103762    2.474542
     59          6           0      -13.803885    1.889865    2.205911
     60          6           0      -14.837301    1.652055    3.290222
     61          6           0      -14.524279    1.549609    0.876604
     62          6           0      -13.762131    2.072792   -0.302605
     63          6           0      -13.328577    0.923763   -1.262558
     64          6           0      -14.216890    0.861934   -2.501194
     65          6           0      -15.070080   -0.414658   -2.554063
     66          6           0      -13.406764    0.918587   -3.794833
     67          1           0        3.027181    3.472576   -1.157398
     68          1           0        9.438648    3.646977    0.332148
     69          1           0        9.391139   -2.712840    0.640015
     70          1           0        1.625193   -1.184807   -2.225120
     71          1           0        1.237744    1.644211   -1.186656
     72          1           0        1.157569    2.098571   -3.529816
     73          1           0        1.839904    0.458617   -3.870841
     74          1           0        2.747456    1.856634   -3.672791
     75          1           0        0.246582    0.243537   -0.275132
     76          1           0        1.026648   -1.144104    0.568427
     77          1           0       -0.488197   -2.286739   -1.561853
     78          1           0       -0.997404   -0.634718   -1.554382
     79          1           0        3.599882    5.448184   -1.102744
     80          1           0        4.973655    6.335828   -1.738691
     81          1           0        4.435065    6.571441   -0.129852
     82          1           0        6.288908    7.514648    0.921440
     83          1           0        6.776329    7.434247   -0.848382
     84          1           0        7.950712    8.054325    0.274057
     85          1           0       11.036323    1.865105    0.939706
     86          1           0       10.901919   -1.016223   -0.303625
     87          1           0       12.009660    2.439023   -1.014734
     88          1           0       10.666433    1.847548   -2.012675
     89          1           0       11.800641    0.699212   -1.411885
     90          1           0       12.219066   -0.526319    1.871392
     91          1           0       11.138057   -1.824611    1.946549
     92          1           0        9.471755    0.354256    2.871977
     93          1           0       11.005276    0.288228    3.713372
     94          1           0        9.799091   -1.081203    3.626441
     95          1           0        7.108471   -6.046888    0.215042
     96          1           0        8.049018   -5.014790    1.333138
     97          1           0        8.483579   -5.053789   -0.375393
     98          1           0        2.593892   -3.798839   -1.606758
     99          1           0       -0.930291   -5.235609   -0.197287
    100          1           0       -0.621169   -4.055415    1.035999
    101          1           0       -0.093258   -5.685876    1.353550
    102          1           0       -3.803665   -2.624379    1.262783
    103          1           0       -4.100393   -3.752642    0.006054
    104          1           0       -4.981624   -0.831452   -0.573272
    105          1           0       -7.005249   -3.927409   -1.416923
    106          1           0       -7.872431   -3.525297    0.184477
    107          1           0       -6.345381   -4.422240    0.096453
    108          1           0       -7.984622   -1.524042   -1.572044
    109          1           0       -6.954160   -0.284742   -1.161513
    110          1           0       -7.809605   -0.381893    1.279303
    111          1           0       -8.811461   -1.689854    0.683425
    112          1           0      -10.305751   -0.177188   -0.079429
    113          1           0       -9.143917    0.778988   -1.016618
    114          1           0      -10.223429    2.082499    0.268886
    115          1           0       -7.556842    2.017144   -0.010014
    116          1           0       -7.556578    2.146996    1.700548
    117          1           0       -8.460507    3.421454    0.819751
    118          1           0       -9.189661    1.451779    3.083107
    119          1           0      -10.052455    0.195305    2.305315
    120          1           0      -11.487727    3.040146    2.490650
    121          1           0      -11.217009    2.052720    3.908039
    122          1           0      -12.557834    0.551622    3.412440
    123          1           0      -12.237710    0.463593    1.634353
    124          1           0      -13.702174    2.969515    2.096183
    125          1           0      -14.488728    1.364956    4.282045
    126          1           0      -15.682278    1.044771    2.967224
    127          1           0      -15.333202    2.617836    3.384200
    128          1           0      -15.461862    2.104414    0.828585
    129          1           0      -14.760360    0.487232    0.814660
    130          1           0      -12.820148    2.526928    0.003383
    131          1           0      -14.428270    2.728675   -0.862526
    132          1           0      -13.340541    0.006826   -0.675238
    133          1           0      -12.299590    1.080807   -1.584385
    134          1           0      -14.904429    1.700299   -2.614533
    135          1           0      -14.437640   -1.220966   -2.181891
    136          1           0      -15.572625   -0.566050   -3.508842
    137          1           0      -15.797317   -0.278548   -1.753891
    138          1           0      -12.748117    0.077135   -3.581781
    139          1           0      -12.901795    1.869057   -3.969744
    140          1           0      -13.927558    0.642647   -4.712333
 ---------------------------------------------------------------------

 SCF Done:  E(RB-LYP) =  -3007.35777539     A.U. after   21 cycles

 Excitation energies and oscillator strengths:

 Excited State   1:      Singlet-A      1.7784 eV  697.16 nm  f=0.2795  <S**2>=0.000
     245 -> 248        0.19649
     246 -> 247        0.68590
     246 <- 247       -0.15043
 This state for optimization and/or second-order correction.
 Total Energy, E(TD-HF/TD-DFT) =  -3007.29241952
 Copying the excited state density for this state as the 1-particle RhoCI density.

 Excited State   2:      Singlet-A      1.9829 eV  625.28 nm  f=0.0283  <S**2>=0.000
     243 -> 247       -0.16046
     244 -> 247        0.54438
     245 -> 247       -0.38472
     246 -> 248        0.14718

 Excited State   3:      Singlet-A      1.9910 eV  622.71 nm  f=0.0409  <S**2>=0.000
     243 -> 247        0.22311
     244 -> 247        0.44984
     245 -> 247        0.45482
     246 -> 248       -0.17252

 Excited State   4:      Singlet-A      2.1031 eV  589.54 nm  f=0.0151  <S**2>=0.000
     243 -> 247        0.64543
     245 -> 247       -0.23306
     246 -> 248        0.13752

 Excited State   5:      Singlet-A      2.1757 eV  569.87 nm  f=0.0000  <S**2>=0.000
     242 -> 247        0.70708

 The electronic state is 1-A.
 Alpha  occ. eigenvalues --  -46.26749 -18.82947 -18.81918 -18.77662 -18.76185
 Alpha  occ. eigenvalues --  -18.76162 -18.74879 -14.03511 -14.02804 -14.01507
 Alpha  occ. eigenvalues --  -14.01250 -10.05220 -10.02994 -10.00254 -10.00014
 Alpha  occ. eigenvalues --   -9.97855  -9.97853  -9.96929  -9.96838  -9.96751
 Alpha  occ. eigenvalues --   -9.96538  -9.96486  -9.96086  -9.95789  -9.95480
 Alpha  occ. eigenvalues --   -9.94640  -9.94498  -9.94449  -9.94409  -9.94383
 Alpha  occ. eigenvalues --   -9.94381  -9.94283  -9.93965  -9.93838  -9.93708
 Alpha  occ. eigenvalues --   -9.93119  -9.93114  -9.92905  -9.92858  -9.92641
 Alpha  occ. eigenvalues --   -9.92622  -9.92574  -9.92516  -9.92437  -9.92413
 Alpha  occ. eigenvalues --   -9.92356  -9.91821  -9.91802  -9.91713  -9.91594
 Alpha  occ. eigenvalues --   -9.91560  -9.91556  -9.91525  -9.91472  -9.91423
 Alpha  occ. eigenvalues --   -9.91418  -9.91347  -9.91118  -9.91066  -9.90834
 Alpha  occ. eigenvalues --   -9.90784  -9.90692  -9.90579  -9.90536  -9.90347
 Alpha  occ. eigenvalues --   -9.90164  -2.91528  -1.71941  -1.71435  -1.71234
 Alpha  occ. eigenvalues --   -0.97667  -0.97364  -0.92858  -0.91640  -0.89266
 Alpha  occ. eigenvalues --   -0.87287  -0.86072  -0.85484  -0.84619  -0.84202
 Alpha  occ. eigenvalues --   -0.73906  -0.73813  -0.73642  -0.73388  -0.72131
 Alpha  occ. eigenvalues --   -0.72078  -0.71401  -0.71279  -0.70782  -0.70348
 Alpha  occ. eigenvalues --   -0.69934  -0.69099  -0.68127  -0.67439  -0.67315
 Alpha  occ. eigenvalues --   -0.66539  -0.65697  -0.65292  -0.65115  -0.64638
 Alpha  occ. eigenvalues --   -0.64282  -0.62722  -0.62284  -0.61775  -0.60852
 Alpha  occ. eigenvalues --   -0.60580  -0.59881  -0.59859  -0.59217  -0.59010
 Alpha  occ. eigenvalues --   -0.58365  -0.57576  -0.56807  -0.55695  -0.55368
 Alpha  occ. eigenvalues --   -0.53833  -0.53376  -0.52832  -0.52208  -0.51362
 Alpha  occ. eigenvalues --   -0.51289  -0.51147  -0.50500  -0.50145  -0.49943
 Alpha  occ. eigenvalues --   -0.49416  -0.49174  -0.48084  -0.47465  -0.46166
 Alpha  occ. eigenvalues --   -0.46015  -0.45908  -0.45768  -0.44762  -0.43880
 Alpha  occ. eigenvalues --   -0.43442  -0.43130  -0.42685  -0.42536  -0.42476
 Alpha  occ. eigenvalues --   -0.42059  -0.41848  -0.41651  -0.41434  -0.41355
 Alpha  occ. eigenvalues --   -0.41230  -0.40707  -0.40533  -0.40311  -0.40112
 Alpha  occ. eigenvalues --   -0.39903  -0.39866  -0.39680  -0.39641  -0.39282
 Alpha  occ. eigenvalues --   -0.39154  -0.38969  -0.38627  -0.38468  -0.38423
 Alpha  occ. eigenvalues --   -0.38207  -0.37978  -0.37743  -0.37464  -0.37200
 Alpha  occ. eigenvalues --   -0.36982  -0.36786  -0.36653  -0.36502  -0.36406
 Alpha  occ. eigenvalues --   -0.36232  -0.36122  -0.35992  -0.35908  -0.35563
 Alpha  occ. eigenvalues --   -0.35441  -0.35225  -0.35137  -0.34766  -0.34717
 Alpha  occ. eigenvalues --   -0.34493  -0.34373  -0.34178  -0.34074  -0.33846
 Alpha  occ. eigenvalues --   -0.33665  -0.33629  -0.33492  -0.33350  -0.33023
 Alpha  occ. eigenvalues --   -0.32988  -0.32790  -0.32641  -0.32575  -0.32245
 Alpha  occ. eigenvalues --   -0.32185  -0.31890  -0.31795  -0.31673  -0.31452
 Alpha  occ. eigenvalues --   -0.31336  -0.31172  -0.31140  -0.30928  -0.30772
 Alpha  occ. eigenvalues --   -0.30573  -0.30518  -0.30423  -0.29941  -0.29644
 Alpha  occ. eigenvalues --   -0.29573  -0.29413  -0.29337  -0.29116  -0.28921
 Alpha  occ. eigenvalues --   -0.28708  -0.28678  -0.28495  -0.28409  -0.28039
 Alpha  occ. eigenvalues --   -0.27700  -0.27464  -0.26704  -0.26439  -0.26300
 Alpha  occ. eigenvalues --   -0.26209  -0.26106  -0.25608  -0.25363  -0.25040
 Alpha  occ. eigenvalues --   -0.24880  -0.24248  -0.24192  -0.23664  -0.23650
 Alpha  occ. eigenvalues --   -0.23128  -0.22461  -0.22105  -0.20974  -0.20674
 Alpha  occ. eigenvalues --   -0.20100  -0.19544  -0.19088  -0.18775  -0.17307
 Alpha  occ. eigenvalues --   -0.15733
 Alpha virt. eigenvalues --   -0.11548  -0.07091  -0.05909  -0.04666  -0.04317
 Alpha virt. eigenvalues --   -0.01933  -0.01803  -0.01539  -0.01350  -0.00054
 Alpha virt. eigenvalues --    0.01048   0.01280   0.02063   0.02226   0.02588

 Mulliken charges:
               1
     1  Mg   0.715472
     2  C    0.071093
     3  C   -0.040337
     4  C   -0.030555
     5  C   -0.093897
     6  N   -0.180130
     7  C   -0.095451
     8  C    0.021375
     9  C    0.024444
    10  C    0.001070
    11  C    0.122348
    12  C    0.145564
    13  C    0.075614
    14  C    0.105966
    15  O   -0.213225
    16  O   -0.270351
    17  N   -0.287207
    18  C    0.151380
    19  C   -0.121241
    20  C    0.010326
    21  C    0.093658
    22  C    0.159007
    23  C   -0.071646
    24  O   -0.145715
    25  C    0.138819
    26  N   -0.252630
    27  C    0.000007
    28  C    0.022375
    29  C    0.026343
    30  C    0.024499
    31  C    0.131503
    32  C    0.094348
    33  C    0.070001
    34  N   -0.346739
    35  C    0.151859
    36  C   -0.162075
    37  C    0.092548
    38  C    0.087508
    39  C    0.186752
    40  C   -0.041393
    41  O   -0.124248
    42  C    0.001769
    43  C    0.094837
    44  O   -0.213831
    45  O   -0.248586
    46  C    0.202092
    47  C    0.335081
    48  C   -0.078056
    49  C   -0.171050
    50  C    0.169153
    51  C    0.072256
    52  C    0.087605
    53  C    0.060126
    54  C   -0.092522
    55  C    0.121316
    56  C    0.103321
    57  C    0.077040
    58  C    0.116083
    59  C   -0.075089
    60  C    0.129801
    61  C    0.057040
    62  C    0.096640
    63  C    0.079799
    64  C   -0.074546
    65  C    0.100997
    66  C    0.084593
    67  H   -0.059708
    68  H   -0.045790
    69  H   -0.067125
    70  H   -0.020550
    71  H   -0.023655
    72  H   -0.013895
    73  H   -0.009141
    74  H   -0.022622
    75  H   -0.031941
    76  H    0.027601
    77  H    0.004138
    78  H    0.002306
    79  H   -0.030698
    80  H    0.007009
    81  H   -0.011227
    82  H    0.029400
    83  H   -0.011681
    84  H   -0.009502
    85  H   -0.020908
    86  H   -0.018985
    87  H    0.002305
    88  H   -0.000541
    89  H   -0.021142
    90  H   -0.015449
    91  H   -0.030578
    92  H    0.000042
    93  H   -0.000902
    94  H   -0.005150
    95  H    0.010983
    96  H    0.004324
    97  H   -0.003459
    98  H   -0.007155
    99  H    0.014009
   100  H    0.027680
   101  H    0.029659
   102  H    0.010386
   103  H   -0.017007
   104  H   -0.036078
   105  H    0.012265
   106  H   -0.002958
   107  H   -0.019810
   108  H   -0.040594
   109  H   -0.039614
   110  H   -0.028506
   111  H   -0.033526
   112  H   -0.029209
   113  H   -0.023427
   114  H   -0.038041
   115  H   -0.020679
   116  H   -0.016679
   117  H   -0.005326
   118  H   -0.040695
   119  H   -0.033806
   120  H   -0.019550
   121  H   -0.036179
   122  H   -0.026731
   123  H   -0.016105
   124  H   -0.032777
   125  H   -0.019896
   126  H   -0.023957
   127  H   -0.040388
   128  H   -0.045463
   129  H   -0.025476
   130  H   -0.024055
   131  H   -0.030296
   132  H   -0.026801
   133  H   -0.032995
   134  H   -0.037617
   135  H   -0.019774
   136  H   -0.007084
   137  H   -0.026452
   138  H   -0.027786
   139  H   -0.011927
   140  H   -0.025951
 Sum of Mulliken charges =  -0.00000

 Dipole moment (field-independent basis, Debye):
    X=             -1.7181    Y=              2.1459    Z=             -3.4934  Tot=              4.4453
 Quadrupole moment (field-independent basis, Debye-Ang):
   XX=           -363.3589   YY=           -420.0229   ZZ=           -410.4127
   XY=             -5.5618   XZ=             -4.7641   YZ=             -3.1441

 Normal termination of Gaussian 16 at Fri Apr 29 10:11:33 2022.
