 Gaussian 16, Revision A.03,
 Gaussian 16:  ES64L-G16RevA.03 25-Dec-2016

 -----------------------------------
 #p cam-b3lyp/Def2SVP td=(nstates=5)
 -----------------------------------

 ------------------------------------------------------
 step_251_chromophore_1 TDDFT with cam-b3lyp functional
 ------------------------------------------------------
 Symbolic Z-matrix:
 Charge =  0 Multiplicity = 1

                         Standard orientation:
 ---------------------------------------------------------------------
 Center     Atomic      Atomic             Coordinates (Angstroms)
 Number     Number       Type             X           Y           Z
 ---------------------------------------------------------------------
      1         12           0        6.272544    0.356541   -0.042368
      2          6           0        3.718230   -2.126146   -0.522250
      3          6           0        3.811698    2.742452   -0.949316
      4          6           0        8.631400    2.916947    0.234097
      5          6           0        8.596883   -1.999882    0.410428
      6          7           0        4.005121    0.225379   -0.880211
      7          6           0        3.208585   -0.864640   -0.853864
      8          6           0        1.780137   -0.496850   -1.394652
      9          6           0        1.976708    1.030442   -1.703494
     10          6           0        3.334845    1.409013   -1.069391
     11          6           0        1.888747    1.344789   -3.237775
     12          6           0        0.663142   -0.757928   -0.384490
     13          6           0       -0.570294   -1.409693   -0.917819
     14          6           0       -1.688722   -1.789627    0.063337
     15          8           0       -1.661277   -1.665570    1.318237
     16          8           0       -2.830637   -2.199191   -0.634644
     17          7           0        6.216456    2.495934   -0.105627
     18          6           0        5.117851    3.250183   -0.504137
     19          6           0        5.478813    4.651287   -0.416932
     20          6           0        6.793236    4.750263    0.008350
     21          6           0        7.310303    3.340399   -0.009323
     22          6           0        4.608191    5.788525   -0.868391
     23          6           0        7.716480    6.012354    0.257665
     24          8           0        8.864568    6.024105    0.628972
     25          6           0        7.091030    7.388957    0.194265
     26          7           0        8.287508    0.477047    0.117209
     27          6           0        9.093449    1.580725    0.220874
     28          6           0       10.595291    1.213279    0.184753
     29          6           0       10.577090   -0.344613    0.491368
     30          6           0        9.033917   -0.637917    0.360039
     31          6           0       11.293926    1.628110   -1.149557
     32          6           0       11.149533   -0.736400    1.887591
     33          6           0       10.322552   -0.289866    3.091135
     34          7           0        6.257761   -1.617296   -0.068561
     35          6           0        7.315567   -2.526767    0.211089
     36          6           0        6.841134   -3.906519    0.130979
     37          6           0        5.458640   -3.780427   -0.094660
     38          6           0        5.134956   -2.401586   -0.197367
     39          6           0        7.647811   -5.105725    0.323827
     40          6           0        4.258946   -4.590827   -0.278194
     41          8           0        4.120303   -5.800089   -0.201082
     42          6           0        3.070110   -3.553808   -0.657419
     43          6           0        2.035108   -3.956416    0.395848
     44          8           0        2.054936   -3.740646    1.621073
     45          8           0        1.084672   -4.663048   -0.190783
     46          6           0       -0.204594   -4.943742    0.562163
     47          6           0       -3.901938   -2.695348    0.179491
     48          6           0       -5.103892   -1.825724   -0.143411
     49          6           0       -6.382739   -2.263571   -0.342306
     50          6           0       -6.939612   -3.635197   -0.368319
     51          6           0       -7.393772   -1.179825   -0.722540
     52          6           0       -8.358532   -0.737932    0.407603
     53          6           0       -9.345519    0.337426   -0.041460
     54          6           0       -9.476477    1.578593    0.882381
     55          6           0       -8.163403    2.372535    0.823480
     56          6           0       -9.985379    1.282210    2.356978
     57          6           0      -11.306352    2.017871    2.822375
     58          6           0      -12.508143    1.103762    2.474542
     59          6           0      -13.803885    1.889865    2.205911
     60          6           0      -14.837301    1.652055    3.290222
     61          6           0      -14.524279    1.549609    0.876604
     62          6           0      -13.762131    2.072792   -0.302605
     63          6           0      -13.328577    0.923763   -1.262558
     64          6           0      -14.216890    0.861934   -2.501194
     65          6           0      -15.070080   -0.414658   -2.554063
     66          6           0      -13.406764    0.918587   -3.794833
     67          1           0        3.027181    3.472576   -1.157398
     68          1           0        9.438648    3.646977    0.332148
     69          1           0        9.391139   -2.712840    0.640015
     70          1           0        1.625193   -1.184807   -2.225120
     71          1           0        1.237744    1.644211   -1.186656
     72          1           0        1.157569    2.098571   -3.529816
     73          1           0        1.839904    0.458617   -3.870841
     74          1           0        2.747456    1.856634   -3.672791
     75          1           0        0.246582    0.243537   -0.275132
     76          1           0        1.026648   -1.144104    0.568427
     77          1           0       -0.488197   -2.286739   -1.561853
     78          1           0       -0.997404   -0.634718   -1.554382
     79          1           0        3.599882    5.448184   -1.102744
     80          1           0        4.973655    6.335828   -1.738691
     81          1           0        4.435065    6.571441   -0.129852
     82          1           0        6.288908    7.514648    0.921440
     83          1           0        6.776329    7.434247   -0.848382
     84          1           0        7.950712    8.054325    0.274057
     85          1           0       11.036323    1.865105    0.939706
     86          1           0       10.901919   -1.016223   -0.303625
     87          1           0       12.009660    2.439023   -1.014734
     88          1           0       10.666433    1.847548   -2.012675
     89          1           0       11.800641    0.699212   -1.411885
     90          1           0       12.219066   -0.526319    1.871392
     91          1           0       11.138057   -1.824611    1.946549
     92          1           0        9.471755    0.354256    2.871977
     93          1           0       11.005276    0.288228    3.713372
     94          1           0        9.799091   -1.081203    3.626441
     95          1           0        7.108471   -6.046888    0.215042
     96          1           0        8.049018   -5.014790    1.333138
     97          1           0        8.483579   -5.053789   -0.375393
     98          1           0        2.593892   -3.798839   -1.606758
     99          1           0       -0.930291   -5.235609   -0.197287
    100          1           0       -0.621169   -4.055415    1.035999
    101          1           0       -0.093258   -5.685876    1.353550
    102          1           0       -3.803665   -2.624379    1.262783
    103          1           0       -4.100393   -3.752642    0.006054
    104          1           0       -4.981624   -0.831452   -0.573272
    105          1           0       -7.005249   -3.927409   -1.416923
    106          1           0       -7.872431   -3.525297    0.184477
    107          1           0       -6.345381   -4.422240    0.096453
    108          1           0       -7.984622   -1.524042   -1.572044
    109          1           0       -6.954160   -0.284742   -1.161513
    110          1           0       -7.809605   -0.381893    1.279303
    111          1           0       -8.811461   -1.689854    0.683425
    112          1           0      -10.305751   -0.177188   -0.079429
    113          1           0       -9.143917    0.778988   -1.016618
    114          1           0      -10.223429    2.082499    0.268886
    115          1           0       -7.556842    2.017144   -0.010014
    116          1           0       -7.556578    2.146996    1.700548
    117          1           0       -8.460507    3.421454    0.819751
    118          1           0       -9.189661    1.451779    3.083107
    119          1           0      -10.052455    0.195305    2.305315
    120          1           0      -11.487727    3.040146    2.490650
    121          1           0      -11.217009    2.052720    3.908039
    122          1           0      -12.557834    0.551622    3.412440
    123          1           0      -12.237710    0.463593    1.634353
    124          1           0      -13.702174    2.969515    2.096183
    125          1           0      -14.488728    1.364956    4.282045
    126          1           0      -15.682278    1.044771    2.967224
    127          1           0      -15.333202    2.617836    3.384200
    128          1           0      -15.461862    2.104414    0.828585
    129          1           0      -14.760360    0.487232    0.814660
    130          1           0      -12.820148    2.526928    0.003383
    131          1           0      -14.428270    2.728675   -0.862526
    132          1           0      -13.340541    0.006826   -0.675238
    133          1           0      -12.299590    1.080807   -1.584385
    134          1           0      -14.904429    1.700299   -2.614533
    135          1           0      -14.437640   -1.220966   -2.181891
    136          1           0      -15.572625   -0.566050   -3.508842
    137          1           0      -15.797317   -0.278548   -1.753891
    138          1           0      -12.748117    0.077135   -3.581781
    139          1           0      -12.901795    1.869057   -3.969744
    140          1           0      -13.927558    0.642647   -4.712333
 ---------------------------------------------------------------------

 SCF Done:  E(RCAM-B3LYP) =  -3007.14238368     A.U. after   16 cycles

 Excitation energies and oscillator strengths:

 Excited State   1:      Singlet-A      1.6517 eV  750.65 nm  f=0.3626  <S**2>=0.000
     245 -> 248        0.18428
     246 -> 247        0.68511
     245 <- 248        0.11262
 This state for optimization and/or second-order correction.
 Total Energy, E(TD-HF/TD-DFT) =  -3007.08168485
 Copying the excited state density for this state as the 1-particle RhoCI density.

 Excited State   2:      Singlet-A      2.2170 eV  559.25 nm  f=0.0969  <S**2>=0.000
     245 -> 247        0.62568
     246 -> 248       -0.32056

 Excited State   3:      Singlet-A      3.4395 eV  360.47 nm  f=0.5800  <S**2>=0.000
     241 -> 247        0.12913
     242 -> 247        0.25504
     245 -> 247        0.27145
     246 -> 248        0.57205
     245 <- 247       -0.10531

 Excited State   4:      Singlet-A      3.4611 eV  358.23 nm  f=0.0191  <S**2>=0.000
     242 -> 247       -0.10736
     243 -> 247        0.67058
     246 -> 248        0.10368

 Excited State   5:      Singlet-A      3.6118 eV  343.28 nm  f=0.0237  <S**2>=0.000
     239 -> 247       -0.13218
     240 -> 247        0.25390
     240 -> 249       -0.14678
     241 -> 247        0.48415
     241 -> 249       -0.25465
     241 -> 250        0.15454
     242 -> 247       -0.11540

 The electronic state is 1-A.
 Alpha  occ. eigenvalues --  -46.88258 -19.25881 -19.24890 -19.20687 -19.19475
 Alpha  occ. eigenvalues --  -19.19325 -19.17848 -14.42423 -14.41534 -14.40067
 Alpha  occ. eigenvalues --  -14.39643 -10.40741 -10.38340 -10.35549 -10.35357
 Alpha  occ. eigenvalues --  -10.32032 -10.31875 -10.31398 -10.31335 -10.31234
 Alpha  occ. eigenvalues --  -10.31054 -10.31006 -10.30593 -10.29966 -10.29879
 Alpha  occ. eigenvalues --  -10.28846 -10.28728 -10.28674 -10.28532 -10.28373
 Alpha  occ. eigenvalues --  -10.28334 -10.28331 -10.28322 -10.28250 -10.28116
 Alpha  occ. eigenvalues --  -10.27495 -10.27250 -10.26847 -10.26823 -10.26788
 Alpha  occ. eigenvalues --  -10.26581 -10.26387 -10.26300 -10.26275 -10.26039
 Alpha  occ. eigenvalues --  -10.25977 -10.25666 -10.25560 -10.25484 -10.25416
 Alpha  occ. eigenvalues --  -10.25385 -10.25344 -10.25290 -10.25266 -10.25231
 Alpha  occ. eigenvalues --  -10.25154 -10.25097 -10.24829 -10.24710 -10.24515
 Alpha  occ. eigenvalues --  -10.24374 -10.24293 -10.24219 -10.24172 -10.23945
 Alpha  occ. eigenvalues --  -10.23727  -3.16947  -1.91833  -1.91420  -1.91253
 Alpha  occ. eigenvalues --   -1.16096  -1.15871  -1.11413  -1.09996  -1.07151
 Alpha  occ. eigenvalues --   -1.05152  -1.03756  -1.03122  -1.02180  -1.01672
 Alpha  occ. eigenvalues --   -0.90879  -0.90744  -0.90507  -0.90246  -0.88856
 Alpha  occ. eigenvalues --   -0.88711  -0.88039  -0.87962  -0.87354  -0.86931
 Alpha  occ. eigenvalues --   -0.86477  -0.85468  -0.84396  -0.83543  -0.83464
 Alpha  occ. eigenvalues --   -0.82594  -0.81698  -0.81362  -0.81026  -0.80483
 Alpha  occ. eigenvalues --   -0.80157  -0.78372  -0.78012  -0.77262  -0.76284
 Alpha  occ. eigenvalues --   -0.75966  -0.75232  -0.75125  -0.74471  -0.74267
 Alpha  occ. eigenvalues --   -0.73449  -0.72555  -0.71702  -0.70505  -0.69982
 Alpha  occ. eigenvalues --   -0.68436  -0.67905  -0.67275  -0.66535  -0.65585
 Alpha  occ. eigenvalues --   -0.65579  -0.65096  -0.64551  -0.64064  -0.63760
 Alpha  occ. eigenvalues --   -0.63399  -0.63171  -0.61732  -0.61186  -0.59733
 Alpha  occ. eigenvalues --   -0.59615  -0.59541  -0.59250  -0.58090  -0.57332
 Alpha  occ. eigenvalues --   -0.56750  -0.56479  -0.56140  -0.55671  -0.55609
 Alpha  occ. eigenvalues --   -0.54977  -0.54916  -0.54803  -0.54485  -0.54162
 Alpha  occ. eigenvalues --   -0.53955  -0.53639  -0.53247  -0.53172  -0.52772
 Alpha  occ. eigenvalues --   -0.52744  -0.52465  -0.52388  -0.52173  -0.52113
 Alpha  occ. eigenvalues --   -0.51657  -0.51419  -0.51228  -0.50921  -0.50829
 Alpha  occ. eigenvalues --   -0.50707  -0.50201  -0.49948  -0.49776  -0.49516
 Alpha  occ. eigenvalues --   -0.49468  -0.49213  -0.49056  -0.48884  -0.48630
 Alpha  occ. eigenvalues --   -0.48570  -0.48450  -0.48365  -0.48234  -0.48077
 Alpha  occ. eigenvalues --   -0.47434  -0.47403  -0.47064  -0.46730  -0.46650
 Alpha  occ. eigenvalues --   -0.46357  -0.46286  -0.46114  -0.45922  -0.45608
 Alpha  occ. eigenvalues --   -0.45487  -0.45327  -0.45183  -0.45036  -0.44792
 Alpha  occ. eigenvalues --   -0.44608  -0.44516  -0.44278  -0.44113  -0.43869
 Alpha  occ. eigenvalues --   -0.43705  -0.43585  -0.43537  -0.43350  -0.43016
 Alpha  occ. eigenvalues --   -0.42848  -0.42752  -0.42687  -0.42491  -0.42418
 Alpha  occ. eigenvalues --   -0.41857  -0.41807  -0.41671  -0.41495  -0.40899
 Alpha  occ. eigenvalues --   -0.40763  -0.40752  -0.40604  -0.40314  -0.40173
 Alpha  occ. eigenvalues --   -0.39977  -0.39679  -0.39599  -0.39545  -0.39011
 Alpha  occ. eigenvalues --   -0.38621  -0.38293  -0.38021  -0.37615  -0.37012
 Alpha  occ. eigenvalues --   -0.36870  -0.36797  -0.36330  -0.36174  -0.35974
 Alpha  occ. eigenvalues --   -0.35609  -0.35524  -0.34799  -0.34685  -0.34089
 Alpha  occ. eigenvalues --   -0.33916  -0.33078  -0.32605  -0.31408  -0.30948
 Alpha  occ. eigenvalues --   -0.30759  -0.30319  -0.29946  -0.29146  -0.24076
 Alpha  occ. eigenvalues --   -0.20929
 Alpha virt. eigenvalues --   -0.08664  -0.02004   0.00686   0.02421   0.03462
 Alpha virt. eigenvalues --    0.03597   0.05200   0.05686   0.06248   0.06344
 Alpha virt. eigenvalues --    0.07904   0.08246   0.08338   0.08805   0.08919

 Mulliken charges:
               1
     1  Mg   0.848599
     2  C    0.044245
     3  C   -0.059761
     4  C   -0.047508
     5  C   -0.098653
     6  N   -0.248363
     7  C   -0.047349
     8  C   -0.026622
     9  C   -0.032087
    10  C    0.025260
    11  C    0.061433
    12  C    0.086438
    13  C    0.008808
    14  C    0.189131
    15  O   -0.254108
    16  O   -0.333575
    17  N   -0.370649
    18  C    0.163490
    19  C   -0.135932
    20  C   -0.047419
    21  C    0.113896
    22  C    0.100946
    23  C    0.008326
    24  O   -0.184733
    25  C    0.055695
    26  N   -0.324689
    27  C    0.018212
    28  C   -0.032819
    29  C   -0.028985
    30  C    0.038352
    31  C    0.074274
    32  C    0.042206
    33  C    0.003748
    34  N   -0.436316
    35  C    0.151015
    36  C   -0.152907
    37  C    0.006942
    38  C    0.125941
    39  C    0.128406
    40  C    0.056023
    41  O   -0.163157
    42  C   -0.067793
    43  C    0.182041
    44  O   -0.252211
    45  O   -0.312691
    46  C    0.168684
    47  C    0.294489
    48  C   -0.093887
    49  C   -0.193615
    50  C    0.106876
    51  C    0.017558
    52  C    0.032818
    53  C    0.011449
    54  C   -0.141884
    55  C    0.063220
    56  C    0.047452
    57  C    0.024949
    58  C    0.064067
    59  C   -0.132887
    60  C    0.068588
    61  C    0.007195
    62  C    0.041562
    63  C    0.026599
    64  C   -0.136460
    65  C    0.044845
    66  C    0.027064
    67  H   -0.026542
    68  H   -0.004509
    69  H   -0.031211
    70  H    0.013321
    71  H    0.010631
    72  H    0.011174
    73  H    0.016190
    74  H    0.005438
    75  H   -0.000662
    76  H    0.058560
    77  H    0.033542
    78  H    0.033928
    79  H   -0.001641
    80  H    0.033387
    81  H    0.016176
    82  H    0.055179
    83  H    0.014111
    84  H    0.026459
    85  H    0.013987
    86  H    0.016990
    87  H    0.026028
    88  H    0.025085
    89  H    0.002836
    90  H    0.013478
    91  H   -0.002116
    92  H    0.021767
    93  H    0.022763
    94  H    0.020175
    95  H    0.040162
    96  H    0.029606
    97  H    0.021837
    98  H    0.035567
    99  H    0.036530
   100  H    0.046748
   101  H    0.055027
   102  H    0.044886
   103  H    0.009412
   104  H   -0.002372
   105  H    0.037618
   106  H    0.018580
   107  H    0.005596
   108  H   -0.010070
   109  H   -0.011699
   110  H   -0.000566
   111  H   -0.007456
   112  H   -0.003312
   113  H    0.004419
   114  H   -0.009161
   115  H    0.001775
   116  H    0.005905
   117  H    0.019052
   118  H   -0.010658
   119  H   -0.005357
   120  H    0.006459
   121  H   -0.006646
   122  H    0.002934
   123  H    0.004788
   124  H   -0.001172
   125  H    0.005413
   126  H    0.001591
   127  H   -0.014010
   128  H   -0.013896
   129  H    0.000906
   130  H    0.001157
   131  H   -0.000467
   132  H   -0.001056
   133  H   -0.004829
   134  H   -0.007083
   135  H    0.003357
   136  H    0.017367
   137  H   -0.002293
   138  H   -0.005553
   139  H    0.012653
   140  H    0.000007
 Sum of Mulliken charges =  -0.00000

 Dipole moment (field-independent basis, Debye):
    X=             -1.8481    Y=              2.7241    Z=             -3.8080  Tot=              5.0336
 Quadrupole moment (field-independent basis, Debye-Ang):
   XX=           -361.4513   YY=           -415.4635   ZZ=           -410.7747
   XY=             -2.1220   XZ=             -4.9912   YZ=             -3.6697

 Normal termination of Gaussian 16 at Fri Apr 29 09:12:56 2022.
