 Gaussian 16, Revision A.03,
 Gaussian 16:  ES64L-G16RevA.03 25-Dec-2016

 ---------------------------------
 #p PBE1PBE/Def2SVP td=(nstates=5)
 ---------------------------------

 ----------------------------------------------------
 step_251_chromophore_1 TDDFT with PBE1PBE functional
 ----------------------------------------------------
 Symbolic Z-matrix:
 Charge =  0 Multiplicity = 1

                         Standard orientation:
 ---------------------------------------------------------------------
 Center     Atomic      Atomic             Coordinates (Angstroms)
 Number     Number       Type             X           Y           Z
 ---------------------------------------------------------------------
      1         12           0        6.272544    0.356541   -0.042368
      2          6           0        3.718230   -2.126146   -0.522250
      3          6           0        3.811698    2.742452   -0.949316
      4          6           0        8.631400    2.916947    0.234097
      5          6           0        8.596883   -1.999882    0.410428
      6          7           0        4.005121    0.225379   -0.880211
      7          6           0        3.208585   -0.864640   -0.853864
      8          6           0        1.780137   -0.496850   -1.394652
      9          6           0        1.976708    1.030442   -1.703494
     10          6           0        3.334845    1.409013   -1.069391
     11          6           0        1.888747    1.344789   -3.237775
     12          6           0        0.663142   -0.757928   -0.384490
     13          6           0       -0.570294   -1.409693   -0.917819
     14          6           0       -1.688722   -1.789627    0.063337
     15          8           0       -1.661277   -1.665570    1.318237
     16          8           0       -2.830637   -2.199191   -0.634644
     17          7           0        6.216456    2.495934   -0.105627
     18          6           0        5.117851    3.250183   -0.504137
     19          6           0        5.478813    4.651287   -0.416932
     20          6           0        6.793236    4.750263    0.008350
     21          6           0        7.310303    3.340399   -0.009323
     22          6           0        4.608191    5.788525   -0.868391
     23          6           0        7.716480    6.012354    0.257665
     24          8           0        8.864568    6.024105    0.628972
     25          6           0        7.091030    7.388957    0.194265
     26          7           0        8.287508    0.477047    0.117209
     27          6           0        9.093449    1.580725    0.220874
     28          6           0       10.595291    1.213279    0.184753
     29          6           0       10.577090   -0.344613    0.491368
     30          6           0        9.033917   -0.637917    0.360039
     31          6           0       11.293926    1.628110   -1.149557
     32          6           0       11.149533   -0.736400    1.887591
     33          6           0       10.322552   -0.289866    3.091135
     34          7           0        6.257761   -1.617296   -0.068561
     35          6           0        7.315567   -2.526767    0.211089
     36          6           0        6.841134   -3.906519    0.130979
     37          6           0        5.458640   -3.780427   -0.094660
     38          6           0        5.134956   -2.401586   -0.197367
     39          6           0        7.647811   -5.105725    0.323827
     40          6           0        4.258946   -4.590827   -0.278194
     41          8           0        4.120303   -5.800089   -0.201082
     42          6           0        3.070110   -3.553808   -0.657419
     43          6           0        2.035108   -3.956416    0.395848
     44          8           0        2.054936   -3.740646    1.621073
     45          8           0        1.084672   -4.663048   -0.190783
     46          6           0       -0.204594   -4.943742    0.562163
     47          6           0       -3.901938   -2.695348    0.179491
     48          6           0       -5.103892   -1.825724   -0.143411
     49          6           0       -6.382739   -2.263571   -0.342306
     50          6           0       -6.939612   -3.635197   -0.368319
     51          6           0       -7.393772   -1.179825   -0.722540
     52          6           0       -8.358532   -0.737932    0.407603
     53          6           0       -9.345519    0.337426   -0.041460
     54          6           0       -9.476477    1.578593    0.882381
     55          6           0       -8.163403    2.372535    0.823480
     56          6           0       -9.985379    1.282210    2.356978
     57          6           0      -11.306352    2.017871    2.822375
     58          6           0      -12.508143    1.103762    2.474542
     59          6           0      -13.803885    1.889865    2.205911
     60          6           0      -14.837301    1.652055    3.290222
     61          6           0      -14.524279    1.549609    0.876604
     62          6           0      -13.762131    2.072792   -0.302605
     63          6           0      -13.328577    0.923763   -1.262558
     64          6           0      -14.216890    0.861934   -2.501194
     65          6           0      -15.070080   -0.414658   -2.554063
     66          6           0      -13.406764    0.918587   -3.794833
     67          1           0        3.027181    3.472576   -1.157398
     68          1           0        9.438648    3.646977    0.332148
     69          1           0        9.391139   -2.712840    0.640015
     70          1           0        1.625193   -1.184807   -2.225120
     71          1           0        1.237744    1.644211   -1.186656
     72          1           0        1.157569    2.098571   -3.529816
     73          1           0        1.839904    0.458617   -3.870841
     74          1           0        2.747456    1.856634   -3.672791
     75          1           0        0.246582    0.243537   -0.275132
     76          1           0        1.026648   -1.144104    0.568427
     77          1           0       -0.488197   -2.286739   -1.561853
     78          1           0       -0.997404   -0.634718   -1.554382
     79          1           0        3.599882    5.448184   -1.102744
     80          1           0        4.973655    6.335828   -1.738691
     81          1           0        4.435065    6.571441   -0.129852
     82          1           0        6.288908    7.514648    0.921440
     83          1           0        6.776329    7.434247   -0.848382
     84          1           0        7.950712    8.054325    0.274057
     85          1           0       11.036323    1.865105    0.939706
     86          1           0       10.901919   -1.016223   -0.303625
     87          1           0       12.009660    2.439023   -1.014734
     88          1           0       10.666433    1.847548   -2.012675
     89          1           0       11.800641    0.699212   -1.411885
     90          1           0       12.219066   -0.526319    1.871392
     91          1           0       11.138057   -1.824611    1.946549
     92          1           0        9.471755    0.354256    2.871977
     93          1           0       11.005276    0.288228    3.713372
     94          1           0        9.799091   -1.081203    3.626441
     95          1           0        7.108471   -6.046888    0.215042
     96          1           0        8.049018   -5.014790    1.333138
     97          1           0        8.483579   -5.053789   -0.375393
     98          1           0        2.593892   -3.798839   -1.606758
     99          1           0       -0.930291   -5.235609   -0.197287
    100          1           0       -0.621169   -4.055415    1.035999
    101          1           0       -0.093258   -5.685876    1.353550
    102          1           0       -3.803665   -2.624379    1.262783
    103          1           0       -4.100393   -3.752642    0.006054
    104          1           0       -4.981624   -0.831452   -0.573272
    105          1           0       -7.005249   -3.927409   -1.416923
    106          1           0       -7.872431   -3.525297    0.184477
    107          1           0       -6.345381   -4.422240    0.096453
    108          1           0       -7.984622   -1.524042   -1.572044
    109          1           0       -6.954160   -0.284742   -1.161513
    110          1           0       -7.809605   -0.381893    1.279303
    111          1           0       -8.811461   -1.689854    0.683425
    112          1           0      -10.305751   -0.177188   -0.079429
    113          1           0       -9.143917    0.778988   -1.016618
    114          1           0      -10.223429    2.082499    0.268886
    115          1           0       -7.556842    2.017144   -0.010014
    116          1           0       -7.556578    2.146996    1.700548
    117          1           0       -8.460507    3.421454    0.819751
    118          1           0       -9.189661    1.451779    3.083107
    119          1           0      -10.052455    0.195305    2.305315
    120          1           0      -11.487727    3.040146    2.490650
    121          1           0      -11.217009    2.052720    3.908039
    122          1           0      -12.557834    0.551622    3.412440
    123          1           0      -12.237710    0.463593    1.634353
    124          1           0      -13.702174    2.969515    2.096183
    125          1           0      -14.488728    1.364956    4.282045
    126          1           0      -15.682278    1.044771    2.967224
    127          1           0      -15.333202    2.617836    3.384200
    128          1           0      -15.461862    2.104414    0.828585
    129          1           0      -14.760360    0.487232    0.814660
    130          1           0      -12.820148    2.526928    0.003383
    131          1           0      -14.428270    2.728675   -0.862526
    132          1           0      -13.340541    0.006826   -0.675238
    133          1           0      -12.299590    1.080807   -1.584385
    134          1           0      -14.904429    1.700299   -2.614533
    135          1           0      -14.437640   -1.220966   -2.181891
    136          1           0      -15.572625   -0.566050   -3.508842
    137          1           0      -15.797317   -0.278548   -1.753891
    138          1           0      -12.748117    0.077135   -3.581781
    139          1           0      -12.901795    1.869057   -3.969744
    140          1           0      -13.927558    0.642647   -4.712333
 ---------------------------------------------------------------------

 SCF Done:  E(RPBE1PBE) =  -3005.33170024     A.U. after   15 cycles

 Excitation energies and oscillator strengths:

 Excited State   1:      Singlet-A      1.8212 eV  680.78 nm  f=0.3518  <S**2>=0.000
     245 -> 248        0.17721
     246 -> 247        0.69229
     246 <- 247       -0.10890
 This state for optimization and/or second-order correction.
 Total Energy, E(TD-HF/TD-DFT) =  -3005.26477204
 Copying the excited state density for this state as the 1-particle RhoCI density.

 Excited State   2:      Singlet-A      2.2318 eV  555.54 nm  f=0.0988  <S**2>=0.000
     245 -> 247        0.63928
     246 -> 248       -0.29209

 Excited State   3:      Singlet-A      3.0743 eV  403.30 nm  f=0.0042  <S**2>=0.000
     241 -> 247        0.36936
     241 -> 249       -0.10572
     242 -> 247       -0.23821
     243 -> 247        0.51289

 Excited State   4:      Singlet-A      3.0931 eV  400.84 nm  f=0.0015  <S**2>=0.000
     241 -> 247       -0.29762
     242 -> 247        0.41567
     243 -> 247        0.44049
     246 -> 248       -0.10477

 Excited State   5:      Singlet-A      3.1658 eV  391.63 nm  f=0.0001  <S**2>=0.000
     240 -> 247        0.15925
     241 -> 247        0.45424
     242 -> 247        0.47595
     243 -> 247       -0.15189

 The electronic state is 1-A.
 Alpha  occ. eigenvalues --  -46.91679 -19.26581 -19.25523 -19.20986 -19.19616
 Alpha  occ. eigenvalues --  -19.19592 -19.18115 -14.41930 -14.41099 -14.39697
 Alpha  occ. eigenvalues --  -14.39382 -10.37795 -10.35387 -10.32647 -10.32574
 Alpha  occ. eigenvalues --  -10.29286 -10.29242 -10.29202 -10.29084 -10.28981
 Alpha  occ. eigenvalues --  -10.28789 -10.28650 -10.28255 -10.27801 -10.27646
 Alpha  occ. eigenvalues --  -10.26656 -10.26530 -10.26495 -10.26356 -10.26265
 Alpha  occ. eigenvalues --  -10.26168 -10.25952 -10.25915 -10.25824 -10.25796
 Alpha  occ. eigenvalues --  -10.25137 -10.24886 -10.24466 -10.24448 -10.24226
 Alpha  occ. eigenvalues --  -10.24182 -10.23985 -10.23778 -10.23652 -10.23543
 Alpha  occ. eigenvalues --  -10.23430 -10.23277 -10.23180 -10.23055 -10.22984
 Alpha  occ. eigenvalues --  -10.22921 -10.22875 -10.22850 -10.22815 -10.22777
 Alpha  occ. eigenvalues --  -10.22765 -10.22754 -10.22412 -10.22255 -10.22086
 Alpha  occ. eigenvalues --  -10.21766 -10.21764 -10.21731 -10.21681 -10.21329
 Alpha  occ. eigenvalues --  -10.21118  -3.13946  -1.86772  -1.86338  -1.86175
 Alpha  occ. eigenvalues --   -1.10908  -1.10660  -1.06106  -1.04786  -1.01984
 Alpha  occ. eigenvalues --   -0.99962  -0.98355  -0.97734  -0.96828  -0.96348
 Alpha  occ. eigenvalues --   -0.85211  -0.84886  -0.84648  -0.84401  -0.82984
 Alpha  occ. eigenvalues --   -0.82969  -0.82256  -0.82160  -0.81703  -0.81217
 Alpha  occ. eigenvalues --   -0.80780  -0.79726  -0.78555  -0.77836  -0.77730
 Alpha  occ. eigenvalues --   -0.76823  -0.75900  -0.75516  -0.75294  -0.74681
 Alpha  occ. eigenvalues --   -0.74455  -0.72657  -0.72274  -0.71567  -0.70603
 Alpha  occ. eigenvalues --   -0.70159  -0.69480  -0.69312  -0.68626  -0.68427
 Alpha  occ. eigenvalues --   -0.67755  -0.66998  -0.66117  -0.64822  -0.64337
 Alpha  occ. eigenvalues --   -0.62874  -0.62191  -0.61473  -0.60969  -0.60046
 Alpha  occ. eigenvalues --   -0.59777  -0.59604  -0.59117  -0.58659  -0.58277
 Alpha  occ. eigenvalues --   -0.57512  -0.57315  -0.56341  -0.55428  -0.54146
 Alpha  occ. eigenvalues --   -0.54070  -0.54000  -0.53895  -0.52740  -0.51932
 Alpha  occ. eigenvalues --   -0.51253  -0.50884  -0.50544  -0.50249  -0.50130
 Alpha  occ. eigenvalues --   -0.49545  -0.49424  -0.49365  -0.49004  -0.48589
 Alpha  occ. eigenvalues --   -0.48371  -0.48158  -0.47790  -0.47664  -0.47383
 Alpha  occ. eigenvalues --   -0.47268  -0.46938  -0.46912  -0.46620  -0.46614
 Alpha  occ. eigenvalues --   -0.46294  -0.45935  -0.45812  -0.45516  -0.45411
 Alpha  occ. eigenvalues --   -0.45223  -0.44824  -0.44503  -0.44344  -0.44161
 Alpha  occ. eigenvalues --   -0.44068  -0.43808  -0.43618  -0.43479  -0.43191
 Alpha  occ. eigenvalues --   -0.43144  -0.43033  -0.42975  -0.42795  -0.42688
 Alpha  occ. eigenvalues --   -0.42131  -0.42056  -0.41702  -0.41471  -0.41425
 Alpha  occ. eigenvalues --   -0.41069  -0.40966  -0.40837  -0.40674  -0.40305
 Alpha  occ. eigenvalues --   -0.40266  -0.39988  -0.39874  -0.39731  -0.39507
 Alpha  occ. eigenvalues --   -0.39300  -0.39171  -0.39083  -0.38944  -0.38717
 Alpha  occ. eigenvalues --   -0.38385  -0.38350  -0.38277  -0.38133  -0.37905
 Alpha  occ. eigenvalues --   -0.37662  -0.37522  -0.37390  -0.37204  -0.37137
 Alpha  occ. eigenvalues --   -0.36786  -0.36524  -0.36436  -0.36324  -0.35730
 Alpha  occ. eigenvalues --   -0.35633  -0.35576  -0.35357  -0.35220  -0.35125
 Alpha  occ. eigenvalues --   -0.34752  -0.34573  -0.34462  -0.34431  -0.33761
 Alpha  occ. eigenvalues --   -0.33559  -0.33073  -0.33034  -0.32524  -0.31893
 Alpha  occ. eigenvalues --   -0.31867  -0.31645  -0.31187  -0.31047  -0.30977
 Alpha  occ. eigenvalues --   -0.30559  -0.30505  -0.29657  -0.29580  -0.29089
 Alpha  occ. eigenvalues --   -0.28999  -0.28662  -0.27510  -0.26863  -0.26047
 Alpha  occ. eigenvalues --   -0.25807  -0.25645  -0.25489  -0.24462  -0.21013
 Alpha  occ. eigenvalues --   -0.18614
 Alpha virt. eigenvalues --   -0.11127  -0.05471  -0.03567  -0.02029  -0.01105
 Alpha virt. eigenvalues --    0.00749   0.00975   0.01215   0.01625   0.02769
 Alpha virt. eigenvalues --    0.03756   0.04434   0.04928   0.05096   0.05469

 Mulliken charges:
               1
     1  Mg   1.000973
     2  C    0.041925
     3  C   -0.053236
     4  C   -0.041555
     5  C   -0.090888
     6  N   -0.343885
     7  C    0.027019
     8  C   -0.101775
     9  C   -0.111450
    10  C    0.060932
    11  C    0.008316
    12  C    0.036720
    13  C   -0.064786
    14  C    0.252606
    15  O   -0.285822
    16  O   -0.362675
    17  N   -0.479565
    18  C    0.187402
    19  C   -0.175504
    20  C   -0.082255
    21  C    0.139630
    22  C    0.044403
    23  C    0.059796
    24  O   -0.221566
    25  C   -0.024227
    26  N   -0.431439
    27  C    0.049144
    28  C   -0.102421
    29  C   -0.108729
    30  C    0.075909
    31  C    0.018870
    32  C   -0.018717
    33  C   -0.068795
    34  N   -0.559301
    35  C    0.167456
    36  C   -0.171360
    37  C   -0.046035
    38  C    0.177075
    39  C    0.073575
    40  C    0.147160
    41  O   -0.207164
    42  C   -0.170618
    43  C    0.277092
    44  O   -0.287046
    45  O   -0.346595
    46  C    0.111770
    47  C    0.251934
    48  C   -0.106006
    49  C   -0.234196
    50  C    0.040494
    51  C   -0.045655
    52  C   -0.028967
    53  C   -0.050443
    54  C   -0.225788
    55  C    0.003260
    56  C   -0.008817
    57  C   -0.039464
    58  C    0.008986
    59  C   -0.224487
    60  C    0.010283
    61  C   -0.043664
    62  C   -0.028166
    63  C   -0.026605
    64  C   -0.229483
    65  C   -0.017897
    66  C   -0.035868
    67  H    0.006024
    68  H    0.026119
    69  H   -0.000026
    70  H    0.049838
    71  H    0.046197
    72  H    0.037929
    73  H    0.043061
    74  H    0.032903
    75  H    0.034763
    76  H    0.088362
    77  H    0.063914
    78  H    0.066028
    79  H    0.026697
    80  H    0.060174
    81  H    0.043757
    82  H    0.080831
    83  H    0.042779
    84  H    0.054428
    85  H    0.050156
    86  H    0.052993
    87  H    0.052673
    88  H    0.052345
    89  H    0.031581
    90  H    0.046092
    91  H    0.031441
    92  H    0.052310
    93  H    0.050409
    94  H    0.047324
    95  H    0.067517
    96  H    0.057634
    97  H    0.049819
    98  H    0.071400
    99  H    0.057440
   100  H    0.072415
   101  H    0.076372
   102  H    0.072511
   103  H    0.036514
   104  H    0.026932
   105  H    0.065569
   106  H    0.046344
   107  H    0.033222
   108  H    0.023787
   109  H    0.019990
   110  H    0.033009
   111  H    0.026204
   112  H    0.032682
   113  H    0.035524
   114  H    0.033859
   115  H    0.030127
   116  H    0.032638
   117  H    0.047039
   118  H    0.020716
   119  H    0.028618
   120  H    0.036603
   121  H    0.027239
   122  H    0.035839
   123  H    0.040534
   124  H    0.036153
   125  H    0.032601
   126  H    0.029090
   127  H    0.015240
   128  H    0.020107
   129  H    0.032297
   130  H    0.037417
   131  H    0.032412
   132  H    0.029295
   133  H    0.029821
   134  H    0.030405
   135  H    0.031192
   136  H    0.044146
   137  H    0.028383
   138  H    0.023288
   139  H    0.040952
   140  H    0.028189
 Sum of Mulliken charges =  -0.00000

 Dipole moment (field-independent basis, Debye):
    X=             -1.7744    Y=              2.5807    Z=             -3.8304  Tot=              4.9478
 Quadrupole moment (field-independent basis, Debye-Ang):
   XX=           -355.0504   YY=           -412.9091   ZZ=           -408.1844
   XY=             -3.6550   XZ=             -4.5620   YZ=             -4.0427

 Normal termination of Gaussian 16 at Fri Apr 29 09:31:24 2022.
