 Gaussian 16, Revision A.03,
 Gaussian 16:  ES64L-G16RevA.03 25-Dec-2016

 --------------------------------
 #p wB97XD/Def2SVP td=(nstates=5)
 --------------------------------

 ---------------------------------------------------
 step_251_chromophore_1 TDDFT with wB97XD functional
 ---------------------------------------------------
 Symbolic Z-matrix:
 Charge =  0 Multiplicity = 1

                         Standard orientation:
 ---------------------------------------------------------------------
 Center     Atomic      Atomic             Coordinates (Angstroms)
 Number     Number       Type             X           Y           Z
 ---------------------------------------------------------------------
      1         12           0        6.272544    0.356541   -0.042368
      2          6           0        3.718230   -2.126146   -0.522250
      3          6           0        3.811698    2.742452   -0.949316
      4          6           0        8.631400    2.916947    0.234097
      5          6           0        8.596883   -1.999882    0.410428
      6          7           0        4.005121    0.225379   -0.880211
      7          6           0        3.208585   -0.864640   -0.853864
      8          6           0        1.780137   -0.496850   -1.394652
      9          6           0        1.976708    1.030442   -1.703494
     10          6           0        3.334845    1.409013   -1.069391
     11          6           0        1.888747    1.344789   -3.237775
     12          6           0        0.663142   -0.757928   -0.384490
     13          6           0       -0.570294   -1.409693   -0.917819
     14          6           0       -1.688722   -1.789627    0.063337
     15          8           0       -1.661277   -1.665570    1.318237
     16          8           0       -2.830637   -2.199191   -0.634644
     17          7           0        6.216456    2.495934   -0.105627
     18          6           0        5.117851    3.250183   -0.504137
     19          6           0        5.478813    4.651287   -0.416932
     20          6           0        6.793236    4.750263    0.008350
     21          6           0        7.310303    3.340399   -0.009323
     22          6           0        4.608191    5.788525   -0.868391
     23          6           0        7.716480    6.012354    0.257665
     24          8           0        8.864568    6.024105    0.628972
     25          6           0        7.091030    7.388957    0.194265
     26          7           0        8.287508    0.477047    0.117209
     27          6           0        9.093449    1.580725    0.220874
     28          6           0       10.595291    1.213279    0.184753
     29          6           0       10.577090   -0.344613    0.491368
     30          6           0        9.033917   -0.637917    0.360039
     31          6           0       11.293926    1.628110   -1.149557
     32          6           0       11.149533   -0.736400    1.887591
     33          6           0       10.322552   -0.289866    3.091135
     34          7           0        6.257761   -1.617296   -0.068561
     35          6           0        7.315567   -2.526767    0.211089
     36          6           0        6.841134   -3.906519    0.130979
     37          6           0        5.458640   -3.780427   -0.094660
     38          6           0        5.134956   -2.401586   -0.197367
     39          6           0        7.647811   -5.105725    0.323827
     40          6           0        4.258946   -4.590827   -0.278194
     41          8           0        4.120303   -5.800089   -0.201082
     42          6           0        3.070110   -3.553808   -0.657419
     43          6           0        2.035108   -3.956416    0.395848
     44          8           0        2.054936   -3.740646    1.621073
     45          8           0        1.084672   -4.663048   -0.190783
     46          6           0       -0.204594   -4.943742    0.562163
     47          6           0       -3.901938   -2.695348    0.179491
     48          6           0       -5.103892   -1.825724   -0.143411
     49          6           0       -6.382739   -2.263571   -0.342306
     50          6           0       -6.939612   -3.635197   -0.368319
     51          6           0       -7.393772   -1.179825   -0.722540
     52          6           0       -8.358532   -0.737932    0.407603
     53          6           0       -9.345519    0.337426   -0.041460
     54          6           0       -9.476477    1.578593    0.882381
     55          6           0       -8.163403    2.372535    0.823480
     56          6           0       -9.985379    1.282210    2.356978
     57          6           0      -11.306352    2.017871    2.822375
     58          6           0      -12.508143    1.103762    2.474542
     59          6           0      -13.803885    1.889865    2.205911
     60          6           0      -14.837301    1.652055    3.290222
     61          6           0      -14.524279    1.549609    0.876604
     62          6           0      -13.762131    2.072792   -0.302605
     63          6           0      -13.328577    0.923763   -1.262558
     64          6           0      -14.216890    0.861934   -2.501194
     65          6           0      -15.070080   -0.414658   -2.554063
     66          6           0      -13.406764    0.918587   -3.794833
     67          1           0        3.027181    3.472576   -1.157398
     68          1           0        9.438648    3.646977    0.332148
     69          1           0        9.391139   -2.712840    0.640015
     70          1           0        1.625193   -1.184807   -2.225120
     71          1           0        1.237744    1.644211   -1.186656
     72          1           0        1.157569    2.098571   -3.529816
     73          1           0        1.839904    0.458617   -3.870841
     74          1           0        2.747456    1.856634   -3.672791
     75          1           0        0.246582    0.243537   -0.275132
     76          1           0        1.026648   -1.144104    0.568427
     77          1           0       -0.488197   -2.286739   -1.561853
     78          1           0       -0.997404   -0.634718   -1.554382
     79          1           0        3.599882    5.448184   -1.102744
     80          1           0        4.973655    6.335828   -1.738691
     81          1           0        4.435065    6.571441   -0.129852
     82          1           0        6.288908    7.514648    0.921440
     83          1           0        6.776329    7.434247   -0.848382
     84          1           0        7.950712    8.054325    0.274057
     85          1           0       11.036323    1.865105    0.939706
     86          1           0       10.901919   -1.016223   -0.303625
     87          1           0       12.009660    2.439023   -1.014734
     88          1           0       10.666433    1.847548   -2.012675
     89          1           0       11.800641    0.699212   -1.411885
     90          1           0       12.219066   -0.526319    1.871392
     91          1           0       11.138057   -1.824611    1.946549
     92          1           0        9.471755    0.354256    2.871977
     93          1           0       11.005276    0.288228    3.713372
     94          1           0        9.799091   -1.081203    3.626441
     95          1           0        7.108471   -6.046888    0.215042
     96          1           0        8.049018   -5.014790    1.333138
     97          1           0        8.483579   -5.053789   -0.375393
     98          1           0        2.593892   -3.798839   -1.606758
     99          1           0       -0.930291   -5.235609   -0.197287
    100          1           0       -0.621169   -4.055415    1.035999
    101          1           0       -0.093258   -5.685876    1.353550
    102          1           0       -3.803665   -2.624379    1.262783
    103          1           0       -4.100393   -3.752642    0.006054
    104          1           0       -4.981624   -0.831452   -0.573272
    105          1           0       -7.005249   -3.927409   -1.416923
    106          1           0       -7.872431   -3.525297    0.184477
    107          1           0       -6.345381   -4.422240    0.096453
    108          1           0       -7.984622   -1.524042   -1.572044
    109          1           0       -6.954160   -0.284742   -1.161513
    110          1           0       -7.809605   -0.381893    1.279303
    111          1           0       -8.811461   -1.689854    0.683425
    112          1           0      -10.305751   -0.177188   -0.079429
    113          1           0       -9.143917    0.778988   -1.016618
    114          1           0      -10.223429    2.082499    0.268886
    115          1           0       -7.556842    2.017144   -0.010014
    116          1           0       -7.556578    2.146996    1.700548
    117          1           0       -8.460507    3.421454    0.819751
    118          1           0       -9.189661    1.451779    3.083107
    119          1           0      -10.052455    0.195305    2.305315
    120          1           0      -11.487727    3.040146    2.490650
    121          1           0      -11.217009    2.052720    3.908039
    122          1           0      -12.557834    0.551622    3.412440
    123          1           0      -12.237710    0.463593    1.634353
    124          1           0      -13.702174    2.969515    2.096183
    125          1           0      -14.488728    1.364956    4.282045
    126          1           0      -15.682278    1.044771    2.967224
    127          1           0      -15.333202    2.617836    3.384200
    128          1           0      -15.461862    2.104414    0.828585
    129          1           0      -14.760360    0.487232    0.814660
    130          1           0      -12.820148    2.526928    0.003383
    131          1           0      -14.428270    2.728675   -0.862526
    132          1           0      -13.340541    0.006826   -0.675238
    133          1           0      -12.299590    1.080807   -1.584385
    134          1           0      -14.904429    1.700299   -2.614533
    135          1           0      -14.437640   -1.220966   -2.181891
    136          1           0      -15.572625   -0.566050   -3.508842
    137          1           0      -15.797317   -0.278548   -1.753891
    138          1           0      -12.748117    0.077135   -3.581781
    139          1           0      -12.901795    1.869057   -3.969744
    140          1           0      -13.927558    0.642647   -4.712333
 ---------------------------------------------------------------------

 SCF Done:  E(RwB97XD) =  -3007.84283433     A.U. after   17 cycles

 Excitation energies and oscillator strengths:

 Excited State   1:      Singlet-A      1.5897 eV  779.93 nm  f=0.3613  <S**2>=0.000
     245 -> 248       -0.19020
     246 -> 247        0.68303
     245 <- 248       -0.12276
 This state for optimization and/or second-order correction.
 Total Energy, E(TD-HF/TD-DFT) =  -3007.78441481
 Copying the excited state density for this state as the 1-particle RhoCI density.

 Excited State   2:      Singlet-A      2.1586 eV  574.38 nm  f=0.0947  <S**2>=0.000
     245 -> 247        0.62428
     246 -> 248        0.32232

 Excited State   3:      Singlet-A      3.4483 eV  359.55 nm  f=0.5808  <S**2>=0.000
     242 -> 247       -0.27270
     245 -> 247       -0.26758
     246 -> 248        0.57016
     245 <- 247        0.11037

 Excited State   4:      Singlet-A      3.4770 eV  356.58 nm  f=0.0168  <S**2>=0.000
     242 -> 247       -0.11436
     243 -> 247        0.66604

 Excited State   5:      Singlet-A      3.6485 eV  339.83 nm  f=0.0182  <S**2>=0.000
     239 -> 247       -0.10466
     240 -> 247        0.18962
     240 -> 249        0.13017
     241 -> 247        0.50895
     241 -> 249        0.29188
     241 -> 250       -0.17771

 The electronic state is 1-A.
 Alpha  occ. eigenvalues --  -46.94588 -19.31131 -19.30092 -19.25635 -19.24499
 Alpha  occ. eigenvalues --  -19.24364 -19.22813 -14.47038 -14.46123 -14.44695
 Alpha  occ. eigenvalues --  -14.44262 -10.44588 -10.42196 -10.39535 -10.39384
 Alpha  occ. eigenvalues --  -10.35816 -10.35763 -10.35464 -10.35348 -10.35268
 Alpha  occ. eigenvalues --  -10.35105 -10.35097 -10.34663 -10.33996 -10.33907
 Alpha  occ. eigenvalues --  -10.32912 -10.32883 -10.32744 -10.32607 -10.32468
 Alpha  occ. eigenvalues --  -10.32429 -10.32377 -10.32358 -10.32247 -10.32212
 Alpha  occ. eigenvalues --  -10.31615 -10.31305 -10.30820 -10.30808 -10.30722
 Alpha  occ. eigenvalues --  -10.30646 -10.30357 -10.30175 -10.30108 -10.29892
 Alpha  occ. eigenvalues --  -10.29836 -10.29557 -10.29540 -10.29435 -10.29425
 Alpha  occ. eigenvalues --  -10.29364 -10.29232 -10.29182 -10.29169 -10.29154
 Alpha  occ. eigenvalues --  -10.29133 -10.29029 -10.28769 -10.28632 -10.28438
 Alpha  occ. eigenvalues --  -10.28194 -10.28123 -10.28113 -10.28091 -10.27760
 Alpha  occ. eigenvalues --  -10.27546  -3.20717  -1.94295  -1.93858  -1.93690
 Alpha  occ. eigenvalues --   -1.18289  -1.18056  -1.13643  -1.12231  -1.09340
 Alpha  occ. eigenvalues --   -1.07337  -1.05748  -1.05119  -1.04227  -1.03714
 Alpha  occ. eigenvalues --   -0.92821  -0.92550  -0.92298  -0.92056  -0.90632
 Alpha  occ. eigenvalues --   -0.90568  -0.89899  -0.89814  -0.89295  -0.88871
 Alpha  occ. eigenvalues --   -0.88421  -0.87371  -0.86216  -0.85446  -0.85362
 Alpha  occ. eigenvalues --   -0.84465  -0.83599  -0.83245  -0.82949  -0.82345
 Alpha  occ. eigenvalues --   -0.82096  -0.80287  -0.79967  -0.79171  -0.78225
 Alpha  occ. eigenvalues --   -0.77826  -0.77066  -0.77015  -0.76295  -0.76088
 Alpha  occ. eigenvalues --   -0.75361  -0.74535  -0.73669  -0.72430  -0.71888
 Alpha  occ. eigenvalues --   -0.70425  -0.69802  -0.69126  -0.68523  -0.67573
 Alpha  occ. eigenvalues --   -0.67428  -0.67043  -0.66580  -0.66080  -0.65736
 Alpha  occ. eigenvalues --   -0.65196  -0.64978  -0.63727  -0.63039  -0.61649
 Alpha  occ. eigenvalues --   -0.61563  -0.61516  -0.61265  -0.60085  -0.59333
 Alpha  occ. eigenvalues --   -0.58685  -0.58389  -0.58086  -0.57613  -0.57584
 Alpha  occ. eigenvalues --   -0.56910  -0.56856  -0.56795  -0.56416  -0.56031
 Alpha  occ. eigenvalues --   -0.55808  -0.55546  -0.55194  -0.55111  -0.54735
 Alpha  occ. eigenvalues --   -0.54644  -0.54334  -0.54288  -0.54053  -0.54019
 Alpha  occ. eigenvalues --   -0.53574  -0.53300  -0.53153  -0.52853  -0.52771
 Alpha  occ. eigenvalues --   -0.52567  -0.52132  -0.51841  -0.51723  -0.51439
 Alpha  occ. eigenvalues --   -0.51406  -0.51161  -0.50992  -0.50795  -0.50525
 Alpha  occ. eigenvalues --   -0.50465  -0.50345  -0.50267  -0.50097  -0.50019
 Alpha  occ. eigenvalues --   -0.49345  -0.49312  -0.48945  -0.48682  -0.48568
 Alpha  occ. eigenvalues --   -0.48301  -0.48175  -0.48048  -0.47847  -0.47496
 Alpha  occ. eigenvalues --   -0.47408  -0.47209  -0.47098  -0.46901  -0.46714
 Alpha  occ. eigenvalues --   -0.46452  -0.46423  -0.46185  -0.46024  -0.45796
 Alpha  occ. eigenvalues --   -0.45561  -0.45540  -0.45475  -0.45289  -0.44955
 Alpha  occ. eigenvalues --   -0.44787  -0.44667  -0.44565  -0.44467  -0.44290
 Alpha  occ. eigenvalues --   -0.43819  -0.43652  -0.43543  -0.43384  -0.42806
 Alpha  occ. eigenvalues --   -0.42687  -0.42634  -0.42457  -0.42217  -0.42105
 Alpha  occ. eigenvalues --   -0.41819  -0.41521  -0.41486  -0.41449  -0.40846
 Alpha  occ. eigenvalues --   -0.40516  -0.40129  -0.39951  -0.39580  -0.38953
 Alpha  occ. eigenvalues --   -0.38844  -0.38703  -0.38195  -0.38029  -0.37929
 Alpha  occ. eigenvalues --   -0.37562  -0.37454  -0.36699  -0.36524  -0.35914
 Alpha  occ. eigenvalues --   -0.35903  -0.35318  -0.34576  -0.33569  -0.32951
 Alpha  occ. eigenvalues --   -0.32766  -0.32472  -0.32115  -0.31180  -0.25994
 Alpha  occ. eigenvalues --   -0.22731
 Alpha virt. eigenvalues --   -0.07030  -0.00099   0.02737   0.04514   0.05740
 Alpha virt. eigenvalues --    0.06646   0.07662   0.07915   0.08404   0.09079
 Alpha virt. eigenvalues --    0.10363   0.11344   0.11534   0.11848   0.12224

 Mulliken charges:
               1
     1  Mg   0.989188
     2  C    0.030330
     3  C   -0.070888
     4  C   -0.057065
     5  C   -0.104803
     6  N   -0.311286
     7  C   -0.002485
     8  C   -0.075851
     9  C   -0.081890
    10  C    0.047893
    11  C    0.015670
    12  C    0.049248
    13  C   -0.046815
    14  C    0.238640
    15  O   -0.281563
    16  O   -0.361875
    17  N   -0.450196
    18  C    0.180758
    19  C   -0.160553
    20  C   -0.081695
    21  C    0.134224
    22  C    0.054915
    23  C    0.056970
    24  O   -0.215965
    25  C   -0.009270
    26  N   -0.398532
    27  C    0.036552
    28  C   -0.083157
    29  C   -0.076562
    30  C    0.060878
    31  C    0.027336
    32  C   -0.006039
    33  C   -0.051585
    34  N   -0.527307
    35  C    0.158747
    36  C   -0.163617
    37  C   -0.041560
    38  C    0.162310
    39  C    0.081420
    40  C    0.129314
    41  O   -0.198597
    42  C   -0.131289
    43  C    0.248146
    44  O   -0.280025
    45  O   -0.344108
    46  C    0.129932
    47  C    0.264827
    48  C   -0.113378
    49  C   -0.221147
    50  C    0.054242
    51  C   -0.022569
    52  C   -0.013371
    53  C   -0.027302
    54  C   -0.196988
    55  C    0.015739
    56  C    0.009165
    57  C   -0.023163
    58  C    0.026636
    59  C   -0.190610
    60  C    0.021266
    61  C   -0.030135
    62  C   -0.003415
    63  C   -0.010504
    64  C   -0.198997
    65  C   -0.003484
    66  C   -0.021247
    67  H   -0.001270
    68  H    0.022965
    69  H   -0.005987
    70  H    0.037593
    71  H    0.035756
    72  H    0.033173
    73  H    0.038014
    74  H    0.026547
    75  H    0.023788
    76  H    0.081816
    77  H    0.057534
    78  H    0.059389
    79  H    0.022440
    80  H    0.055676
    81  H    0.038214
    82  H    0.076736
    83  H    0.034870
    84  H    0.053141
    85  H    0.040932
    86  H    0.042899
    87  H    0.048275
    88  H    0.047102
    89  H    0.024223
    90  H    0.039428
    91  H    0.022310
    92  H    0.040855
    93  H    0.045474
    94  H    0.042710
    95  H    0.065302
    96  H    0.052077
    97  H    0.044284
    98  H    0.065812
    99  H    0.054946
   100  H    0.063030
   101  H    0.074393
   102  H    0.067792
   103  H    0.031138
   104  H    0.023175
   105  H    0.060353
   106  H    0.039080
   107  H    0.028031
   108  H    0.014987
   109  H    0.009367
   110  H    0.021968
   111  H    0.015366
   112  H    0.020130
   113  H    0.026226
   114  H    0.016980
   115  H    0.022158
   116  H    0.025667
   117  H    0.042254
   118  H    0.013572
   119  H    0.016116
   120  H    0.028292
   121  H    0.019995
   122  H    0.027232
   123  H    0.022423
   124  H    0.022890
   125  H    0.027658
   126  H    0.022600
   127  H    0.008624
   128  H    0.011658
   129  H    0.021061
   130  H    0.022790
   131  H    0.023782
   132  H    0.017001
   133  H    0.018095
   134  H    0.018656
   135  H    0.023596
   136  H    0.039401
   137  H    0.020310
   138  H    0.013210
   139  H    0.035820
   140  H    0.022633
 Sum of Mulliken charges =  -0.00000

 Dipole moment (field-independent basis, Debye):
    X=             -1.8469    Y=              2.8129    Z=             -3.8716  Tot=              5.1296
 Quadrupole moment (field-independent basis, Debye-Ang):
   XX=           -355.9616   YY=           -410.7016   ZZ=           -407.8828
   XY=             -1.7441   XZ=             -4.6740   YZ=             -3.9331

 Normal termination of Gaussian 16 at Fri Apr 29 09:58:46 2022.
