 Gaussian 16, Revision A.03,
 Gaussian 16:  ES64L-G16RevA.03 25-Dec-2016

 --------------------
 #p ZINDO=(nstates=5)
 --------------------

 ----------------------------
 step_251_chromophore_1 ZINDO
 ----------------------------
 Symbolic Z-matrix:
 Charge =  0 Multiplicity = 1

                         Standard orientation:
 ---------------------------------------------------------------------
 Center     Atomic      Atomic             Coordinates (Angstroms)
 Number     Number       Type             X           Y           Z
 ---------------------------------------------------------------------
      1         12           0        6.272544    0.356541   -0.042368
      2          6           0        3.718230   -2.126146   -0.522250
      3          6           0        3.811698    2.742452   -0.949316
      4          6           0        8.631400    2.916947    0.234097
      5          6           0        8.596883   -1.999882    0.410428
      6          7           0        4.005121    0.225379   -0.880211
      7          6           0        3.208585   -0.864640   -0.853864
      8          6           0        1.780137   -0.496850   -1.394652
      9          6           0        1.976708    1.030442   -1.703494
     10          6           0        3.334845    1.409013   -1.069391
     11          6           0        1.888747    1.344789   -3.237775
     12          6           0        0.663142   -0.757928   -0.384490
     13          6           0       -0.570294   -1.409693   -0.917819
     14          6           0       -1.688722   -1.789627    0.063337
     15          8           0       -1.661277   -1.665570    1.318237
     16          8           0       -2.830637   -2.199191   -0.634644
     17          7           0        6.216456    2.495934   -0.105627
     18          6           0        5.117851    3.250183   -0.504137
     19          6           0        5.478813    4.651287   -0.416932
     20          6           0        6.793236    4.750263    0.008350
     21          6           0        7.310303    3.340399   -0.009323
     22          6           0        4.608191    5.788525   -0.868391
     23          6           0        7.716480    6.012354    0.257665
     24          8           0        8.864568    6.024105    0.628972
     25          6           0        7.091030    7.388957    0.194265
     26          7           0        8.287508    0.477047    0.117209
     27          6           0        9.093449    1.580725    0.220874
     28          6           0       10.595291    1.213279    0.184753
     29          6           0       10.577090   -0.344613    0.491368
     30          6           0        9.033917   -0.637917    0.360039
     31          6           0       11.293926    1.628110   -1.149557
     32          6           0       11.149533   -0.736400    1.887591
     33          6           0       10.322552   -0.289866    3.091135
     34          7           0        6.257761   -1.617296   -0.068561
     35          6           0        7.315567   -2.526767    0.211089
     36          6           0        6.841134   -3.906519    0.130979
     37          6           0        5.458640   -3.780427   -0.094660
     38          6           0        5.134956   -2.401586   -0.197367
     39          6           0        7.647811   -5.105725    0.323827
     40          6           0        4.258946   -4.590827   -0.278194
     41          8           0        4.120303   -5.800089   -0.201082
     42          6           0        3.070110   -3.553808   -0.657419
     43          6           0        2.035108   -3.956416    0.395848
     44          8           0        2.054936   -3.740646    1.621073
     45          8           0        1.084672   -4.663048   -0.190783
     46          6           0       -0.204594   -4.943742    0.562163
     47          6           0       -3.901938   -2.695348    0.179491
     48          6           0       -5.103892   -1.825724   -0.143411
     49          6           0       -6.382739   -2.263571   -0.342306
     50          6           0       -6.939612   -3.635197   -0.368319
     51          6           0       -7.393772   -1.179825   -0.722540
     52          6           0       -8.358532   -0.737932    0.407603
     53          6           0       -9.345519    0.337426   -0.041460
     54          6           0       -9.476477    1.578593    0.882381
     55          6           0       -8.163403    2.372535    0.823480
     56          6           0       -9.985379    1.282210    2.356978
     57          6           0      -11.306352    2.017871    2.822375
     58          6           0      -12.508143    1.103762    2.474542
     59          6           0      -13.803885    1.889865    2.205911
     60          6           0      -14.837301    1.652055    3.290222
     61          6           0      -14.524279    1.549609    0.876604
     62          6           0      -13.762131    2.072792   -0.302605
     63          6           0      -13.328577    0.923763   -1.262558
     64          6           0      -14.216890    0.861934   -2.501194
     65          6           0      -15.070080   -0.414658   -2.554063
     66          6           0      -13.406764    0.918587   -3.794833
     67          1           0        3.027181    3.472576   -1.157398
     68          1           0        9.438648    3.646977    0.332148
     69          1           0        9.391139   -2.712840    0.640015
     70          1           0        1.625193   -1.184807   -2.225120
     71          1           0        1.237744    1.644211   -1.186656
     72          1           0        1.157569    2.098571   -3.529816
     73          1           0        1.839904    0.458617   -3.870841
     74          1           0        2.747456    1.856634   -3.672791
     75          1           0        0.246582    0.243537   -0.275132
     76          1           0        1.026648   -1.144104    0.568427
     77          1           0       -0.488197   -2.286739   -1.561853
     78          1           0       -0.997404   -0.634718   -1.554382
     79          1           0        3.599882    5.448184   -1.102744
     80          1           0        4.973655    6.335828   -1.738691
     81          1           0        4.435065    6.571441   -0.129852
     82          1           0        6.288908    7.514648    0.921440
     83          1           0        6.776329    7.434247   -0.848382
     84          1           0        7.950712    8.054325    0.274057
     85          1           0       11.036323    1.865105    0.939706
     86          1           0       10.901919   -1.016223   -0.303625
     87          1           0       12.009660    2.439023   -1.014734
     88          1           0       10.666433    1.847548   -2.012675
     89          1           0       11.800641    0.699212   -1.411885
     90          1           0       12.219066   -0.526319    1.871392
     91          1           0       11.138057   -1.824611    1.946549
     92          1           0        9.471755    0.354256    2.871977
     93          1           0       11.005276    0.288228    3.713372
     94          1           0        9.799091   -1.081203    3.626441
     95          1           0        7.108471   -6.046888    0.215042
     96          1           0        8.049018   -5.014790    1.333138
     97          1           0        8.483579   -5.053789   -0.375393
     98          1           0        2.593892   -3.798839   -1.606758
     99          1           0       -0.930291   -5.235609   -0.197287
    100          1           0       -0.621169   -4.055415    1.035999
    101          1           0       -0.093258   -5.685876    1.353550
    102          1           0       -3.803665   -2.624379    1.262783
    103          1           0       -4.100393   -3.752642    0.006054
    104          1           0       -4.981624   -0.831452   -0.573272
    105          1           0       -7.005249   -3.927409   -1.416923
    106          1           0       -7.872431   -3.525297    0.184477
    107          1           0       -6.345381   -4.422240    0.096453
    108          1           0       -7.984622   -1.524042   -1.572044
    109          1           0       -6.954160   -0.284742   -1.161513
    110          1           0       -7.809605   -0.381893    1.279303
    111          1           0       -8.811461   -1.689854    0.683425
    112          1           0      -10.305751   -0.177188   -0.079429
    113          1           0       -9.143917    0.778988   -1.016618
    114          1           0      -10.223429    2.082499    0.268886
    115          1           0       -7.556842    2.017144   -0.010014
    116          1           0       -7.556578    2.146996    1.700548
    117          1           0       -8.460507    3.421454    0.819751
    118          1           0       -9.189661    1.451779    3.083107
    119          1           0      -10.052455    0.195305    2.305315
    120          1           0      -11.487727    3.040146    2.490650
    121          1           0      -11.217009    2.052720    3.908039
    122          1           0      -12.557834    0.551622    3.412440
    123          1           0      -12.237710    0.463593    1.634353
    124          1           0      -13.702174    2.969515    2.096183
    125          1           0      -14.488728    1.364956    4.282045
    126          1           0      -15.682278    1.044771    2.967224
    127          1           0      -15.333202    2.617836    3.384200
    128          1           0      -15.461862    2.104414    0.828585
    129          1           0      -14.760360    0.487232    0.814660
    130          1           0      -12.820148    2.526928    0.003383
    131          1           0      -14.428270    2.728675   -0.862526
    132          1           0      -13.340541    0.006826   -0.675238
    133          1           0      -12.299590    1.080807   -1.584385
    134          1           0      -14.904429    1.700299   -2.614533
    135          1           0      -14.437640   -1.220966   -2.181891
    136          1           0      -15.572625   -0.566050   -3.508842
    137          1           0      -15.797317   -0.278548   -1.753891
    138          1           0      -12.748117    0.077135   -3.581781
    139          1           0      -12.901795    1.869057   -3.969744
    140          1           0      -13.927558    0.642647   -4.712333
 ---------------------------------------------------------------------

 SCF Done:  E(RZINDO/S) =  -473.996164242     A.U. after   20 cycles

 Excitation energies and oscillator strengths:

 Excited State   1:      Singlet-A      1.2069 eV 1027.27 nm  f=0.5840  <S**2>=0.000
     175 ->178         0.19674
     176 ->177         0.66136
 This state for optimization and/or second-order correction.
 Total Energy, E(CIS/TDA) =  -473.951810483
 Copying the excited state density for this state as the 1-particle RhoCI density.

 Excited State   2:      Singlet-A      1.9100 eV  649.12 nm  f=0.0167  <S**2>=0.000
     175 ->177         0.52017
     176 ->178        -0.45848

 Excited State   3:      Singlet-A      2.9567 eV  419.33 nm  f=0.3765  <S**2>=0.000
     168 ->177        -0.19391
     168 ->179        -0.23931
     168 ->181        -0.27460
     168 ->184         0.12788
     168 ->186        -0.16937
     171 ->177         0.14601
     175 ->177         0.24207
     176 ->178         0.28946
     176 ->179         0.13924

 Excited State   4:      Singlet-A      2.9902 eV  414.64 nm  f=0.8943  <S**2>=0.000
     168 ->177         0.16311
     168 ->179         0.18026
     168 ->181         0.22892
     168 ->184        -0.10190
     168 ->186         0.12398
     175 ->177         0.34960
     176 ->178         0.40785

 Excited State   5:      Singlet-A      3.0294 eV  409.27 nm  f=0.0080  <S**2>=0.000
     169 ->177        -0.16052
     169 ->179         0.20695
     169 ->181        -0.14890
     170 ->179        -0.13251
     170 ->181         0.12731
     176 ->179         0.52682

 The electronic state is 1-A.
 Alpha  occ. eigenvalues --   -1.81208  -1.79369  -1.77416  -1.72104  -1.71207
 Alpha  occ. eigenvalues --   -1.69300  -1.67434  -1.62375  -1.60401  -1.56713
 Alpha  occ. eigenvalues --   -1.56160  -1.52485  -1.49699  -1.45678  -1.45436
 Alpha  occ. eigenvalues --   -1.42723  -1.41053  -1.39728  -1.39307  -1.38148
 Alpha  occ. eigenvalues --   -1.34783  -1.33977  -1.32828  -1.30741  -1.29035
 Alpha  occ. eigenvalues --   -1.28400  -1.24077  -1.21763  -1.20387  -1.17750
 Alpha  occ. eigenvalues --   -1.17073  -1.15863  -1.14854  -1.14120  -1.12840
 Alpha  occ. eigenvalues --   -1.11583  -1.10757  -1.10396  -1.05377  -1.04350
 Alpha  occ. eigenvalues --   -1.03812  -1.01806  -0.98868  -0.98113  -0.97173
 Alpha  occ. eigenvalues --   -0.96942  -0.94243  -0.92794  -0.91986  -0.91231
 Alpha  occ. eigenvalues --   -0.90797  -0.89852  -0.89287  -0.88640  -0.85092
 Alpha  occ. eigenvalues --   -0.84365  -0.83920  -0.82951  -0.81447  -0.80270
 Alpha  occ. eigenvalues --   -0.78741  -0.78680  -0.77895  -0.76421  -0.76003
 Alpha  occ. eigenvalues --   -0.75091  -0.74794  -0.74431  -0.73591  -0.73338
 Alpha  occ. eigenvalues --   -0.72504  -0.72225  -0.71751  -0.71497  -0.71368
 Alpha  occ. eigenvalues --   -0.70633  -0.69566  -0.69381  -0.69024  -0.68688
 Alpha  occ. eigenvalues --   -0.68084  -0.67434  -0.67038  -0.66361  -0.64917
 Alpha  occ. eigenvalues --   -0.64679  -0.64262  -0.64147  -0.64033  -0.63573
 Alpha  occ. eigenvalues --   -0.63172  -0.62746  -0.62590  -0.62337  -0.61816
 Alpha  occ. eigenvalues --   -0.61376  -0.61114  -0.60822  -0.60512  -0.59453
 Alpha  occ. eigenvalues --   -0.59096  -0.58539  -0.58339  -0.58225  -0.57778
 Alpha  occ. eigenvalues --   -0.57542  -0.57425  -0.57092  -0.56657  -0.56527
 Alpha  occ. eigenvalues --   -0.56214  -0.55788  -0.55398  -0.54772  -0.54597
 Alpha  occ. eigenvalues --   -0.54400  -0.53441  -0.53232  -0.52961  -0.52773
 Alpha  occ. eigenvalues --   -0.52486  -0.52067  -0.51889  -0.51586  -0.51191
 Alpha  occ. eigenvalues --   -0.51001  -0.50588  -0.50458  -0.50243  -0.49849
 Alpha  occ. eigenvalues --   -0.49794  -0.49679  -0.49471  -0.49115  -0.48990
 Alpha  occ. eigenvalues --   -0.48936  -0.48652  -0.48325  -0.47982  -0.47782
 Alpha  occ. eigenvalues --   -0.47548  -0.47240  -0.47111  -0.46878  -0.46623
 Alpha  occ. eigenvalues --   -0.46293  -0.46101  -0.45565  -0.45475  -0.45274
 Alpha  occ. eigenvalues --   -0.44662  -0.44384  -0.44219  -0.43665  -0.43600
 Alpha  occ. eigenvalues --   -0.43437  -0.43033  -0.42681  -0.42404  -0.41907
 Alpha  occ. eigenvalues --   -0.41254  -0.41031  -0.40182  -0.39011  -0.38424
 Alpha  occ. eigenvalues --   -0.37394  -0.36993  -0.35351  -0.34956  -0.34448
 Alpha  occ. eigenvalues --   -0.33519  -0.32690  -0.32380  -0.31234  -0.26663
 Alpha  occ. eigenvalues --   -0.21395
 Alpha virt. eigenvalues --   -0.08352  -0.02202  -0.00185   0.01210   0.01340
 Alpha virt. eigenvalues --    0.02631   0.03056   0.03580   0.04554   0.04924
 Alpha virt. eigenvalues --    0.06173   0.06564   0.06804   0.07466   0.08007

 Mulliken charges:
               1
     1  Mg   0.430318
     2  C   -0.067972
     3  C   -0.095806
     4  C   -0.060935
     5  C   -0.058577
     6  N   -0.306041
     7  C    0.133676
     8  C    0.003946
     9  C    0.016734
    10  C    0.136829
    11  C   -0.058378
    12  C   -0.023827
    13  C    0.015922
    14  C    0.457758
    15  O   -0.520631
    16  O   -0.264831
    17  N   -0.322721
    18  C    0.119089
    19  C    0.020074
    20  C   -0.044620
    21  C    0.126979
    22  C   -0.045201
    23  C    0.322527
    24  O   -0.505542
    25  C   -0.036216
    26  N   -0.250464
    27  C    0.130419
    28  C    0.007491
    29  C   -0.002749
    30  C    0.105150
    31  C   -0.052325
    32  C   -0.022644
    33  C   -0.051493
    34  N   -0.327034
    35  C    0.073690
    36  C    0.050142
    37  C   -0.055716
    38  C    0.122788
    39  C   -0.029591
    40  C    0.335906
    41  O   -0.511699
    42  C    0.046721
    43  C    0.489759
    44  O   -0.542074
    45  O   -0.265469
    46  C    0.072407
    47  C    0.108198
    48  C   -0.109544
    49  C   -0.007329
    50  C   -0.038042
    51  C   -0.027623
    52  C   -0.029292
    53  C   -0.032447
    54  C   -0.022418
    55  C   -0.057138
    56  C   -0.038366
    57  C   -0.038223
    58  C   -0.033408
    59  C   -0.010234
    60  C   -0.063510
    61  C   -0.032630
    62  C   -0.042956
    63  C   -0.034248
    64  C   -0.007817
    65  C   -0.060218
    66  C   -0.064869
    67  H    0.028363
    68  H    0.046570
    69  H    0.023338
    70  H    0.033300
    71  H    0.028542
    72  H    0.021967
    73  H    0.023345
    74  H    0.016112
    75  H    0.022283
    76  H    0.053255
    77  H    0.040743
    78  H    0.036122
    79  H    0.016800
    80  H    0.030236
    81  H    0.025245
    82  H    0.049923
    83  H    0.030943
    84  H    0.041217
    85  H    0.034962
    86  H    0.039008
    87  H    0.027853
    88  H    0.029065
    89  H    0.014187
    90  H    0.023963
    91  H    0.010077
    92  H    0.022346
    93  H    0.019015
    94  H    0.026997
    95  H    0.039902
    96  H    0.033316
    97  H    0.027659
    98  H    0.056325
    99  H    0.028429
   100  H    0.050209
   101  H    0.055883
   102  H    0.059295
   103  H    0.037784
   104  H    0.040533
   105  H    0.036785
   106  H    0.031677
   107  H    0.018804
   108  H    0.011710
   109  H    0.015353
   110  H    0.023615
   111  H    0.018741
   112  H    0.007993
   113  H    0.020506
   114  H    0.013658
   115  H    0.023395
   116  H    0.018147
   117  H    0.022284
   118  H    0.016757
   119  H    0.021343
   120  H    0.031113
   121  H    0.012735
   122  H    0.024123
   123  H    0.026858
   124  H    0.025375
   125  H    0.021317
   126  H    0.019778
   127  H    0.003985
   128  H    0.009764
   129  H    0.023442
   130  H    0.021032
   131  H    0.023284
   132  H    0.022359
   133  H    0.013897
   134  H    0.016001
   135  H    0.022331
   136  H    0.028266
   137  H    0.007079
   138  H    0.014875
   139  H    0.018408
   140  H    0.014445
 Sum of Mulliken charges =  -0.00000

 Dipole moment (field-independent basis, Debye):
    X=             -2.4752    Y=              4.2143    Z=             -7.3720  Tot=              8.8450
 N-N= 4.229402217008D+03 E-N= 0.000000000000D+00  KE=-9.133307085834D+03
 Leave Link  601 at Fri Apr 29 10:11:39 2022, MaxMem=  6710886400 cpu:               0.8 elap:               0.0
 (Enter /sw/apps/gaussian-16.0/g16/l9999.exe)
 1\1\GINC-BP1-COMPUTE103\SP\RZINDO CIS\STO-3G\C55H74Mg1N4O6\OF15641\29-
 Apr-2022\0\\#p ZINDO=(nstates=5)\\step_251_chromophore_1 ZINDO\\0,1\Mg
 ,0,-2.044,17.491,26.738\C,0,-2.155,15.536,29.752\C,0,-2.484,20.324,28.
 824\C,0,-2.1,19.568,23.931\C,0,-2.029,14.735,24.85\N,0,-2.503,17.813,2
 9.093\C,0,-2.371,16.884,30.064\C,0,-2.663,17.53,31.466\C,0,-2.966,19.0
 11,31.04\C,0,-2.554,19.106,29.553\C,0,-4.458,19.415,31.307\C,0,-1.49,1
 7.422,32.44\C,0,-1.829,17.031,33.841\C,0,-0.687,16.808,34.843\O,0,0.54

 Normal termination of Gaussian 16 at Fri Apr 29 10:11:39 2022.
