 Gaussian 16, Revision A.03,
 Gaussian 16:  ES64L-G16RevA.03 25-Dec-2016

 ------------------------------
 #p blyp/Def2SVP td=(nstates=5)
 ------------------------------

 --------------------------------------------------
 step_951_chromophore_14 TDDFT with blyp functional
 --------------------------------------------------
 Symbolic Z-matrix:
 Charge =  0 Multiplicity = 1

                         Standard orientation:
 ---------------------------------------------------------------------
 Center     Atomic      Atomic             Coordinates (Angstroms)
 Number     Number       Type             X           Y           Z
 ---------------------------------------------------------------------
      1         12           0        5.085681    0.814025   -0.382591
      2          6           0        4.907968   -2.453730    0.392339
      3          6           0        3.964394    0.269340   -3.532640
      4          6           0        4.426419    4.160752   -0.561963
      5          6           0        5.993069    1.506464    3.093190
      6          7           0        4.351783   -0.865870   -1.453383
      7          6           0        4.382308   -2.185454   -0.928510
      8          6           0        3.843090   -3.224245   -1.947161
      9          6           0        3.902940   -2.374873   -3.244556
     10          6           0        4.036684   -0.876390   -2.772658
     11          6           0        4.941596   -2.740779   -4.350752
     12          6           0        2.453640   -3.840400   -1.461466
     13          6           0        1.389246   -3.047782   -0.656142
     14          6           0       -0.057025   -3.513644   -0.826364
     15          8           0       -0.485735   -4.618108   -1.242690
     16          8           0       -0.880725   -2.474140   -0.425361
     17          7           0        4.387590    1.982615   -1.887728
     18          6           0        3.923604    1.607579   -3.118233
     19          6           0        3.503636    2.787471   -3.872135
     20          6           0        3.585207    3.946598   -3.009549
     21          6           0        4.228966    3.416820   -1.747589
     22          6           0        2.963422    2.663651   -5.232351
     23          6           0        3.243034    5.351776   -3.416800
     24          8           0        2.612055    5.717728   -4.401719
     25          6           0        3.647984    6.580006   -2.567356
     26          7           0        5.456131    2.716378    0.996461
     27          6           0        5.015919    3.884299    0.673378
     28          6           0        5.107535    4.863104    1.911140
     29          6           0        5.931901    4.067434    2.951541
     30          6           0        5.764351    2.697544    2.353683
     31          6           0        5.799743    6.213736    1.591126
     32          6           0        5.398213    4.158309    4.402659
     33          6           0        6.542798    4.208992    5.498618
     34          7           0        5.420322   -0.202643    1.388337
     35          6           0        5.866791    0.182526    2.689676
     36          6           0        6.078248   -1.060686    3.463756
     37          6           0        5.689896   -2.094604    2.623116
     38          6           0        5.272127   -1.538330    1.399146
     39          6           0        6.563289   -1.203668    4.803802
     40          6           0        5.500126   -3.510429    2.431816
     41          8           0        5.665633   -4.480626    3.207794
     42          6           0        5.012656   -3.820344    0.964402
     43          6           0        5.961393   -4.806465    0.313269
     44          8           0        5.518212   -5.731830   -0.318863
     45          8           0        7.255767   -4.481271    0.455366
     46          6           0        8.301834   -5.313149    0.029503
     47          6           0       -2.289282   -2.750084   -0.537333
     48          6           0       -3.090750   -1.496627   -0.618226
     49          6           0       -3.785634   -1.011936   -1.613558
     50          6           0       -3.784958   -1.744776   -2.935092
     51          6           0       -4.743019    0.168386   -1.387565
     52          6           0       -6.062115   -0.067909   -0.561908
     53          6           0       -6.130270    0.231879    0.912990
     54          6           0       -7.498836    0.761172    1.525956
     55          6           0       -7.294866    1.436553    2.876274
     56          6           0       -8.577172   -0.363852    1.592592
     57          6           0       -9.828452    0.051495    0.766481
     58          6           0      -10.741807   -1.150877    0.529658
     59          6           0      -12.177817   -0.757993    1.059740
     60          6           0      -12.308747   -1.226311    2.588103
     61          6           0      -13.300590   -1.383137    0.219060
     62          6           0      -13.655221   -0.363347   -0.886467
     63          6           0      -15.110966    0.254941   -0.669113
     64          6           0      -15.183588    1.476140    0.292748
     65          6           0      -16.082468    1.113499    1.511986
     66          6           0      -15.468217    2.806800   -0.350108
     67          1           0        3.668933   -0.022473   -4.541563
     68          1           0        3.871788    5.093555   -0.684318
     69          1           0        6.329832    1.583940    4.128872
     70          1           0        4.446082   -4.112115   -2.133164
     71          1           0        2.943172   -2.488652   -3.749208
     72          1           0        5.561199   -3.545916   -3.954132
     73          1           0        5.533256   -1.879437   -4.659555
     74          1           0        4.365941   -3.052806   -5.221749
     75          1           0        2.562925   -4.854550   -1.077296
     76          1           0        1.918797   -3.969532   -2.402889
     77          1           0        1.466872   -2.023801   -1.021192
     78          1           0        1.687856   -3.087113    0.391602
     79          1           0        1.910068    2.393047   -5.311843
     80          1           0        3.517118    1.942429   -5.832649
     81          1           0        3.075499    3.526490   -5.889655
     82          1           0        4.712992    6.497568   -2.349332
     83          1           0        3.057858    6.677146   -1.655498
     84          1           0        3.524201    7.515071   -3.112176
     85          1           0        4.140232    5.127334    2.337582
     86          1           0        6.927573    4.504638    2.881999
     87          1           0        6.106285    6.208164    0.545472
     88          1           0        6.559196    6.519170    2.310096
     89          1           0        5.003975    6.957432    1.642113
     90          1           0        4.740511    3.324538    4.649428
     91          1           0        5.019206    5.176103    4.495371
     92          1           0        7.553178    4.310966    5.104908
     93          1           0        6.514717    3.388322    6.215314
     94          1           0        6.423112    5.118254    6.088818
     95          1           0        7.013259   -2.170914    5.030509
     96          1           0        5.644681   -1.311353    5.381921
     97          1           0        7.258948   -0.463875    5.198464
     98          1           0        4.022445   -4.276497    0.959244
     99          1           0        8.854855   -5.722102    0.874210
    100          1           0        8.901981   -4.590458   -0.523763
    101          1           0        7.953975   -6.188256   -0.518879
    102          1           0       -2.571074   -3.145440    0.438177
    103          1           0       -2.584808   -3.489160   -1.281535
    104          1           0       -3.068035   -0.916115    0.304395
    105          1           0       -3.954541   -1.087752   -3.788205
    106          1           0       -4.494368   -2.564853   -3.044839
    107          1           0       -2.767396   -2.125574   -3.019163
    108          1           0       -5.036529    0.508692   -2.380628
    109          1           0       -4.149551    0.953155   -0.919560
    110          1           0       -6.159302   -1.136448   -0.755149
    111          1           0       -6.910017    0.309665   -1.133022
    112          1           0       -5.335642    0.962604    1.064965
    113          1           0       -5.824951   -0.697309    1.395104
    114          1           0       -7.767594    1.602068    0.887224
    115          1           0       -7.358364    2.524213    2.857846
    116          1           0       -6.382152    1.056658    3.335673
    117          1           0       -8.123162    1.081955    3.489504
    118          1           0       -9.020883   -0.543778    2.572262
    119          1           0       -8.189172   -1.297399    1.185072
    120          1           0       -9.438290    0.288399   -0.222935
    121          1           0      -10.255393    0.961326    1.188362
    122          1           0      -10.432220   -2.018119    1.113038
    123          1           0      -10.767378   -1.431367   -0.523400
    124          1           0      -12.224151    0.325794    1.165785
    125          1           0      -11.344634   -1.454291    3.041599
    126          1           0      -12.705921   -2.238550    2.663966
    127          1           0      -12.774037   -0.547526    3.303311
    128          1           0      -14.128750   -1.657763    0.873781
    129          1           0      -12.959282   -2.276289   -0.302052
    130          1           0      -13.697281   -0.815233   -1.877534
    131          1           0      -12.934362    0.454744   -0.892473
    132          1           0      -15.794920   -0.520903   -0.327191
    133          1           0      -15.531527    0.509190   -1.641654
    134          1           0      -14.165573    1.593602    0.662973
    135          1           0      -16.531688    0.119784    1.526334
    136          1           0      -16.907728    1.815207    1.626260
    137          1           0      -15.577946    1.201341    2.474236
    138          1           0      -15.694095    2.635378   -1.402784
    139          1           0      -14.578411    3.435563   -0.322205
    140          1           0      -16.305376    3.211852    0.219537
 ---------------------------------------------------------------------

 SCF Done:  E(RB-LYP) =  -3007.35672608     A.U. after   22 cycles

 Excitation energies and oscillator strengths:

 Excited State   1:      Singlet-A      1.6922 eV  732.69 nm  f=0.0010  <S**2>=0.000
     244 -> 247        0.70490
 This state for optimization and/or second-order correction.
 Total Energy, E(TD-HF/TD-DFT) =  -3007.29453959
 Copying the excited state density for this state as the 1-particle RhoCI density.

 Excited State   2:      Singlet-A      1.7129 eV  723.82 nm  f=0.0054  <S**2>=0.000
     243 -> 247        0.59635
     245 -> 247        0.36761

 Excited State   3:      Singlet-A      1.8021 eV  687.98 nm  f=0.2832  <S**2>=0.000
     245 -> 248        0.19852
     246 -> 247        0.68103
     246 <- 247       -0.14057

 Excited State   4:      Singlet-A      1.9997 eV  620.03 nm  f=0.0550  <S**2>=0.000
     243 -> 247       -0.35384
     245 -> 247        0.54020
     246 -> 248       -0.26060

 Excited State   5:      Singlet-A      2.4782 eV  500.30 nm  f=0.0001  <S**2>=0.000
     241 -> 247        0.70696

 The electronic state is 1-A.
 Alpha  occ. eigenvalues --  -46.27696 -18.82579 -18.82243 -18.77241 -18.76688
 Alpha  occ. eigenvalues --  -18.75347 -18.75046 -14.03579 -14.03383 -14.01900
 Alpha  occ. eigenvalues --  -14.01410 -10.04685 -10.04264 -10.00044  -9.99378
 Alpha  occ. eigenvalues --   -9.98024  -9.97560  -9.97403  -9.97065  -9.96851
 Alpha  occ. eigenvalues --   -9.96811  -9.96725  -9.96265  -9.96190  -9.94913
 Alpha  occ. eigenvalues --   -9.94901  -9.94453  -9.94446  -9.94332  -9.94113
 Alpha  occ. eigenvalues --   -9.94023  -9.93957  -9.93891  -9.93843  -9.93556
 Alpha  occ. eigenvalues --   -9.93489  -9.93364  -9.93092  -9.93011  -9.92947
 Alpha  occ. eigenvalues --   -9.92820  -9.92559  -9.92520  -9.92517  -9.92376
 Alpha  occ. eigenvalues --   -9.92151  -9.92053  -9.91936  -9.91888  -9.91785
 Alpha  occ. eigenvalues --   -9.91491  -9.91431  -9.91416  -9.91344  -9.91326
 Alpha  occ. eigenvalues --   -9.91128  -9.91084  -9.91015  -9.90897  -9.90807
 Alpha  occ. eigenvalues --   -9.90740  -9.90596  -9.90584  -9.90570  -9.90533
 Alpha  occ. eigenvalues --   -9.90505  -2.92321  -1.72743  -1.72236  -1.72008
 Alpha  occ. eigenvalues --   -0.99648  -0.97457  -0.91438  -0.91299  -0.89377
 Alpha  occ. eigenvalues --   -0.88982  -0.87480  -0.85782  -0.85116  -0.83793
 Alpha  occ. eigenvalues --   -0.75752  -0.73745  -0.73428  -0.72869  -0.72366
 Alpha  occ. eigenvalues --   -0.71815  -0.71788  -0.71370  -0.70645  -0.70581
 Alpha  occ. eigenvalues --   -0.69861  -0.69525  -0.68311  -0.67939  -0.67603
 Alpha  occ. eigenvalues --   -0.66666  -0.66430  -0.65617  -0.64998  -0.64393
 Alpha  occ. eigenvalues --   -0.63806  -0.62953  -0.62534  -0.61837  -0.60918
 Alpha  occ. eigenvalues --   -0.60656  -0.60169  -0.59946  -0.59188  -0.58606
 Alpha  occ. eigenvalues --   -0.58383  -0.57807  -0.56909  -0.55738  -0.55250
 Alpha  occ. eigenvalues --   -0.53880  -0.53360  -0.53041  -0.52304  -0.51678
 Alpha  occ. eigenvalues --   -0.51354  -0.51127  -0.51069  -0.50780  -0.49931
 Alpha  occ. eigenvalues --   -0.49617  -0.49296  -0.49038  -0.48567  -0.46678
 Alpha  occ. eigenvalues --   -0.46364  -0.46092  -0.45799  -0.45562  -0.44910
 Alpha  occ. eigenvalues --   -0.44375  -0.43827  -0.43597  -0.43343  -0.42970
 Alpha  occ. eigenvalues --   -0.42723  -0.42272  -0.42012  -0.41383  -0.41197
 Alpha  occ. eigenvalues --   -0.40682  -0.40610  -0.40407  -0.40260  -0.39935
 Alpha  occ. eigenvalues --   -0.39831  -0.39648  -0.39550  -0.39409  -0.39061
 Alpha  occ. eigenvalues --   -0.38898  -0.38823  -0.38589  -0.38429  -0.38335
 Alpha  occ. eigenvalues --   -0.38250  -0.37878  -0.37739  -0.37531  -0.37432
 Alpha  occ. eigenvalues --   -0.37283  -0.37097  -0.36947  -0.36714  -0.36547
 Alpha  occ. eigenvalues --   -0.36409  -0.36103  -0.36013  -0.35731  -0.35554
 Alpha  occ. eigenvalues --   -0.35389  -0.35113  -0.34982  -0.34770  -0.34547
 Alpha  occ. eigenvalues --   -0.34446  -0.34242  -0.34089  -0.33913  -0.33833
 Alpha  occ. eigenvalues --   -0.33763  -0.33564  -0.33414  -0.33180  -0.32999
 Alpha  occ. eigenvalues --   -0.32946  -0.32724  -0.32476  -0.32400  -0.32365
 Alpha  occ. eigenvalues --   -0.32011  -0.31906  -0.31526  -0.31413  -0.31350
 Alpha  occ. eigenvalues --   -0.31277  -0.30933  -0.30819  -0.30707  -0.30413
 Alpha  occ. eigenvalues --   -0.30214  -0.30197  -0.30135  -0.29971  -0.29816
 Alpha  occ. eigenvalues --   -0.29683  -0.29677  -0.29461  -0.29313  -0.29113
 Alpha  occ. eigenvalues --   -0.28862  -0.28709  -0.28287  -0.28149  -0.27920
 Alpha  occ. eigenvalues --   -0.27827  -0.27614  -0.27120  -0.27062  -0.26500
 Alpha  occ. eigenvalues --   -0.26246  -0.25858  -0.25766  -0.25585  -0.25116
 Alpha  occ. eigenvalues --   -0.25070  -0.24550  -0.24383  -0.24323  -0.23955
 Alpha  occ. eigenvalues --   -0.22997  -0.22591  -0.22423  -0.21725  -0.21068
 Alpha  occ. eigenvalues --   -0.20963  -0.20749  -0.18169  -0.17993  -0.17528
 Alpha  occ. eigenvalues --   -0.16213
 Alpha virt. eigenvalues --   -0.11857  -0.07692  -0.06476  -0.05258  -0.03554
 Alpha virt. eigenvalues --   -0.02889  -0.02473  -0.02328  -0.01898  -0.00362
 Alpha virt. eigenvalues --    0.00739   0.01321   0.02267   0.02478   0.02851

 Mulliken charges:
               1
     1  Mg   0.701767
     2  C    0.008361
     3  C   -0.056081
     4  C   -0.037623
     5  C   -0.058646
     6  N   -0.259988
     7  C   -0.044876
     8  C    0.066179
     9  C    0.002160
    10  C    0.004852
    11  C    0.132994
    12  C    0.049333
    13  C    0.108653
    14  C    0.118727
    15  O   -0.213923
    16  O   -0.265417
    17  N   -0.342759
    18  C    0.160787
    19  C   -0.086909
    20  C    0.039214
    21  C    0.105659
    22  C    0.155956
    23  C   -0.076480
    24  O   -0.165225
    25  C    0.096471
    26  N   -0.127041
    27  C    0.026689
    28  C   -0.033180
    29  C    0.059001
    30  C    0.001792
    31  C    0.123888
    32  C    0.101293
    33  C    0.034646
    34  N   -0.296108
    35  C    0.101648
    36  C   -0.172262
    37  C    0.164343
    38  C    0.055576
    39  C    0.165034
    40  C   -0.089961
    41  O   -0.171261
    42  C    0.096118
    43  C    0.080622
    44  O   -0.161879
    45  O   -0.237219
    46  C    0.208575
    47  C    0.344471
    48  C   -0.104313
    49  C   -0.157837
    50  C    0.112174
    51  C    0.145741
    52  C    0.068871
    53  C    0.105726
    54  C   -0.050644
    55  C    0.123674
    56  C    0.093061
    57  C    0.029233
    58  C    0.138960
    59  C   -0.124034
    60  C    0.073755
    61  C    0.170279
    62  C    0.056841
    63  C    0.081679
    64  C   -0.093981
    65  C    0.089241
    66  C    0.143160
    67  H   -0.062027
    68  H   -0.073283
    69  H   -0.072095
    70  H   -0.017248
    71  H   -0.034264
    72  H    0.001406
    73  H   -0.003262
    74  H   -0.003236
    75  H    0.012933
    76  H   -0.027676
    77  H    0.008959
    78  H    0.017453
    79  H    0.011013
    80  H   -0.021547
    81  H   -0.008058
    82  H   -0.002034
    83  H    0.026005
    84  H   -0.012948
    85  H   -0.017254
    86  H   -0.020472
    87  H   -0.001507
    88  H   -0.001714
    89  H   -0.020455
    90  H   -0.001207
    91  H   -0.018938
    92  H   -0.011425
    93  H   -0.000573
    94  H   -0.017769
    95  H   -0.002221
    96  H    0.003559
    97  H    0.002678
    98  H   -0.006392
    99  H    0.017733
   100  H    0.017862
   101  H    0.016954
   102  H   -0.023269
   103  H   -0.000784
   104  H   -0.044489
   105  H   -0.017311
   106  H    0.012951
   107  H    0.006831
   108  H   -0.047867
   109  H   -0.020782
   110  H   -0.041998
   111  H   -0.035611
   112  H   -0.039107
   113  H   -0.025209
   114  H   -0.038481
   115  H   -0.012847
   116  H   -0.017757
   117  H   -0.035701
   118  H   -0.021688
   119  H   -0.025840
   120  H   -0.032509
   121  H   -0.018214
   122  H   -0.029474
   123  H   -0.034607
   124  H   -0.015211
   125  H   -0.039375
   126  H   -0.026391
   127  H   -0.006592
   128  H   -0.028661
   129  H   -0.036077
   130  H   -0.038061
   131  H   -0.021222
   132  H   -0.040189
   133  H   -0.048804
   134  H   -0.035928
   135  H   -0.012918
   136  H   -0.030470
   137  H   -0.019790
   138  H   -0.021950
   139  H   -0.015759
   140  H   -0.017343
 Sum of Mulliken charges =  -0.00000

 Dipole moment (field-independent basis, Debye):
    X=              2.2111    Y=              3.9445    Z=              1.1601  Tot=              4.6684
 Quadrupole moment (field-independent basis, Debye-Ang):
   XX=           -365.6558   YY=           -441.1042   ZZ=           -404.2226
   XY=             16.9112   XZ=              1.2771   YZ=             38.2618

 Normal termination of Gaussian 16 at Sat Apr 30 23:38:35 2022.
