 Gaussian 16, Revision A.03,
 Gaussian 16:  ES64L-G16RevA.03 25-Dec-2016

 -----------------------------------
 #p cam-b3lyp/Def2SVP td=(nstates=5)
 -----------------------------------

 -------------------------------------------------------
 step_951_chromophore_14 TDDFT with cam-b3lyp functional
 -------------------------------------------------------
 Symbolic Z-matrix:
 Charge =  0 Multiplicity = 1

                         Standard orientation:
 ---------------------------------------------------------------------
 Center     Atomic      Atomic             Coordinates (Angstroms)
 Number     Number       Type             X           Y           Z
 ---------------------------------------------------------------------
      1         12           0        5.085681    0.814025   -0.382591
      2          6           0        4.907968   -2.453730    0.392339
      3          6           0        3.964394    0.269340   -3.532640
      4          6           0        4.426419    4.160752   -0.561963
      5          6           0        5.993069    1.506464    3.093190
      6          7           0        4.351783   -0.865870   -1.453383
      7          6           0        4.382308   -2.185454   -0.928510
      8          6           0        3.843090   -3.224245   -1.947161
      9          6           0        3.902940   -2.374873   -3.244556
     10          6           0        4.036684   -0.876390   -2.772658
     11          6           0        4.941596   -2.740779   -4.350752
     12          6           0        2.453640   -3.840400   -1.461466
     13          6           0        1.389246   -3.047782   -0.656142
     14          6           0       -0.057025   -3.513644   -0.826364
     15          8           0       -0.485735   -4.618108   -1.242690
     16          8           0       -0.880725   -2.474140   -0.425361
     17          7           0        4.387590    1.982615   -1.887728
     18          6           0        3.923604    1.607579   -3.118233
     19          6           0        3.503636    2.787471   -3.872135
     20          6           0        3.585207    3.946598   -3.009549
     21          6           0        4.228966    3.416820   -1.747589
     22          6           0        2.963422    2.663651   -5.232351
     23          6           0        3.243034    5.351776   -3.416800
     24          8           0        2.612055    5.717728   -4.401719
     25          6           0        3.647984    6.580006   -2.567356
     26          7           0        5.456131    2.716378    0.996461
     27          6           0        5.015919    3.884299    0.673378
     28          6           0        5.107535    4.863104    1.911140
     29          6           0        5.931901    4.067434    2.951541
     30          6           0        5.764351    2.697544    2.353683
     31          6           0        5.799743    6.213736    1.591126
     32          6           0        5.398213    4.158309    4.402659
     33          6           0        6.542798    4.208992    5.498618
     34          7           0        5.420322   -0.202643    1.388337
     35          6           0        5.866791    0.182526    2.689676
     36          6           0        6.078248   -1.060686    3.463756
     37          6           0        5.689896   -2.094604    2.623116
     38          6           0        5.272127   -1.538330    1.399146
     39          6           0        6.563289   -1.203668    4.803802
     40          6           0        5.500126   -3.510429    2.431816
     41          8           0        5.665633   -4.480626    3.207794
     42          6           0        5.012656   -3.820344    0.964402
     43          6           0        5.961393   -4.806465    0.313269
     44          8           0        5.518212   -5.731830   -0.318863
     45          8           0        7.255767   -4.481271    0.455366
     46          6           0        8.301834   -5.313149    0.029503
     47          6           0       -2.289282   -2.750084   -0.537333
     48          6           0       -3.090750   -1.496627   -0.618226
     49          6           0       -3.785634   -1.011936   -1.613558
     50          6           0       -3.784958   -1.744776   -2.935092
     51          6           0       -4.743019    0.168386   -1.387565
     52          6           0       -6.062115   -0.067909   -0.561908
     53          6           0       -6.130270    0.231879    0.912990
     54          6           0       -7.498836    0.761172    1.525956
     55          6           0       -7.294866    1.436553    2.876274
     56          6           0       -8.577172   -0.363852    1.592592
     57          6           0       -9.828452    0.051495    0.766481
     58          6           0      -10.741807   -1.150877    0.529658
     59          6           0      -12.177817   -0.757993    1.059740
     60          6           0      -12.308747   -1.226311    2.588103
     61          6           0      -13.300590   -1.383137    0.219060
     62          6           0      -13.655221   -0.363347   -0.886467
     63          6           0      -15.110966    0.254941   -0.669113
     64          6           0      -15.183588    1.476140    0.292748
     65          6           0      -16.082468    1.113499    1.511986
     66          6           0      -15.468217    2.806800   -0.350108
     67          1           0        3.668933   -0.022473   -4.541563
     68          1           0        3.871788    5.093555   -0.684318
     69          1           0        6.329832    1.583940    4.128872
     70          1           0        4.446082   -4.112115   -2.133164
     71          1           0        2.943172   -2.488652   -3.749208
     72          1           0        5.561199   -3.545916   -3.954132
     73          1           0        5.533256   -1.879437   -4.659555
     74          1           0        4.365941   -3.052806   -5.221749
     75          1           0        2.562925   -4.854550   -1.077296
     76          1           0        1.918797   -3.969532   -2.402889
     77          1           0        1.466872   -2.023801   -1.021192
     78          1           0        1.687856   -3.087113    0.391602
     79          1           0        1.910068    2.393047   -5.311843
     80          1           0        3.517118    1.942429   -5.832649
     81          1           0        3.075499    3.526490   -5.889655
     82          1           0        4.712992    6.497568   -2.349332
     83          1           0        3.057858    6.677146   -1.655498
     84          1           0        3.524201    7.515071   -3.112176
     85          1           0        4.140232    5.127334    2.337582
     86          1           0        6.927573    4.504638    2.881999
     87          1           0        6.106285    6.208164    0.545472
     88          1           0        6.559196    6.519170    2.310096
     89          1           0        5.003975    6.957432    1.642113
     90          1           0        4.740511    3.324538    4.649428
     91          1           0        5.019206    5.176103    4.495371
     92          1           0        7.553178    4.310966    5.104908
     93          1           0        6.514717    3.388322    6.215314
     94          1           0        6.423112    5.118254    6.088818
     95          1           0        7.013259   -2.170914    5.030509
     96          1           0        5.644681   -1.311353    5.381921
     97          1           0        7.258948   -0.463875    5.198464
     98          1           0        4.022445   -4.276497    0.959244
     99          1           0        8.854855   -5.722102    0.874210
    100          1           0        8.901981   -4.590458   -0.523763
    101          1           0        7.953975   -6.188256   -0.518879
    102          1           0       -2.571074   -3.145440    0.438177
    103          1           0       -2.584808   -3.489160   -1.281535
    104          1           0       -3.068035   -0.916115    0.304395
    105          1           0       -3.954541   -1.087752   -3.788205
    106          1           0       -4.494368   -2.564853   -3.044839
    107          1           0       -2.767396   -2.125574   -3.019163
    108          1           0       -5.036529    0.508692   -2.380628
    109          1           0       -4.149551    0.953155   -0.919560
    110          1           0       -6.159302   -1.136448   -0.755149
    111          1           0       -6.910017    0.309665   -1.133022
    112          1           0       -5.335642    0.962604    1.064965
    113          1           0       -5.824951   -0.697309    1.395104
    114          1           0       -7.767594    1.602068    0.887224
    115          1           0       -7.358364    2.524213    2.857846
    116          1           0       -6.382152    1.056658    3.335673
    117          1           0       -8.123162    1.081955    3.489504
    118          1           0       -9.020883   -0.543778    2.572262
    119          1           0       -8.189172   -1.297399    1.185072
    120          1           0       -9.438290    0.288399   -0.222935
    121          1           0      -10.255393    0.961326    1.188362
    122          1           0      -10.432220   -2.018119    1.113038
    123          1           0      -10.767378   -1.431367   -0.523400
    124          1           0      -12.224151    0.325794    1.165785
    125          1           0      -11.344634   -1.454291    3.041599
    126          1           0      -12.705921   -2.238550    2.663966
    127          1           0      -12.774037   -0.547526    3.303311
    128          1           0      -14.128750   -1.657763    0.873781
    129          1           0      -12.959282   -2.276289   -0.302052
    130          1           0      -13.697281   -0.815233   -1.877534
    131          1           0      -12.934362    0.454744   -0.892473
    132          1           0      -15.794920   -0.520903   -0.327191
    133          1           0      -15.531527    0.509190   -1.641654
    134          1           0      -14.165573    1.593602    0.662973
    135          1           0      -16.531688    0.119784    1.526334
    136          1           0      -16.907728    1.815207    1.626260
    137          1           0      -15.577946    1.201341    2.474236
    138          1           0      -15.694095    2.635378   -1.402784
    139          1           0      -14.578411    3.435563   -0.322205
    140          1           0      -16.305376    3.211852    0.219537
 ---------------------------------------------------------------------

 SCF Done:  E(RCAM-B3LYP) =  -3007.14532722     A.U. after   19 cycles

 Excitation energies and oscillator strengths:

 Excited State   1:      Singlet-A      1.7186 eV  721.41 nm  f=0.3501  <S**2>=0.000
     245 -> 248        0.18970
     246 -> 247        0.68165
     245 <- 248        0.10814
 This state for optimization and/or second-order correction.
 Total Energy, E(TD-HF/TD-DFT) =  -3007.08216875
 Copying the excited state density for this state as the 1-particle RhoCI density.

 Excited State   2:      Singlet-A      2.2313 eV  555.65 nm  f=0.0697  <S**2>=0.000
     245 -> 247        0.62242
     246 -> 248       -0.32306

 Excited State   3:      Singlet-A      3.3402 eV  371.19 nm  f=0.0003  <S**2>=0.000
     241 -> 247        0.31400
     241 -> 248        0.11201
     241 -> 249        0.19330
     241 -> 250        0.15973
     242 -> 247        0.44084
     242 -> 248        0.13540
     242 -> 249        0.23747
     242 -> 250        0.18587

 Excited State   4:      Singlet-A      3.3933 eV  365.38 nm  f=0.1128  <S**2>=0.000
     243 -> 247        0.34050
     243 -> 249       -0.22040
     243 -> 250        0.17430
     244 -> 247        0.35699
     244 -> 249       -0.16672
     244 -> 250        0.11356
     245 -> 247        0.13537
     246 -> 248        0.27896

 Excited State   5:      Singlet-A      3.4150 eV  363.06 nm  f=0.2813  <S**2>=0.000
     241 -> 247        0.33643
     242 -> 247       -0.24009
     244 -> 247       -0.30669
     245 -> 247        0.19104
     246 -> 248        0.41764

 The electronic state is 1-A.
 Alpha  occ. eigenvalues --  -46.89284 -19.25278 -19.25058 -19.20186 -19.19595
 Alpha  occ. eigenvalues --  -19.18880 -19.17992 -14.42461 -14.42352 -14.40665
 Alpha  occ. eigenvalues --  -14.39755 -10.40075 -10.39450 -10.35530 -10.34529
 Alpha  occ. eigenvalues --  -10.32359 -10.32098 -10.31735 -10.31547 -10.31491
 Alpha  occ. eigenvalues --  -10.31088 -10.31008 -10.30855 -10.30102 -10.29509
 Alpha  occ. eigenvalues --  -10.29040 -10.28958 -10.28764 -10.28585 -10.28532
 Alpha  occ. eigenvalues --  -10.28176 -10.28095 -10.27885 -10.27694 -10.27689
 Alpha  occ. eigenvalues --  -10.27568 -10.27551 -10.27308 -10.26897 -10.26826
 Alpha  occ. eigenvalues --  -10.26701 -10.26539 -10.26357 -10.26043 -10.26031
 Alpha  occ. eigenvalues --  -10.25868 -10.25822 -10.25799 -10.25766 -10.25708
 Alpha  occ. eigenvalues --  -10.25496 -10.25117 -10.25069 -10.25060 -10.24980
 Alpha  occ. eigenvalues --  -10.24783 -10.24750 -10.24667 -10.24629 -10.24523
 Alpha  occ. eigenvalues --  -10.24364 -10.24281 -10.24207 -10.24126 -10.24110
 Alpha  occ. eigenvalues --  -10.24045  -3.17814  -1.92712  -1.92289  -1.92100
 Alpha  occ. eigenvalues --   -1.18021  -1.15806  -1.10001  -1.09310  -1.07498
 Alpha  occ. eigenvalues --   -1.06785  -1.05316  -1.03357  -1.02679  -1.01502
 Alpha  occ. eigenvalues --   -0.92732  -0.90596  -0.90192  -0.89650  -0.89102
 Alpha  occ. eigenvalues --   -0.88501  -0.88447  -0.87915  -0.87179  -0.87113
 Alpha  occ. eigenvalues --   -0.86812  -0.85909  -0.84540  -0.84038  -0.83794
 Alpha  occ. eigenvalues --   -0.82613  -0.82344  -0.81527  -0.80977  -0.80366
 Alpha  occ. eigenvalues --   -0.79610  -0.78611  -0.78120  -0.77645  -0.76361
 Alpha  occ. eigenvalues --   -0.76004  -0.75528  -0.75244  -0.74449  -0.73769
 Alpha  occ. eigenvalues --   -0.73454  -0.72794  -0.71854  -0.70571  -0.69917
 Alpha  occ. eigenvalues --   -0.68626  -0.67897  -0.67538  -0.66643  -0.65842
 Alpha  occ. eigenvalues --   -0.65437  -0.65345  -0.64908  -0.64788  -0.63980
 Alpha  occ. eigenvalues --   -0.63329  -0.63132  -0.62859  -0.62437  -0.60294
 Alpha  occ. eigenvalues --   -0.59956  -0.59692  -0.59217  -0.59034  -0.58270
 Alpha  occ. eigenvalues --   -0.57783  -0.57097  -0.56822  -0.56582  -0.56047
 Alpha  occ. eigenvalues --   -0.55985  -0.55348  -0.54994  -0.54363  -0.54110
 Alpha  occ. eigenvalues --   -0.53763  -0.53426  -0.53279  -0.52935  -0.52573
 Alpha  occ. eigenvalues --   -0.52426  -0.52327  -0.52087  -0.52037  -0.51749
 Alpha  occ. eigenvalues --   -0.51567  -0.51383  -0.51193  -0.50943  -0.50789
 Alpha  occ. eigenvalues --   -0.50655  -0.50087  -0.50031  -0.49839  -0.49681
 Alpha  occ. eigenvalues --   -0.49584  -0.49469  -0.49247  -0.49137  -0.48787
 Alpha  occ. eigenvalues --   -0.48643  -0.48579  -0.48371  -0.47940  -0.47572
 Alpha  occ. eigenvalues --   -0.47394  -0.47205  -0.46909  -0.46787  -0.46474
 Alpha  occ. eigenvalues --   -0.46420  -0.46264  -0.46119  -0.45950  -0.45634
 Alpha  occ. eigenvalues --   -0.45476  -0.45419  -0.45121  -0.45081  -0.44628
 Alpha  occ. eigenvalues --   -0.44620  -0.44431  -0.44237  -0.43985  -0.43826
 Alpha  occ. eigenvalues --   -0.43616  -0.43358  -0.43251  -0.43175  -0.43080
 Alpha  occ. eigenvalues --   -0.42840  -0.42365  -0.42306  -0.42076  -0.41991
 Alpha  occ. eigenvalues --   -0.41804  -0.41514  -0.41407  -0.41357  -0.41138
 Alpha  occ. eigenvalues --   -0.41088  -0.40814  -0.40576  -0.40452  -0.40364
 Alpha  occ. eigenvalues --   -0.39939  -0.39658  -0.39299  -0.39205  -0.38876
 Alpha  occ. eigenvalues --   -0.38704  -0.38523  -0.38191  -0.37768  -0.37480
 Alpha  occ. eigenvalues --   -0.37026  -0.36899  -0.36522  -0.36316  -0.36243
 Alpha  occ. eigenvalues --   -0.35693  -0.35620  -0.35076  -0.34864  -0.34473
 Alpha  occ. eigenvalues --   -0.34429  -0.33741  -0.33284  -0.31262  -0.30786
 Alpha  occ. eigenvalues --   -0.30642  -0.30562  -0.30119  -0.29895  -0.24455
 Alpha  occ. eigenvalues --   -0.21517
 Alpha virt. eigenvalues --   -0.08878  -0.02761  -0.00057   0.01628   0.02213
 Alpha virt. eigenvalues --    0.04409   0.04946   0.05116   0.05758   0.06111
 Alpha virt. eigenvalues --    0.07460   0.08308   0.08609   0.08748   0.09056

 Mulliken charges:
               1
     1  Mg   0.832845
     2  C   -0.023675
     3  C   -0.079327
     4  C   -0.061264
     5  C   -0.062436
     6  N   -0.334223
     7  C   -0.005569
     8  C    0.017392
     9  C   -0.050090
    10  C    0.030589
    11  C    0.073705
    12  C    0.002378
    13  C    0.040819
    14  C    0.201063
    15  O   -0.256443
    16  O   -0.328775
    17  N   -0.428905
    18  C    0.174404
    19  C   -0.093894
    20  C   -0.028862
    21  C    0.140628
    22  C    0.096314
    23  C   -0.001065
    24  O   -0.201787
    25  C    0.016413
    26  N   -0.190780
    27  C    0.045396
    28  C   -0.080837
    29  C    0.008055
    30  C    0.015228
    31  C    0.066513
    32  C    0.035834
    33  C   -0.023099
    34  N   -0.382888
    35  C    0.103331
    36  C   -0.166112
    37  C    0.079844
    38  C    0.092921
    39  C    0.102057
    40  C    0.013288
    41  O   -0.212075
    42  C    0.017955
    43  C    0.172767
    44  O   -0.204603
    45  O   -0.299771
    46  C    0.169358
    47  C    0.302839
    48  C   -0.121888
    49  C   -0.182836
    50  C    0.050520
    51  C    0.092020
    52  C    0.015441
    53  C    0.051216
    54  C   -0.108829
    55  C    0.065766
    56  C    0.042416
    57  C   -0.021948
    58  C    0.086488
    59  C   -0.177407
    60  C    0.019143
    61  C    0.110594
    62  C    0.003184
    63  C    0.030453
    64  C   -0.155739
    65  C    0.031817
    66  C    0.084850
    67  H   -0.027916
    68  H   -0.037203
    69  H   -0.035865
    70  H    0.020599
    71  H    0.002120
    72  H    0.026066
    73  H    0.022602
    74  H    0.020979
    75  H    0.042885
    76  H    0.002655
    77  H    0.040430
    78  H    0.047044
    79  H    0.040400
    80  H    0.006480
    81  H    0.024273
    82  H    0.025741
    83  H    0.051552
    84  H    0.024098
    85  H    0.017005
    86  H    0.012104
    87  H    0.022454
    88  H    0.023261
    89  H    0.004258
    90  H    0.029557
    91  H    0.009568
    92  H    0.012120
    93  H    0.021629
    94  H    0.006900
    95  H    0.027757
    96  H    0.031163
    97  H    0.026707
    98  H    0.033646
    99  H    0.038011
   100  H    0.039136
   101  H    0.042537
   102  H    0.006121
   103  H    0.031689
   104  H   -0.011211
   105  H    0.008009
   106  H    0.036101
   107  H    0.029913
   108  H   -0.015984
   109  H    0.008493
   110  H   -0.013528
   111  H   -0.007426
   112  H   -0.010998
   113  H    0.001416
   114  H   -0.005868
   115  H    0.011640
   116  H    0.006764
   117  H   -0.010430
   118  H    0.003055
   119  H    0.001974
   120  H   -0.006257
   121  H    0.008141
   122  H   -0.000784
   123  H   -0.004997
   124  H    0.011723
   125  H   -0.016326
   126  H   -0.001597
   127  H    0.016580
   128  H    0.000028
   129  H   -0.005859
   130  H   -0.007550
   131  H    0.004275
   132  H   -0.011853
   133  H   -0.019156
   134  H   -0.005242
   135  H    0.010217
   136  H   -0.006379
   137  H    0.003663
   138  H    0.002059
   139  H    0.008097
   140  H    0.006019
 Sum of Mulliken charges =  -0.00000

 Dipole moment (field-independent basis, Debye):
    X=              2.2248    Y=              4.8765    Z=              0.5948  Tot=              5.3929
 Quadrupole moment (field-independent basis, Debye-Ang):
   XX=           -366.4143   YY=           -437.6813   ZZ=           -401.3788
   XY=             21.0954   XZ=             -1.0269   YZ=             38.3298

 Normal termination of Gaussian 16 at Sat Apr 30 22:42:18 2022.
