 Gaussian 16, Revision A.03,
 Gaussian 16:  ES64L-G16RevA.03 25-Dec-2016

 ---------------------------------
 #p PBE1PBE/Def2SVP td=(nstates=5)
 ---------------------------------

 -----------------------------------------------------
 step_951_chromophore_14 TDDFT with PBE1PBE functional
 -----------------------------------------------------
 Symbolic Z-matrix:
 Charge =  0 Multiplicity = 1

                         Standard orientation:
 ---------------------------------------------------------------------
 Center     Atomic      Atomic             Coordinates (Angstroms)
 Number     Number       Type             X           Y           Z
 ---------------------------------------------------------------------
      1         12           0        5.085681    0.814025   -0.382591
      2          6           0        4.907968   -2.453730    0.392339
      3          6           0        3.964394    0.269340   -3.532640
      4          6           0        4.426419    4.160752   -0.561963
      5          6           0        5.993069    1.506464    3.093190
      6          7           0        4.351783   -0.865870   -1.453383
      7          6           0        4.382308   -2.185454   -0.928510
      8          6           0        3.843090   -3.224245   -1.947161
      9          6           0        3.902940   -2.374873   -3.244556
     10          6           0        4.036684   -0.876390   -2.772658
     11          6           0        4.941596   -2.740779   -4.350752
     12          6           0        2.453640   -3.840400   -1.461466
     13          6           0        1.389246   -3.047782   -0.656142
     14          6           0       -0.057025   -3.513644   -0.826364
     15          8           0       -0.485735   -4.618108   -1.242690
     16          8           0       -0.880725   -2.474140   -0.425361
     17          7           0        4.387590    1.982615   -1.887728
     18          6           0        3.923604    1.607579   -3.118233
     19          6           0        3.503636    2.787471   -3.872135
     20          6           0        3.585207    3.946598   -3.009549
     21          6           0        4.228966    3.416820   -1.747589
     22          6           0        2.963422    2.663651   -5.232351
     23          6           0        3.243034    5.351776   -3.416800
     24          8           0        2.612055    5.717728   -4.401719
     25          6           0        3.647984    6.580006   -2.567356
     26          7           0        5.456131    2.716378    0.996461
     27          6           0        5.015919    3.884299    0.673378
     28          6           0        5.107535    4.863104    1.911140
     29          6           0        5.931901    4.067434    2.951541
     30          6           0        5.764351    2.697544    2.353683
     31          6           0        5.799743    6.213736    1.591126
     32          6           0        5.398213    4.158309    4.402659
     33          6           0        6.542798    4.208992    5.498618
     34          7           0        5.420322   -0.202643    1.388337
     35          6           0        5.866791    0.182526    2.689676
     36          6           0        6.078248   -1.060686    3.463756
     37          6           0        5.689896   -2.094604    2.623116
     38          6           0        5.272127   -1.538330    1.399146
     39          6           0        6.563289   -1.203668    4.803802
     40          6           0        5.500126   -3.510429    2.431816
     41          8           0        5.665633   -4.480626    3.207794
     42          6           0        5.012656   -3.820344    0.964402
     43          6           0        5.961393   -4.806465    0.313269
     44          8           0        5.518212   -5.731830   -0.318863
     45          8           0        7.255767   -4.481271    0.455366
     46          6           0        8.301834   -5.313149    0.029503
     47          6           0       -2.289282   -2.750084   -0.537333
     48          6           0       -3.090750   -1.496627   -0.618226
     49          6           0       -3.785634   -1.011936   -1.613558
     50          6           0       -3.784958   -1.744776   -2.935092
     51          6           0       -4.743019    0.168386   -1.387565
     52          6           0       -6.062115   -0.067909   -0.561908
     53          6           0       -6.130270    0.231879    0.912990
     54          6           0       -7.498836    0.761172    1.525956
     55          6           0       -7.294866    1.436553    2.876274
     56          6           0       -8.577172   -0.363852    1.592592
     57          6           0       -9.828452    0.051495    0.766481
     58          6           0      -10.741807   -1.150877    0.529658
     59          6           0      -12.177817   -0.757993    1.059740
     60          6           0      -12.308747   -1.226311    2.588103
     61          6           0      -13.300590   -1.383137    0.219060
     62          6           0      -13.655221   -0.363347   -0.886467
     63          6           0      -15.110966    0.254941   -0.669113
     64          6           0      -15.183588    1.476140    0.292748
     65          6           0      -16.082468    1.113499    1.511986
     66          6           0      -15.468217    2.806800   -0.350108
     67          1           0        3.668933   -0.022473   -4.541563
     68          1           0        3.871788    5.093555   -0.684318
     69          1           0        6.329832    1.583940    4.128872
     70          1           0        4.446082   -4.112115   -2.133164
     71          1           0        2.943172   -2.488652   -3.749208
     72          1           0        5.561199   -3.545916   -3.954132
     73          1           0        5.533256   -1.879437   -4.659555
     74          1           0        4.365941   -3.052806   -5.221749
     75          1           0        2.562925   -4.854550   -1.077296
     76          1           0        1.918797   -3.969532   -2.402889
     77          1           0        1.466872   -2.023801   -1.021192
     78          1           0        1.687856   -3.087113    0.391602
     79          1           0        1.910068    2.393047   -5.311843
     80          1           0        3.517118    1.942429   -5.832649
     81          1           0        3.075499    3.526490   -5.889655
     82          1           0        4.712992    6.497568   -2.349332
     83          1           0        3.057858    6.677146   -1.655498
     84          1           0        3.524201    7.515071   -3.112176
     85          1           0        4.140232    5.127334    2.337582
     86          1           0        6.927573    4.504638    2.881999
     87          1           0        6.106285    6.208164    0.545472
     88          1           0        6.559196    6.519170    2.310096
     89          1           0        5.003975    6.957432    1.642113
     90          1           0        4.740511    3.324538    4.649428
     91          1           0        5.019206    5.176103    4.495371
     92          1           0        7.553178    4.310966    5.104908
     93          1           0        6.514717    3.388322    6.215314
     94          1           0        6.423112    5.118254    6.088818
     95          1           0        7.013259   -2.170914    5.030509
     96          1           0        5.644681   -1.311353    5.381921
     97          1           0        7.258948   -0.463875    5.198464
     98          1           0        4.022445   -4.276497    0.959244
     99          1           0        8.854855   -5.722102    0.874210
    100          1           0        8.901981   -4.590458   -0.523763
    101          1           0        7.953975   -6.188256   -0.518879
    102          1           0       -2.571074   -3.145440    0.438177
    103          1           0       -2.584808   -3.489160   -1.281535
    104          1           0       -3.068035   -0.916115    0.304395
    105          1           0       -3.954541   -1.087752   -3.788205
    106          1           0       -4.494368   -2.564853   -3.044839
    107          1           0       -2.767396   -2.125574   -3.019163
    108          1           0       -5.036529    0.508692   -2.380628
    109          1           0       -4.149551    0.953155   -0.919560
    110          1           0       -6.159302   -1.136448   -0.755149
    111          1           0       -6.910017    0.309665   -1.133022
    112          1           0       -5.335642    0.962604    1.064965
    113          1           0       -5.824951   -0.697309    1.395104
    114          1           0       -7.767594    1.602068    0.887224
    115          1           0       -7.358364    2.524213    2.857846
    116          1           0       -6.382152    1.056658    3.335673
    117          1           0       -8.123162    1.081955    3.489504
    118          1           0       -9.020883   -0.543778    2.572262
    119          1           0       -8.189172   -1.297399    1.185072
    120          1           0       -9.438290    0.288399   -0.222935
    121          1           0      -10.255393    0.961326    1.188362
    122          1           0      -10.432220   -2.018119    1.113038
    123          1           0      -10.767378   -1.431367   -0.523400
    124          1           0      -12.224151    0.325794    1.165785
    125          1           0      -11.344634   -1.454291    3.041599
    126          1           0      -12.705921   -2.238550    2.663966
    127          1           0      -12.774037   -0.547526    3.303311
    128          1           0      -14.128750   -1.657763    0.873781
    129          1           0      -12.959282   -2.276289   -0.302052
    130          1           0      -13.697281   -0.815233   -1.877534
    131          1           0      -12.934362    0.454744   -0.892473
    132          1           0      -15.794920   -0.520903   -0.327191
    133          1           0      -15.531527    0.509190   -1.641654
    134          1           0      -14.165573    1.593602    0.662973
    135          1           0      -16.531688    0.119784    1.526334
    136          1           0      -16.907728    1.815207    1.626260
    137          1           0      -15.577946    1.201341    2.474236
    138          1           0      -15.694095    2.635378   -1.402784
    139          1           0      -14.578411    3.435563   -0.322205
    140          1           0      -16.305376    3.211852    0.219537
 ---------------------------------------------------------------------

 SCF Done:  E(RPBE1PBE) =  -3005.33413709     A.U. after   15 cycles

 Excitation energies and oscillator strengths:

 Excited State   1:      Singlet-A      1.8562 eV  667.93 nm  f=0.3421  <S**2>=0.000
     245 -> 248        0.18538
     246 -> 247        0.68812
 This state for optimization and/or second-order correction.
 Total Energy, E(TD-HF/TD-DFT) =  -3005.26592182
 Copying the excited state density for this state as the 1-particle RhoCI density.

 Excited State   2:      Singlet-A      2.2160 eV  559.51 nm  f=0.0739  <S**2>=0.000
     245 -> 247        0.63985
     246 -> 248       -0.28910

 Excited State   3:      Singlet-A      2.8344 eV  437.42 nm  f=0.0002  <S**2>=0.000
     243 -> 247        0.65527
     243 -> 248        0.11223
     243 -> 249       -0.15738
     243 -> 250       -0.12158
     244 -> 247        0.12064

 Excited State   4:      Singlet-A      2.8474 eV  435.43 nm  f=0.0005  <S**2>=0.000
     243 -> 247       -0.12027
     244 -> 247        0.65647
     244 -> 249        0.17229
     244 -> 250       -0.10466

 Excited State   5:      Singlet-A      3.1190 eV  397.51 nm  f=0.0041  <S**2>=0.000
     240 -> 247       -0.22623
     242 -> 247        0.65307

 The electronic state is 1-A.
 Alpha  occ. eigenvalues --  -46.92673 -19.25981 -19.25772 -19.20515 -19.19936
 Alpha  occ. eigenvalues --  -19.18882 -19.18438 -14.41997 -14.41787 -14.40202
 Alpha  occ. eigenvalues --  -14.39495 -10.37140 -10.36552 -10.32484 -10.31867
 Alpha  occ. eigenvalues --  -10.29997 -10.29863 -10.29081 -10.29022 -10.28986
 Alpha  occ. eigenvalues --  -10.28832 -10.28438 -10.28404 -10.28134 -10.26868
 Alpha  occ. eigenvalues --  -10.26846 -10.26837 -10.26409 -10.26310 -10.26219
 Alpha  occ. eigenvalues --  -10.26044 -10.25949 -10.25566 -10.25408 -10.25382
 Alpha  occ. eigenvalues --  -10.25137 -10.25010 -10.24979 -10.24599 -10.24478
 Alpha  occ. eigenvalues --  -10.24190 -10.24156 -10.23784 -10.23583 -10.23544
 Alpha  occ. eigenvalues --  -10.23474 -10.23455 -10.23415 -10.23056 -10.23048
 Alpha  occ. eigenvalues --  -10.22967 -10.22872 -10.22721 -10.22591 -10.22532
 Alpha  occ. eigenvalues --  -10.22353 -10.22302 -10.22234 -10.22146 -10.22065
 Alpha  occ. eigenvalues --  -10.21906 -10.21864 -10.21637 -10.21523 -10.21492
 Alpha  occ. eigenvalues --  -10.21406  -3.14782  -1.87619  -1.87176  -1.86989
 Alpha  occ. eigenvalues --   -1.12902  -1.10642  -1.04539  -1.04238  -1.02388
 Alpha  occ. eigenvalues --   -1.01653  -0.99902  -0.98039  -0.97331  -0.95976
 Alpha  occ. eigenvalues --   -0.87208  -0.84746  -0.84501  -0.83733  -0.83345
 Alpha  occ. eigenvalues --   -0.82780  -0.82562  -0.82302  -0.81504  -0.81227
 Alpha  occ. eigenvalues --   -0.80881  -0.80130  -0.78766  -0.78311  -0.78031
 Alpha  occ. eigenvalues --   -0.76846  -0.76605  -0.75834  -0.75114  -0.74627
 Alpha  occ. eigenvalues --   -0.73734  -0.72923  -0.72441  -0.71807  -0.70719
 Alpha  occ. eigenvalues --   -0.70165  -0.69613  -0.69600  -0.68562  -0.67980
 Alpha  occ. eigenvalues --   -0.67754  -0.67234  -0.66285  -0.64875  -0.64259
 Alpha  occ. eigenvalues --   -0.63012  -0.62387  -0.61784  -0.60899  -0.60281
 Alpha  occ. eigenvalues --   -0.59881  -0.59537  -0.59411  -0.59255  -0.58107
 Alpha  occ. eigenvalues --   -0.57904  -0.57526  -0.57145  -0.56643  -0.54804
 Alpha  occ. eigenvalues --   -0.54392  -0.54232  -0.53804  -0.53598  -0.52897
 Alpha  occ. eigenvalues --   -0.52286  -0.51606  -0.51240  -0.51008  -0.50614
 Alpha  occ. eigenvalues --   -0.50428  -0.49908  -0.49392  -0.49078  -0.48664
 Alpha  occ. eigenvalues --   -0.48264  -0.48115  -0.47794  -0.47414  -0.47127
 Alpha  occ. eigenvalues --   -0.46967  -0.46814  -0.46612  -0.46538  -0.46249
 Alpha  occ. eigenvalues --   -0.45997  -0.45852  -0.45782  -0.45608  -0.45379
 Alpha  occ. eigenvalues --   -0.45193  -0.44677  -0.44534  -0.44354  -0.44270
 Alpha  occ. eigenvalues --   -0.44123  -0.44053  -0.43775  -0.43747  -0.43425
 Alpha  occ. eigenvalues --   -0.43276  -0.43167  -0.42966  -0.42616  -0.42234
 Alpha  occ. eigenvalues --   -0.41991  -0.41889  -0.41486  -0.41399  -0.41134
 Alpha  occ. eigenvalues --   -0.41103  -0.40930  -0.40760  -0.40695  -0.40378
 Alpha  occ. eigenvalues --   -0.40164  -0.40111  -0.39928  -0.39814  -0.39357
 Alpha  occ. eigenvalues --   -0.39255  -0.39186  -0.39092  -0.38772  -0.38557
 Alpha  occ. eigenvalues --   -0.38416  -0.38045  -0.37943  -0.37885  -0.37873
 Alpha  occ. eigenvalues --   -0.37622  -0.37167  -0.37091  -0.36847  -0.36783
 Alpha  occ. eigenvalues --   -0.36610  -0.36396  -0.36213  -0.36074  -0.36016
 Alpha  occ. eigenvalues --   -0.35843  -0.35547  -0.35494  -0.35404  -0.35247
 Alpha  occ. eigenvalues --   -0.34725  -0.34381  -0.34197  -0.34050  -0.33884
 Alpha  occ. eigenvalues --   -0.33511  -0.33286  -0.33185  -0.32643  -0.32493
 Alpha  occ. eigenvalues --   -0.31951  -0.31807  -0.31390  -0.31278  -0.31105
 Alpha  occ. eigenvalues --   -0.30616  -0.30498  -0.30239  -0.29763  -0.29418
 Alpha  occ. eigenvalues --   -0.29298  -0.29240  -0.28261  -0.26900  -0.26075
 Alpha  occ. eigenvalues --   -0.26061  -0.25717  -0.25122  -0.25045  -0.21321
 Alpha  occ. eigenvalues --   -0.19143
 Alpha virt. eigenvalues --   -0.11407  -0.06168  -0.04242  -0.02745  -0.00579
 Alpha virt. eigenvalues --   -0.00243   0.00515   0.00647   0.01149   0.02502
 Alpha virt. eigenvalues --    0.03421   0.04281   0.05149   0.05451   0.05704

 Mulliken charges:
               1
     1  Mg   0.980244
     2  C   -0.031153
     3  C   -0.078130
     4  C   -0.067417
     5  C   -0.064831
     6  N   -0.432052
     7  C    0.067128
     8  C   -0.049759
     9  C   -0.124211
    10  C    0.067852
    11  C    0.015639
    12  C   -0.042400
    13  C   -0.039951
    14  C    0.262974
    15  O   -0.288760
    16  O   -0.358402
    17  N   -0.538602
    18  C    0.196457
    19  C   -0.125296
    20  C   -0.078182
    21  C    0.172422
    22  C    0.045066
    23  C    0.050267
    24  O   -0.237660
    25  C   -0.064632
    26  N   -0.293797
    27  C    0.087730
    28  C   -0.156949
    29  C   -0.067179
    30  C    0.060143
    31  C    0.010024
    32  C   -0.033151
    33  C   -0.088731
    34  N   -0.507782
    35  C    0.135378
    36  C   -0.197223
    37  C    0.028352
    38  C    0.141020
    39  C    0.052039
    40  C    0.116569
    41  O   -0.254755
    42  C   -0.103332
    43  C    0.269907
    44  O   -0.242522
    45  O   -0.334377
    46  C    0.117856
    47  C    0.256012
    48  C   -0.127872
    49  C   -0.228822
    50  C   -0.013045
    51  C    0.033151
    52  C   -0.044867
    53  C   -0.009131
    54  C   -0.194524
    55  C    0.007239
    56  C   -0.014284
    57  C   -0.087823
    58  C    0.036511
    59  C   -0.268603
    60  C   -0.037959
    61  C    0.058154
    62  C   -0.066005
    63  C   -0.021013
    64  C   -0.249871
    65  C   -0.027201
    66  C    0.025242
    67  H    0.004254
    68  H   -0.000377
    69  H   -0.000094
    70  H    0.058531
    71  H    0.039850
    72  H    0.052596
    73  H    0.049862
    74  H    0.047618
    75  H    0.072160
    76  H    0.037533
    77  H    0.075785
    78  H    0.080035
    79  H    0.066454
    80  H    0.031974
    81  H    0.050648
    82  H    0.053968
    83  H    0.075557
    84  H    0.051973
    85  H    0.053098
    86  H    0.049762
    87  H    0.051499
    88  H    0.048827
    89  H    0.032330
    90  H    0.061376
    91  H    0.045140
    92  H    0.038812
    93  H    0.047950
    94  H    0.035102
    95  H    0.055831
    96  H    0.060981
    97  H    0.052398
    98  H    0.073913
    99  H    0.059794
   100  H    0.061250
   101  H    0.062310
   102  H    0.035722
   103  H    0.057018
   104  H    0.019111
   105  H    0.036106
   106  H    0.062724
   107  H    0.058599
   108  H    0.017057
   109  H    0.040848
   110  H    0.021696
   111  H    0.024938
   112  H    0.022096
   113  H    0.033998
   114  H    0.031766
   115  H    0.038766
   116  H    0.034182
   117  H    0.018025
   118  H    0.037008
   119  H    0.034603
   120  H    0.029864
   121  H    0.039109
   122  H    0.031403
   123  H    0.026971
   124  H    0.050053
   125  H    0.011533
   126  H    0.026028
   127  H    0.043576
   128  H    0.031713
   129  H    0.026852
   130  H    0.025442
   131  H    0.037868
   132  H    0.020397
   133  H    0.013058
   134  H    0.038012
   135  H    0.035869
   136  H    0.020486
   137  H    0.030879
   138  H    0.029007
   139  H    0.035024
   140  H    0.032776
 Sum of Mulliken charges =  -0.00000

 Dipole moment (field-independent basis, Debye):
    X=              2.3347    Y=              4.5169    Z=              0.9754  Tot=              5.1773
 Quadrupole moment (field-independent basis, Debye-Ang):
   XX=           -362.2734   YY=           -434.6990   ZZ=           -397.1331
   XY=             20.0884   XZ=              1.3176   YZ=             40.1255

 Normal termination of Gaussian 16 at Sat Apr 30 23:01:39 2022.
