 Gaussian 16, Revision A.03,
 Gaussian 16:  ES64L-G16RevA.03 25-Dec-2016

 --------------------------------
 #p wB97XD/Def2SVP td=(nstates=5)
 --------------------------------

 ----------------------------------------------------
 step_951_chromophore_14 TDDFT with wB97XD functional
 ----------------------------------------------------
 Symbolic Z-matrix:
 Charge =  0 Multiplicity = 1

                         Standard orientation:
 ---------------------------------------------------------------------
 Center     Atomic      Atomic             Coordinates (Angstroms)
 Number     Number       Type             X           Y           Z
 ---------------------------------------------------------------------
      1         12           0        5.085681    0.814025   -0.382591
      2          6           0        4.907968   -2.453730    0.392339
      3          6           0        3.964394    0.269340   -3.532640
      4          6           0        4.426419    4.160752   -0.561963
      5          6           0        5.993069    1.506464    3.093190
      6          7           0        4.351783   -0.865870   -1.453383
      7          6           0        4.382308   -2.185454   -0.928510
      8          6           0        3.843090   -3.224245   -1.947161
      9          6           0        3.902940   -2.374873   -3.244556
     10          6           0        4.036684   -0.876390   -2.772658
     11          6           0        4.941596   -2.740779   -4.350752
     12          6           0        2.453640   -3.840400   -1.461466
     13          6           0        1.389246   -3.047782   -0.656142
     14          6           0       -0.057025   -3.513644   -0.826364
     15          8           0       -0.485735   -4.618108   -1.242690
     16          8           0       -0.880725   -2.474140   -0.425361
     17          7           0        4.387590    1.982615   -1.887728
     18          6           0        3.923604    1.607579   -3.118233
     19          6           0        3.503636    2.787471   -3.872135
     20          6           0        3.585207    3.946598   -3.009549
     21          6           0        4.228966    3.416820   -1.747589
     22          6           0        2.963422    2.663651   -5.232351
     23          6           0        3.243034    5.351776   -3.416800
     24          8           0        2.612055    5.717728   -4.401719
     25          6           0        3.647984    6.580006   -2.567356
     26          7           0        5.456131    2.716378    0.996461
     27          6           0        5.015919    3.884299    0.673378
     28          6           0        5.107535    4.863104    1.911140
     29          6           0        5.931901    4.067434    2.951541
     30          6           0        5.764351    2.697544    2.353683
     31          6           0        5.799743    6.213736    1.591126
     32          6           0        5.398213    4.158309    4.402659
     33          6           0        6.542798    4.208992    5.498618
     34          7           0        5.420322   -0.202643    1.388337
     35          6           0        5.866791    0.182526    2.689676
     36          6           0        6.078248   -1.060686    3.463756
     37          6           0        5.689896   -2.094604    2.623116
     38          6           0        5.272127   -1.538330    1.399146
     39          6           0        6.563289   -1.203668    4.803802
     40          6           0        5.500126   -3.510429    2.431816
     41          8           0        5.665633   -4.480626    3.207794
     42          6           0        5.012656   -3.820344    0.964402
     43          6           0        5.961393   -4.806465    0.313269
     44          8           0        5.518212   -5.731830   -0.318863
     45          8           0        7.255767   -4.481271    0.455366
     46          6           0        8.301834   -5.313149    0.029503
     47          6           0       -2.289282   -2.750084   -0.537333
     48          6           0       -3.090750   -1.496627   -0.618226
     49          6           0       -3.785634   -1.011936   -1.613558
     50          6           0       -3.784958   -1.744776   -2.935092
     51          6           0       -4.743019    0.168386   -1.387565
     52          6           0       -6.062115   -0.067909   -0.561908
     53          6           0       -6.130270    0.231879    0.912990
     54          6           0       -7.498836    0.761172    1.525956
     55          6           0       -7.294866    1.436553    2.876274
     56          6           0       -8.577172   -0.363852    1.592592
     57          6           0       -9.828452    0.051495    0.766481
     58          6           0      -10.741807   -1.150877    0.529658
     59          6           0      -12.177817   -0.757993    1.059740
     60          6           0      -12.308747   -1.226311    2.588103
     61          6           0      -13.300590   -1.383137    0.219060
     62          6           0      -13.655221   -0.363347   -0.886467
     63          6           0      -15.110966    0.254941   -0.669113
     64          6           0      -15.183588    1.476140    0.292748
     65          6           0      -16.082468    1.113499    1.511986
     66          6           0      -15.468217    2.806800   -0.350108
     67          1           0        3.668933   -0.022473   -4.541563
     68          1           0        3.871788    5.093555   -0.684318
     69          1           0        6.329832    1.583940    4.128872
     70          1           0        4.446082   -4.112115   -2.133164
     71          1           0        2.943172   -2.488652   -3.749208
     72          1           0        5.561199   -3.545916   -3.954132
     73          1           0        5.533256   -1.879437   -4.659555
     74          1           0        4.365941   -3.052806   -5.221749
     75          1           0        2.562925   -4.854550   -1.077296
     76          1           0        1.918797   -3.969532   -2.402889
     77          1           0        1.466872   -2.023801   -1.021192
     78          1           0        1.687856   -3.087113    0.391602
     79          1           0        1.910068    2.393047   -5.311843
     80          1           0        3.517118    1.942429   -5.832649
     81          1           0        3.075499    3.526490   -5.889655
     82          1           0        4.712992    6.497568   -2.349332
     83          1           0        3.057858    6.677146   -1.655498
     84          1           0        3.524201    7.515071   -3.112176
     85          1           0        4.140232    5.127334    2.337582
     86          1           0        6.927573    4.504638    2.881999
     87          1           0        6.106285    6.208164    0.545472
     88          1           0        6.559196    6.519170    2.310096
     89          1           0        5.003975    6.957432    1.642113
     90          1           0        4.740511    3.324538    4.649428
     91          1           0        5.019206    5.176103    4.495371
     92          1           0        7.553178    4.310966    5.104908
     93          1           0        6.514717    3.388322    6.215314
     94          1           0        6.423112    5.118254    6.088818
     95          1           0        7.013259   -2.170914    5.030509
     96          1           0        5.644681   -1.311353    5.381921
     97          1           0        7.258948   -0.463875    5.198464
     98          1           0        4.022445   -4.276497    0.959244
     99          1           0        8.854855   -5.722102    0.874210
    100          1           0        8.901981   -4.590458   -0.523763
    101          1           0        7.953975   -6.188256   -0.518879
    102          1           0       -2.571074   -3.145440    0.438177
    103          1           0       -2.584808   -3.489160   -1.281535
    104          1           0       -3.068035   -0.916115    0.304395
    105          1           0       -3.954541   -1.087752   -3.788205
    106          1           0       -4.494368   -2.564853   -3.044839
    107          1           0       -2.767396   -2.125574   -3.019163
    108          1           0       -5.036529    0.508692   -2.380628
    109          1           0       -4.149551    0.953155   -0.919560
    110          1           0       -6.159302   -1.136448   -0.755149
    111          1           0       -6.910017    0.309665   -1.133022
    112          1           0       -5.335642    0.962604    1.064965
    113          1           0       -5.824951   -0.697309    1.395104
    114          1           0       -7.767594    1.602068    0.887224
    115          1           0       -7.358364    2.524213    2.857846
    116          1           0       -6.382152    1.056658    3.335673
    117          1           0       -8.123162    1.081955    3.489504
    118          1           0       -9.020883   -0.543778    2.572262
    119          1           0       -8.189172   -1.297399    1.185072
    120          1           0       -9.438290    0.288399   -0.222935
    121          1           0      -10.255393    0.961326    1.188362
    122          1           0      -10.432220   -2.018119    1.113038
    123          1           0      -10.767378   -1.431367   -0.523400
    124          1           0      -12.224151    0.325794    1.165785
    125          1           0      -11.344634   -1.454291    3.041599
    126          1           0      -12.705921   -2.238550    2.663966
    127          1           0      -12.774037   -0.547526    3.303311
    128          1           0      -14.128750   -1.657763    0.873781
    129          1           0      -12.959282   -2.276289   -0.302052
    130          1           0      -13.697281   -0.815233   -1.877534
    131          1           0      -12.934362    0.454744   -0.892473
    132          1           0      -15.794920   -0.520903   -0.327191
    133          1           0      -15.531527    0.509190   -1.641654
    134          1           0      -14.165573    1.593602    0.662973
    135          1           0      -16.531688    0.119784    1.526334
    136          1           0      -16.907728    1.815207    1.626260
    137          1           0      -15.577946    1.201341    2.474236
    138          1           0      -15.694095    2.635378   -1.402784
    139          1           0      -14.578411    3.435563   -0.322205
    140          1           0      -16.305376    3.211852    0.219537
 ---------------------------------------------------------------------

 SCF Done:  E(RwB97XD) =  -3007.84322399     A.U. after   19 cycles

 Excitation energies and oscillator strengths:

 Excited State   1:      Singlet-A      1.6705 eV  742.22 nm  f=0.3484  <S**2>=0.000
     245 -> 248        0.19396
     246 -> 247        0.67951
     245 <- 248        0.11679
 This state for optimization and/or second-order correction.
 Total Energy, E(TD-HF/TD-DFT) =  -3007.78183597
 Copying the excited state density for this state as the 1-particle RhoCI density.

 Excited State   2:      Singlet-A      2.1821 eV  568.18 nm  f=0.0681  <S**2>=0.000
     245 -> 247        0.62048
     246 -> 248       -0.32376

 Excited State   3:      Singlet-A      3.3408 eV  371.12 nm  f=0.0002  <S**2>=0.000
     242 -> 247        0.52617
     242 -> 248        0.17798
     242 -> 249        0.32938
     242 -> 250       -0.24516

 Excited State   4:      Singlet-A      3.4197 eV  362.56 nm  f=0.4049  <S**2>=0.000
     240 -> 247        0.39029
     243 -> 247       -0.12938
     245 -> 247        0.23176
     246 -> 248        0.50520

 Excited State   5:      Singlet-A      3.4406 eV  360.35 nm  f=0.0029  <S**2>=0.000
     240 -> 247       -0.20214
     243 -> 249        0.13259
     243 -> 250        0.12816
     244 -> 247        0.53128
     244 -> 249       -0.25300
     244 -> 250       -0.18958

 The electronic state is 1-A.
 Alpha  occ. eigenvalues --  -46.95621 -19.30461 -19.30306 -19.25138 -19.24521
 Alpha  occ. eigenvalues --  -19.23956 -19.23009 -14.47072 -14.46934 -14.45338
 Alpha  occ. eigenvalues --  -14.44320 -10.43892 -10.43272 -10.39560 -10.38514
 Alpha  occ. eigenvalues --  -10.36522 -10.36143 -10.35617 -10.35520 -10.35402
 Alpha  occ. eigenvalues --  -10.35202 -10.34883 -10.34819 -10.34056 -10.33734
 Alpha  occ. eigenvalues --  -10.33043 -10.32973 -10.32955 -10.32621 -10.32589
 Alpha  occ. eigenvalues --  -10.32218 -10.32178 -10.31769 -10.31723 -10.31691
 Alpha  occ. eigenvalues --  -10.31689 -10.31563 -10.31262 -10.30884 -10.30858
 Alpha  occ. eigenvalues --  -10.30571 -10.30504 -10.30239 -10.29881 -10.29841
 Alpha  occ. eigenvalues --  -10.29796 -10.29780 -10.29757 -10.29719 -10.29714
 Alpha  occ. eigenvalues --  -10.29319 -10.29083 -10.29000 -10.28970 -10.28911
 Alpha  occ. eigenvalues --  -10.28718 -10.28657 -10.28594 -10.28518 -10.28434
 Alpha  occ. eigenvalues --  -10.28279 -10.28207 -10.28049 -10.27940 -10.27916
 Alpha  occ. eigenvalues --  -10.27833  -3.21601  -1.95186  -1.94742  -1.94553
 Alpha  occ. eigenvalues --   -1.20184  -1.17994  -1.12272  -1.11482  -1.09676
 Alpha  occ. eigenvalues --   -1.08976  -1.07329  -1.05339  -1.04687  -1.03573
 Alpha  occ. eigenvalues --   -0.94677  -0.92401  -0.92064  -0.91403  -0.90963
 Alpha  occ. eigenvalues --   -0.90415  -0.90225  -0.89815  -0.89104  -0.88890
 Alpha  occ. eigenvalues --   -0.88834  -0.87778  -0.86420  -0.85922  -0.85660
 Alpha  occ. eigenvalues --   -0.84465  -0.84229  -0.83483  -0.82883  -0.82279
 Alpha  occ. eigenvalues --   -0.81406  -0.80530  -0.80039  -0.79598  -0.78298
 Alpha  occ. eigenvalues --   -0.77835  -0.77305  -0.77193  -0.76249  -0.75620
 Alpha  occ. eigenvalues --   -0.75360  -0.74770  -0.73844  -0.72498  -0.71825
 Alpha  occ. eigenvalues --   -0.70646  -0.69916  -0.69409  -0.68512  -0.67786
 Alpha  occ. eigenvalues --   -0.67398  -0.67178  -0.66850  -0.66750  -0.65785
 Alpha  occ. eigenvalues --   -0.65279  -0.65013  -0.64751  -0.64262  -0.62239
 Alpha  occ. eigenvalues --   -0.61898  -0.61688  -0.61192  -0.60982  -0.60239
 Alpha  occ. eigenvalues --   -0.59723  -0.59080  -0.58700  -0.58482  -0.57975
 Alpha  occ. eigenvalues --   -0.57830  -0.57323  -0.56854  -0.56337  -0.56022
 Alpha  occ. eigenvalues --   -0.55677  -0.55379  -0.55178  -0.54809  -0.54514
 Alpha  occ. eigenvalues --   -0.54306  -0.54228  -0.53999  -0.53923  -0.53700
 Alpha  occ. eigenvalues --   -0.53539  -0.53249  -0.53121  -0.52834  -0.52675
 Alpha  occ. eigenvalues --   -0.52524  -0.52069  -0.51921  -0.51744  -0.51588
 Alpha  occ. eigenvalues --   -0.51536  -0.51389  -0.51107  -0.51045  -0.50717
 Alpha  occ. eigenvalues --   -0.50533  -0.50462  -0.50252  -0.49857  -0.49459
 Alpha  occ. eigenvalues --   -0.49261  -0.49142  -0.48834  -0.48696  -0.48404
 Alpha  occ. eigenvalues --   -0.48344  -0.48189  -0.48050  -0.47878  -0.47543
 Alpha  occ. eigenvalues --   -0.47354  -0.47325  -0.47014  -0.47000  -0.46545
 Alpha  occ. eigenvalues --   -0.46446  -0.46342  -0.46132  -0.45860  -0.45696
 Alpha  occ. eigenvalues --   -0.45503  -0.45223  -0.45204  -0.45134  -0.45008
 Alpha  occ. eigenvalues --   -0.44733  -0.44361  -0.44250  -0.43969  -0.43920
 Alpha  occ. eigenvalues --   -0.43776  -0.43474  -0.43254  -0.43233  -0.43026
 Alpha  occ. eigenvalues --   -0.42946  -0.42647  -0.42481  -0.42353  -0.42271
 Alpha  occ. eigenvalues --   -0.41796  -0.41479  -0.41192  -0.41064  -0.40790
 Alpha  occ. eigenvalues --   -0.40557  -0.40357  -0.40172  -0.39603  -0.39524
 Alpha  occ. eigenvalues --   -0.38876  -0.38840  -0.38430  -0.38251  -0.38152
 Alpha  occ. eigenvalues --   -0.37626  -0.37456  -0.37075  -0.36704  -0.36379
 Alpha  occ. eigenvalues --   -0.36360  -0.35988  -0.35109  -0.33473  -0.32848
 Alpha  occ. eigenvalues --   -0.32798  -0.32572  -0.32136  -0.31921  -0.26383
 Alpha  occ. eigenvalues --   -0.23319
 Alpha virt. eigenvalues --   -0.07209  -0.00848   0.02004   0.03743   0.05350
 Alpha virt. eigenvalues --    0.06655   0.07240   0.07373   0.08046   0.08858
 Alpha virt. eigenvalues --    0.09973   0.11041   0.11904   0.12189   0.12411

 Mulliken charges:
               1
     1  Mg   0.970172
     2  C   -0.038332
     3  C   -0.097244
     4  C   -0.073520
     5  C   -0.070059
     6  N   -0.404779
     7  C    0.036032
     8  C   -0.026961
     9  C   -0.100150
    10  C    0.058049
    11  C    0.026237
    12  C   -0.035020
    13  C   -0.018091
    14  C    0.254793
    15  O   -0.286292
    16  O   -0.357763
    17  N   -0.510999
    18  C    0.194070
    19  C   -0.114910
    20  C   -0.069647
    21  C    0.165895
    22  C    0.052755
    23  C    0.044097
    24  O   -0.231166
    25  C   -0.047075
    26  N   -0.256710
    27  C    0.071986
    28  C   -0.133078
    29  C   -0.038951
    30  C    0.040169
    31  C    0.021174
    32  C   -0.015646
    33  C   -0.075415
    34  N   -0.471033
    35  C    0.118181
    36  C   -0.184418
    37  C    0.031958
    38  C    0.125356
    39  C    0.056449
    40  C    0.094358
    41  O   -0.247546
    42  C   -0.055573
    43  C    0.244065
    44  O   -0.237067
    45  O   -0.332544
    46  C    0.132341
    47  C    0.271045
    48  C   -0.139906
    49  C   -0.213611
    50  C    0.000847
    51  C    0.048825
    52  C   -0.029242
    53  C    0.009445
    54  C   -0.166717
    55  C    0.018690
    56  C    0.004615
    57  C   -0.067630
    58  C    0.048217
    59  C   -0.230222
    60  C   -0.024976
    61  C    0.067732
    62  C   -0.043380
    63  C   -0.006437
    64  C   -0.219994
    65  C   -0.013125
    66  C    0.038494
    67  H   -0.002391
    68  H   -0.013116
    69  H   -0.010665
    70  H    0.047530
    71  H    0.029324
    72  H    0.047745
    73  H    0.043566
    74  H    0.042941
    75  H    0.067990
    76  H    0.026758
    77  H    0.065638
    78  H    0.072768
    79  H    0.064404
    80  H    0.027838
    81  H    0.048117
    82  H    0.046726
    83  H    0.072243
    84  H    0.051372
    85  H    0.043796
    86  H    0.035767
    87  H    0.043436
    88  H    0.044364
    89  H    0.026527
    90  H    0.053984
    91  H    0.034763
    92  H    0.032662
    93  H    0.042681
    94  H    0.029422
    95  H    0.052037
    96  H    0.054858
    97  H    0.048017
    98  H    0.063901
    99  H    0.055359
   100  H    0.057100
   101  H    0.058762
   102  H    0.030996
   103  H    0.051755
   104  H    0.015561
   105  H    0.030812
   106  H    0.057831
   107  H    0.051047
   108  H    0.010014
   109  H    0.032512
   110  H    0.009616
   111  H    0.016727
   112  H    0.011900
   113  H    0.024616
   114  H    0.019475
   115  H    0.034517
   116  H    0.028383
   117  H    0.010873
   118  H    0.023087
   119  H    0.025050
   120  H    0.017605
   121  H    0.030600
   122  H    0.020756
   123  H    0.019997
   124  H    0.029891
   125  H    0.002770
   126  H    0.019384
   127  H    0.039214
   128  H    0.021985
   129  H    0.019686
   130  H    0.019179
   131  H    0.025190
   132  H    0.009787
   133  H    0.004696
   134  H    0.020785
   135  H    0.029415
   136  H    0.013572
   137  H    0.025274
   138  H    0.022303
   139  H    0.030182
   140  H    0.025920
 Sum of Mulliken charges =  -0.00000

 Dipole moment (field-independent basis, Debye):
    X=              2.2286    Y=              5.0494    Z=              0.4764  Tot=              5.5398
 Quadrupole moment (field-independent basis, Debye-Ang):
   XX=           -362.9141   YY=           -433.4589   ZZ=           -396.6625
   XY=             21.7619   XZ=             -1.1772   YZ=             38.7077

 Normal termination of Gaussian 16 at Sat Apr 30 23:26:35 2022.
