 Gaussian 16, Revision A.03,
 Gaussian 16:  ES64L-G16RevA.03 25-Dec-2016

 --------------------
 #p ZINDO=(nstates=5)
 --------------------

 -----------------------------
 step_951_chromophore_14 ZINDO
 -----------------------------
 Symbolic Z-matrix:
 Charge =  0 Multiplicity = 1

                         Standard orientation:
 ---------------------------------------------------------------------
 Center     Atomic      Atomic             Coordinates (Angstroms)
 Number     Number       Type             X           Y           Z
 ---------------------------------------------------------------------
      1         12           0        5.085681    0.814025   -0.382591
      2          6           0        4.907968   -2.453730    0.392339
      3          6           0        3.964394    0.269340   -3.532640
      4          6           0        4.426419    4.160752   -0.561963
      5          6           0        5.993069    1.506464    3.093190
      6          7           0        4.351783   -0.865870   -1.453383
      7          6           0        4.382308   -2.185454   -0.928510
      8          6           0        3.843090   -3.224245   -1.947161
      9          6           0        3.902940   -2.374873   -3.244556
     10          6           0        4.036684   -0.876390   -2.772658
     11          6           0        4.941596   -2.740779   -4.350752
     12          6           0        2.453640   -3.840400   -1.461466
     13          6           0        1.389246   -3.047782   -0.656142
     14          6           0       -0.057025   -3.513644   -0.826364
     15          8           0       -0.485735   -4.618108   -1.242690
     16          8           0       -0.880725   -2.474140   -0.425361
     17          7           0        4.387590    1.982615   -1.887728
     18          6           0        3.923604    1.607579   -3.118233
     19          6           0        3.503636    2.787471   -3.872135
     20          6           0        3.585207    3.946598   -3.009549
     21          6           0        4.228966    3.416820   -1.747589
     22          6           0        2.963422    2.663651   -5.232351
     23          6           0        3.243034    5.351776   -3.416800
     24          8           0        2.612055    5.717728   -4.401719
     25          6           0        3.647984    6.580006   -2.567356
     26          7           0        5.456131    2.716378    0.996461
     27          6           0        5.015919    3.884299    0.673378
     28          6           0        5.107535    4.863104    1.911140
     29          6           0        5.931901    4.067434    2.951541
     30          6           0        5.764351    2.697544    2.353683
     31          6           0        5.799743    6.213736    1.591126
     32          6           0        5.398213    4.158309    4.402659
     33          6           0        6.542798    4.208992    5.498618
     34          7           0        5.420322   -0.202643    1.388337
     35          6           0        5.866791    0.182526    2.689676
     36          6           0        6.078248   -1.060686    3.463756
     37          6           0        5.689896   -2.094604    2.623116
     38          6           0        5.272127   -1.538330    1.399146
     39          6           0        6.563289   -1.203668    4.803802
     40          6           0        5.500126   -3.510429    2.431816
     41          8           0        5.665633   -4.480626    3.207794
     42          6           0        5.012656   -3.820344    0.964402
     43          6           0        5.961393   -4.806465    0.313269
     44          8           0        5.518212   -5.731830   -0.318863
     45          8           0        7.255767   -4.481271    0.455366
     46          6           0        8.301834   -5.313149    0.029503
     47          6           0       -2.289282   -2.750084   -0.537333
     48          6           0       -3.090750   -1.496627   -0.618226
     49          6           0       -3.785634   -1.011936   -1.613558
     50          6           0       -3.784958   -1.744776   -2.935092
     51          6           0       -4.743019    0.168386   -1.387565
     52          6           0       -6.062115   -0.067909   -0.561908
     53          6           0       -6.130270    0.231879    0.912990
     54          6           0       -7.498836    0.761172    1.525956
     55          6           0       -7.294866    1.436553    2.876274
     56          6           0       -8.577172   -0.363852    1.592592
     57          6           0       -9.828452    0.051495    0.766481
     58          6           0      -10.741807   -1.150877    0.529658
     59          6           0      -12.177817   -0.757993    1.059740
     60          6           0      -12.308747   -1.226311    2.588103
     61          6           0      -13.300590   -1.383137    0.219060
     62          6           0      -13.655221   -0.363347   -0.886467
     63          6           0      -15.110966    0.254941   -0.669113
     64          6           0      -15.183588    1.476140    0.292748
     65          6           0      -16.082468    1.113499    1.511986
     66          6           0      -15.468217    2.806800   -0.350108
     67          1           0        3.668933   -0.022473   -4.541563
     68          1           0        3.871788    5.093555   -0.684318
     69          1           0        6.329832    1.583940    4.128872
     70          1           0        4.446082   -4.112115   -2.133164
     71          1           0        2.943172   -2.488652   -3.749208
     72          1           0        5.561199   -3.545916   -3.954132
     73          1           0        5.533256   -1.879437   -4.659555
     74          1           0        4.365941   -3.052806   -5.221749
     75          1           0        2.562925   -4.854550   -1.077296
     76          1           0        1.918797   -3.969532   -2.402889
     77          1           0        1.466872   -2.023801   -1.021192
     78          1           0        1.687856   -3.087113    0.391602
     79          1           0        1.910068    2.393047   -5.311843
     80          1           0        3.517118    1.942429   -5.832649
     81          1           0        3.075499    3.526490   -5.889655
     82          1           0        4.712992    6.497568   -2.349332
     83          1           0        3.057858    6.677146   -1.655498
     84          1           0        3.524201    7.515071   -3.112176
     85          1           0        4.140232    5.127334    2.337582
     86          1           0        6.927573    4.504638    2.881999
     87          1           0        6.106285    6.208164    0.545472
     88          1           0        6.559196    6.519170    2.310096
     89          1           0        5.003975    6.957432    1.642113
     90          1           0        4.740511    3.324538    4.649428
     91          1           0        5.019206    5.176103    4.495371
     92          1           0        7.553178    4.310966    5.104908
     93          1           0        6.514717    3.388322    6.215314
     94          1           0        6.423112    5.118254    6.088818
     95          1           0        7.013259   -2.170914    5.030509
     96          1           0        5.644681   -1.311353    5.381921
     97          1           0        7.258948   -0.463875    5.198464
     98          1           0        4.022445   -4.276497    0.959244
     99          1           0        8.854855   -5.722102    0.874210
    100          1           0        8.901981   -4.590458   -0.523763
    101          1           0        7.953975   -6.188256   -0.518879
    102          1           0       -2.571074   -3.145440    0.438177
    103          1           0       -2.584808   -3.489160   -1.281535
    104          1           0       -3.068035   -0.916115    0.304395
    105          1           0       -3.954541   -1.087752   -3.788205
    106          1           0       -4.494368   -2.564853   -3.044839
    107          1           0       -2.767396   -2.125574   -3.019163
    108          1           0       -5.036529    0.508692   -2.380628
    109          1           0       -4.149551    0.953155   -0.919560
    110          1           0       -6.159302   -1.136448   -0.755149
    111          1           0       -6.910017    0.309665   -1.133022
    112          1           0       -5.335642    0.962604    1.064965
    113          1           0       -5.824951   -0.697309    1.395104
    114          1           0       -7.767594    1.602068    0.887224
    115          1           0       -7.358364    2.524213    2.857846
    116          1           0       -6.382152    1.056658    3.335673
    117          1           0       -8.123162    1.081955    3.489504
    118          1           0       -9.020883   -0.543778    2.572262
    119          1           0       -8.189172   -1.297399    1.185072
    120          1           0       -9.438290    0.288399   -0.222935
    121          1           0      -10.255393    0.961326    1.188362
    122          1           0      -10.432220   -2.018119    1.113038
    123          1           0      -10.767378   -1.431367   -0.523400
    124          1           0      -12.224151    0.325794    1.165785
    125          1           0      -11.344634   -1.454291    3.041599
    126          1           0      -12.705921   -2.238550    2.663966
    127          1           0      -12.774037   -0.547526    3.303311
    128          1           0      -14.128750   -1.657763    0.873781
    129          1           0      -12.959282   -2.276289   -0.302052
    130          1           0      -13.697281   -0.815233   -1.877534
    131          1           0      -12.934362    0.454744   -0.892473
    132          1           0      -15.794920   -0.520903   -0.327191
    133          1           0      -15.531527    0.509190   -1.641654
    134          1           0      -14.165573    1.593602    0.662973
    135          1           0      -16.531688    0.119784    1.526334
    136          1           0      -16.907728    1.815207    1.626260
    137          1           0      -15.577946    1.201341    2.474236
    138          1           0      -15.694095    2.635378   -1.402784
    139          1           0      -14.578411    3.435563   -0.322205
    140          1           0      -16.305376    3.211852    0.219537
 ---------------------------------------------------------------------

 SCF Done:  E(RZINDO/S) =  -474.200207017     A.U. after   19 cycles

 Excitation energies and oscillator strengths:

 Excited State   1:      Singlet-A      1.2706 eV  975.80 nm  f=0.5357  <S**2>=0.000
     175 ->178        -0.18468
     176 ->177         0.66319
 This state for optimization and/or second-order correction.
 Total Energy, E(CIS/TDA) =  -474.153513463
 Copying the excited state density for this state as the 1-particle RhoCI density.

 Excited State   2:      Singlet-A      1.9295 eV  642.57 nm  f=0.0117  <S**2>=0.000
     175 ->177         0.50422
     176 ->178         0.46848

 Excited State   3:      Singlet-A      2.8039 eV  442.19 nm  f=0.0005  <S**2>=0.000
     168 ->177         0.32580
     168 ->178        -0.18755
     168 ->179        -0.38181
     168 ->180         0.29923
     168 ->185         0.21426
     168 ->188         0.10620
     168 ->189        -0.11062

 Excited State   4:      Singlet-A      2.9711 eV  417.30 nm  f=0.9063  <S**2>=0.000
     170 ->177        -0.12261
     170 ->179        -0.16097
     170 ->180        -0.16965
     175 ->177        -0.36388
     176 ->178         0.42233
     176 ->179         0.22746

 Excited State   5:      Singlet-A      2.9914 eV  414.47 nm  f=0.2252  <S**2>=0.000
     170 ->177         0.25035
     170 ->179         0.32145
     170 ->180         0.34237
     170 ->185        -0.19367
     170 ->187         0.15823
     170 ->200        -0.13121
     175 ->177        -0.17633
     176 ->178         0.20419
     176 ->179         0.12824

 The electronic state is 1-A.
 Alpha  occ. eigenvalues --   -1.83240  -1.80329  -1.79031  -1.73991  -1.72725
 Alpha  occ. eigenvalues --   -1.69433  -1.65132  -1.60220  -1.59579  -1.57443
 Alpha  occ. eigenvalues --   -1.55014  -1.51113  -1.49816  -1.48893  -1.47150
 Alpha  occ. eigenvalues --   -1.45583  -1.42087  -1.39875  -1.38654  -1.38082
 Alpha  occ. eigenvalues --   -1.36198  -1.35573  -1.33771  -1.32659  -1.29311
 Alpha  occ. eigenvalues --   -1.27259  -1.26865  -1.22543  -1.21400  -1.17916
 Alpha  occ. eigenvalues --   -1.16240  -1.16122  -1.14712  -1.14672  -1.13245
 Alpha  occ. eigenvalues --   -1.12798  -1.10831  -1.09176  -1.05973  -1.03909
 Alpha  occ. eigenvalues --   -1.03035  -1.00762  -0.99388  -0.97239  -0.96610
 Alpha  occ. eigenvalues --   -0.95782  -0.95028  -0.94415  -0.93230  -0.92037
 Alpha  occ. eigenvalues --   -0.91778  -0.90902  -0.88760  -0.88691  -0.87112
 Alpha  occ. eigenvalues --   -0.86064  -0.84272  -0.83945  -0.82596  -0.81299
 Alpha  occ. eigenvalues --   -0.80337  -0.78488  -0.77943  -0.77566  -0.76748
 Alpha  occ. eigenvalues --   -0.76206  -0.75663  -0.74394  -0.74340  -0.73827
 Alpha  occ. eigenvalues --   -0.73340  -0.73173  -0.72417  -0.71942  -0.70940
 Alpha  occ. eigenvalues --   -0.70504  -0.70024  -0.68831  -0.67914  -0.67656
 Alpha  occ. eigenvalues --   -0.67425  -0.67189  -0.66574  -0.65986  -0.65498
 Alpha  occ. eigenvalues --   -0.65251  -0.64847  -0.64471  -0.64230  -0.64065
 Alpha  occ. eigenvalues --   -0.63346  -0.62832  -0.62682  -0.62196  -0.61908
 Alpha  occ. eigenvalues --   -0.61649  -0.61462  -0.61048  -0.60634  -0.60255
 Alpha  occ. eigenvalues --   -0.60096  -0.59346  -0.59330  -0.58748  -0.58165
 Alpha  occ. eigenvalues --   -0.57699  -0.57458  -0.56954  -0.56420  -0.56353
 Alpha  occ. eigenvalues --   -0.56014  -0.55606  -0.55140  -0.54824  -0.54422
 Alpha  occ. eigenvalues --   -0.54132  -0.53826  -0.53401  -0.53114  -0.52325
 Alpha  occ. eigenvalues --   -0.52240  -0.52044  -0.51644  -0.51636  -0.51503
 Alpha  occ. eigenvalues --   -0.51175  -0.50973  -0.50711  -0.50518  -0.50405
 Alpha  occ. eigenvalues --   -0.50090  -0.49952  -0.49732  -0.49699  -0.49088
 Alpha  occ. eigenvalues --   -0.48859  -0.48695  -0.48372  -0.48066  -0.47777
 Alpha  occ. eigenvalues --   -0.47591  -0.47267  -0.47247  -0.46925  -0.46862
 Alpha  occ. eigenvalues --   -0.46721  -0.46450  -0.46136  -0.45666  -0.45378
 Alpha  occ. eigenvalues --   -0.45255  -0.45023  -0.44388  -0.44153  -0.44027
 Alpha  occ. eigenvalues --   -0.43698  -0.43251  -0.43161  -0.42417  -0.42391
 Alpha  occ. eigenvalues --   -0.41436  -0.40995  -0.40951  -0.39476  -0.39242
 Alpha  occ. eigenvalues --   -0.38438  -0.37642  -0.35867  -0.35608  -0.34543
 Alpha  occ. eigenvalues --   -0.34194  -0.33096  -0.32848  -0.32505  -0.27315
 Alpha  occ. eigenvalues --   -0.22229
 Alpha virt. eigenvalues --   -0.08686  -0.03068  -0.01013   0.00754   0.01251
 Alpha virt. eigenvalues --    0.01400   0.01884   0.03053   0.04232   0.05250
 Alpha virt. eigenvalues --    0.05568   0.05931   0.06445   0.07117   0.07767

 Mulliken charges:
               1
     1  Mg   0.438368
     2  C   -0.052701
     3  C   -0.088614
     4  C   -0.073696
     5  C   -0.042295
     6  N   -0.302855
     7  C    0.095381
     8  C    0.011723
     9  C    0.006144
    10  C    0.164736
    11  C   -0.047707
    12  C   -0.033167
    13  C    0.014263
    14  C    0.466760
    15  O   -0.517956
    16  O   -0.261331
    17  N   -0.336180
    18  C    0.156416
    19  C    0.054196
    20  C   -0.039607
    21  C    0.108075
    22  C   -0.034627
    23  C    0.329844
    24  O   -0.512266
    25  C   -0.027915
    26  N   -0.250878
    27  C    0.163427
    28  C   -0.002378
    29  C    0.001376
    30  C    0.069298
    31  C   -0.059174
    32  C   -0.036144
    33  C   -0.067567
    34  N   -0.329419
    35  C    0.044176
    36  C    0.055790
    37  C   -0.063171
    38  C    0.120402
    39  C   -0.034843
    40  C    0.320718
    41  O   -0.548300
    42  C    0.052511
    43  C    0.497900
    44  O   -0.527333
    45  O   -0.258742
    46  C    0.081803
    47  C    0.106502
    48  C   -0.075597
    49  C   -0.002562
    50  C   -0.045258
    51  C   -0.021944
    52  C   -0.033807
    53  C   -0.028600
    54  C   -0.011498
    55  C   -0.059997
    56  C   -0.035195
    57  C   -0.040724
    58  C   -0.033143
    59  C   -0.017214
    60  C   -0.077900
    61  C   -0.027419
    62  C   -0.039124
    63  C   -0.042227
    64  C   -0.007985
    65  C   -0.059888
    66  C   -0.054495
    67  H    0.018340
    68  H    0.026794
    69  H    0.026750
    70  H    0.046036
    71  H    0.023190
    72  H    0.031336
    73  H    0.026492
    74  H    0.022952
    75  H    0.042711
    76  H    0.014485
    77  H    0.040391
    78  H    0.049199
    79  H    0.041483
    80  H    0.018008
    81  H    0.032540
    82  H    0.023551
    83  H    0.039832
    84  H    0.036074
    85  H    0.034925
    86  H    0.041812
    87  H    0.025132
    88  H    0.032136
    89  H    0.008972
    90  H    0.040104
    91  H    0.021519
    92  H    0.020626
    93  H    0.021616
    94  H    0.011384
    95  H    0.030108
    96  H    0.037640
    97  H    0.027278
    98  H    0.058717
    99  H    0.038938
   100  H    0.034689
   101  H    0.050925
   102  H    0.033019
   103  H    0.059109
   104  H    0.018677
   105  H    0.016871
   106  H    0.034372
   107  H    0.023574
   108  H    0.014068
   109  H    0.021762
   110  H    0.009102
   111  H    0.017493
   112  H    0.014783
   113  H    0.019849
   114  H    0.020800
   115  H    0.023117
   116  H    0.020687
   117  H    0.012732
   118  H    0.025365
   119  H    0.022552
   120  H    0.007861
   121  H    0.031118
   122  H    0.023935
   123  H    0.021068
   124  H    0.029000
   125  H    0.006652
   126  H    0.015817
   127  H    0.024298
   128  H    0.025527
   129  H    0.019819
   130  H    0.014756
   131  H    0.024696
   132  H    0.016827
   133  H    0.009907
   134  H    0.014320
   135  H    0.021221
   136  H    0.012603
   137  H    0.012951
   138  H    0.020683
   139  H    0.019595
   140  H    0.026362
 Sum of Mulliken charges =  -0.00000

 Dipole moment (field-independent basis, Debye):
    X=              1.9262    Y=              7.7208    Z=             -0.2165  Tot=              7.9604
 N-N= 4.302424736901D+03 E-N= 0.000000000000D+00  KE=-9.278564905100D+03
 Leave Link  601 at Sat Apr 30 23:38:41 2022, MaxMem=  6710886400 cpu:               0.9 elap:               0.1
 (Enter /sw/apps/gaussian-16.0/g16/l9999.exe)
 1\1\GINC-BP1-COMPUTE176\SP\RZINDO CIS\STO-3G\C55H74Mg1N4O6\OF15641\30-
 Apr-2022\0\\#p ZINDO=(nstates=5)\\step_951_chromophore_14 ZINDO\\0,1\M
 g,0,45.866,44.853,43.586\C,0,42.576,44.185,43.386\C,0,46.698,41.621,43
 .004\C,0,49.017,45.955,42.862\C,0,45.044,48.404,43.9\N,0,44.799,43.087
 ,43.086\C,0,43.38,43.024,43.072\C,0,42.869,41.598,42.736\C,0,44.171,40
 .789,42.978\C,0,45.34,41.847,42.988\C,0,44.249,39.811,44.192\C,0,42.16
 2,41.561,41.306\C,0,42.597,42.439,40.102\C,0,42.297,41.865,38.717\O,0,

 Normal termination of Gaussian 16 at Sat Apr 30 23:38:41 2022.
