 Gaussian 16, Revision A.03,
 Gaussian 16:  ES64L-G16RevA.03 25-Dec-2016

 ------------------------------
 #p blyp/Def2SVP td=(nstates=5)
 ------------------------------

 --------------------------------------------------
 step_851_chromophore_20 TDDFT with blyp functional
 --------------------------------------------------
 Symbolic Z-matrix:
 Charge =  0 Multiplicity = 1

                         Standard orientation:
 ---------------------------------------------------------------------
 Center     Atomic      Atomic             Coordinates (Angstroms)
 Number     Number       Type             X           Y           Z
 ---------------------------------------------------------------------
      1         12           0        4.392323    1.314624   -0.700141
      2          6           0        4.030282   -2.252336   -0.938200
      3          6           0        2.009155    1.650130   -3.128134
      4          6           0        4.144344    4.433682    0.373289
      5          6           0        6.915549    0.746638    1.739257
      6          7           0        3.080387   -0.185845   -1.817925
      7          6           0        3.136055   -1.607882   -1.810132
      8          6           0        2.170609   -2.193906   -2.817207
      9          6           0        1.762908   -0.910575   -3.666690
     10          6           0        2.312100    0.281098   -2.842820
     11          6           0        2.225654   -0.939847   -5.161482
     12          6           0        0.827054   -2.743678   -2.165790
     13          6           0       -0.323011   -3.426158   -3.009407
     14          6           0       -0.949539   -4.638784   -2.399765
     15          8           0       -0.747545   -5.830882   -2.751086
     16          8           0       -1.854906   -4.348057   -1.452099
     17          7           0        3.108811    2.872170   -1.314264
     18          6           0        2.281601    2.830441   -2.352758
     19          6           0        1.649776    4.102083   -2.381980
     20          6           0        2.267694    4.964722   -1.419512
     21          6           0        3.266507    4.135874   -0.750279
     22          6           0        0.431016    4.411839   -3.101538
     23          6           0        1.847253    6.506560   -1.147680
     24          8           0        1.180062    7.104862   -1.989588
     25          6           0        2.379998    7.225097   -0.000698
     26          7           0        5.348920    2.367250    0.943229
     27          6           0        5.160220    3.700403    1.018330
     28          6           0        5.914283    4.343739    2.122511
     29          6           0        6.935285    3.166220    2.534907
     30          6           0        6.431537    2.002632    1.662405
     31          6           0        6.560302    5.752279    1.775545
     32          6           0        6.907446    2.736954    4.039527
     33          6           0        8.309897    2.610924    4.735693
     34          7           0        5.345577   -0.382780    0.181930
     35          6           0        6.418936   -0.403772    1.116757
     36          6           0        6.858460   -1.755923    1.317163
     37          6           0        5.875708   -2.525485    0.552352
     38          6           0        5.004156   -1.638861   -0.078928
     39          6           0        7.890352   -2.318834    2.192611
     40          6           0        5.414836   -3.900381    0.330334
     41          8           0        5.686158   -4.939461    0.857733
     42          6           0        4.210909   -3.730795   -0.683643
     43          6           0        3.103894   -4.306649    0.055260
     44          8           0        2.537895   -3.796682    0.996041
     45          8           0        2.862783   -5.529155   -0.482028
     46          6           0        1.759713   -6.272559   -0.012310
     47          6           0       -2.867220   -5.346596   -1.099420
     48          6           0       -4.148461   -4.665188   -0.656556
     49          6           0       -4.914788   -5.187828    0.310843
     50          6           0       -4.804073   -6.561730    1.007207
     51          6           0       -6.004219   -4.390707    0.866330
     52          6           0       -5.657034   -3.290623    1.767697
     53          6           0       -6.475854   -3.216335    3.135642
     54          6           0       -6.431170   -1.800472    3.670956
     55          6           0       -6.790905   -1.904641    5.164999
     56          6           0       -7.633422   -1.030989    3.069142
     57          6           0       -7.264233    0.425367    2.741069
     58          6           0       -6.816787    0.730696    1.272385
     59          6           0       -8.082333    1.262476    0.445415
     60          6           0       -7.880357    1.076022   -1.064604
     61          6           0       -8.312748    2.777454    0.708840
     62          6           0       -9.790016    3.183607    0.946896
     63          6           0      -10.237372    4.469254    0.261581
     64          6           0      -11.294970    4.212868   -0.862556
     65          6           0      -10.863987    4.670926   -2.264841
     66          6           0      -12.605572    4.969382   -0.483268
     67          1           0        1.216558    1.861539   -3.849639
     68          1           0        3.854687    5.402830    0.785165
     69          1           0        7.842696    0.649333    2.308561
     70          1           0        2.502156   -3.030755   -3.431883
     71          1           0        0.699191   -0.685896   -3.578293
     72          1           0        1.324265   -0.852467   -5.768561
     73          1           0        2.673278   -1.883085   -5.473667
     74          1           0        2.865367   -0.106375   -5.451385
     75          1           0        0.209437   -2.111644   -1.527611
     76          1           0        0.989960   -3.520498   -1.418364
     77          1           0       -0.083000   -3.596784   -4.059352
     78          1           0       -1.184748   -2.759965   -3.019642
     79          1           0       -0.393485    4.627862   -2.421204
     80          1           0        0.111089    3.621255   -3.779914
     81          1           0        0.579214    5.357170   -3.622778
     82          1           0        3.342054    7.730912   -0.080655
     83          1           0        2.304830    6.626674    0.906356
     84          1           0        1.656648    8.006559    0.231597
     85          1           0        5.220922    4.527309    2.943387
     86          1           0        7.928696    3.395357    2.149369
     87          1           0        7.602318    5.685646    1.461303
     88          1           0        6.478690    6.468230    2.593655
     89          1           0        5.978184    6.122884    0.932925
     90          1           0        6.499705    1.728851    4.104321
     91          1           0        6.330404    3.529002    4.516574
     92          1           0        8.466815    3.341959    5.528535
     93          1           0        9.123104    2.679252    4.012107
     94          1           0        8.293343    1.638865    5.227872
     95          1           0        8.702242   -1.603991    2.325583
     96          1           0        8.349011   -3.215366    1.776755
     97          1           0        7.463035   -2.528966    3.173567
     98          1           0        4.418485   -4.295761   -1.592358
     99          1           0        1.050784   -5.563543    0.416843
    100          1           0        1.878849   -7.146665    0.628619
    101          1           0        1.272534   -6.605646   -0.928735
    102          1           0       -2.428227   -6.010014   -0.354397
    103          1           0       -3.085121   -5.944277   -1.985187
    104          1           0       -4.423832   -3.684441   -1.044034
    105          1           0       -4.710728   -6.357647    2.073876
    106          1           0       -3.829581   -7.022236    0.846622
    107          1           0       -5.537147   -7.267769    0.616816
    108          1           0       -6.767278   -4.994436    1.356568
    109          1           0       -6.538370   -3.994736    0.002740
    110          1           0       -5.911891   -2.311877    1.361775
    111          1           0       -4.573141   -3.167604    1.778362
    112          1           0       -5.939933   -3.825085    3.864072
    113          1           0       -7.509224   -3.541708    3.017808
    114          1           0       -5.480435   -1.304028    3.476518
    115          1           0       -7.491051   -2.708815    5.389875
    116          1           0       -7.249256   -0.964044    5.469769
    117          1           0       -5.871079   -2.033631    5.737026
    118          1           0       -8.558259   -1.030401    3.645638
    119          1           0       -7.826039   -1.452441    2.082420
    120          1           0       -6.499563    0.792905    3.425463
    121          1           0       -8.166834    0.989953    2.973682
    122          1           0       -6.273851   -0.104383    0.829792
    123          1           0       -6.009355    1.462388    1.276197
    124          1           0       -9.003461    0.747421    0.718828
    125          1           0       -8.643034    1.430969   -1.757779
    126          1           0       -7.735851    0.015305   -1.269764
    127          1           0       -7.004729    1.672459   -1.320193
    128          1           0       -7.893038    3.400794   -0.080396
    129          1           0       -7.657363    3.024977    1.544575
    130          1           0       -9.915178    3.249648    2.028031
    131          1           0      -10.271889    2.243545    0.678358
    132          1           0       -9.401399    4.955281   -0.240297
    133          1           0      -10.575972    5.212820    0.983339
    134          1           0      -11.573719    3.163183   -0.952430
    135          1           0      -11.712902    4.750055   -2.943274
    136          1           0      -10.270857    3.869445   -2.704482
    137          1           0      -10.389686    5.652435   -2.242742
    138          1           0      -13.437284    4.425667   -0.930116
    139          1           0      -12.516423    6.019131   -0.762058
    140          1           0      -12.686142    4.884063    0.600613
 ---------------------------------------------------------------------

 SCF Done:  E(RB-LYP) =  -3007.35368665     A.U. after   21 cycles

 Excitation energies and oscillator strengths:

 Excited State   1:      Singlet-A      1.8062 eV  686.43 nm  f=0.2768  <S**2>=0.000
     245 -> 248        0.17306
     246 -> 247        0.68182
     246 <- 247       -0.14599
 This state for optimization and/or second-order correction.
 Total Energy, E(TD-HF/TD-DFT) =  -3007.28730934
 Copying the excited state density for this state as the 1-particle RhoCI density.

 Excited State   2:      Singlet-A      1.8502 eV  670.11 nm  f=0.0063  <S**2>=0.000
     244 -> 247        0.68741
     245 -> 247        0.12050

 Excited State   3:      Singlet-A      2.0024 eV  619.17 nm  f=0.0897  <S**2>=0.000
     241 -> 247       -0.10363
     243 -> 247       -0.11241
     244 -> 247       -0.12817
     245 -> 247        0.62798
     246 -> 248       -0.20783
     246 -> 249        0.10490

 Excited State   4:      Singlet-A      2.0768 eV  597.00 nm  f=0.0045  <S**2>=0.000
     241 -> 247       -0.16951
     242 -> 247        0.20854
     243 -> 247        0.64312

 Excited State   5:      Singlet-A      2.1994 eV  563.71 nm  f=0.0001  <S**2>=0.000
     240 -> 247        0.68996
     242 -> 247        0.14450

 The electronic state is 1-A.
 Alpha  occ. eigenvalues --  -46.28087 -18.82159 -18.81079 -18.76534 -18.75873
 Alpha  occ. eigenvalues --  -18.75687 -18.75667 -14.03468 -14.03276 -14.00893
 Alpha  occ. eigenvalues --  -14.00447 -10.03966 -10.02584 -10.01019  -9.99274
 Alpha  occ. eigenvalues --   -9.98156  -9.97385  -9.97211  -9.96785  -9.96580
 Alpha  occ. eigenvalues --   -9.95828  -9.95796  -9.95652  -9.95527  -9.95384
 Alpha  occ. eigenvalues --   -9.94673  -9.94467  -9.94163  -9.94127  -9.93872
 Alpha  occ. eigenvalues --   -9.93744  -9.93699  -9.93590  -9.93430  -9.93414
 Alpha  occ. eigenvalues --   -9.93101  -9.93012  -9.92996  -9.92844  -9.92771
 Alpha  occ. eigenvalues --   -9.92759  -9.92704  -9.92580  -9.92518  -9.92431
 Alpha  occ. eigenvalues --   -9.92249  -9.92232  -9.92215  -9.91950  -9.91686
 Alpha  occ. eigenvalues --   -9.91659  -9.91650  -9.91358  -9.91152  -9.91063
 Alpha  occ. eigenvalues --   -9.91032  -9.91002  -9.90972  -9.90816  -9.90782
 Alpha  occ. eigenvalues --   -9.90725  -9.90692  -9.90665  -9.90650  -9.90461
 Alpha  occ. eigenvalues --   -9.90455  -2.92468  -1.72895  -1.72379  -1.72151
 Alpha  occ. eigenvalues --   -0.98098  -0.97960  -0.92520  -0.92017  -0.89954
 Alpha  occ. eigenvalues --   -0.87849  -0.87067  -0.85904  -0.85218  -0.84302
 Alpha  occ. eigenvalues --   -0.75129  -0.74637  -0.73230  -0.72538  -0.72458
 Alpha  occ. eigenvalues --   -0.72244  -0.71813  -0.70736  -0.70594  -0.70080
 Alpha  occ. eigenvalues --   -0.69602  -0.69561  -0.68249  -0.67696  -0.67610
 Alpha  occ. eigenvalues --   -0.66768  -0.66533  -0.65765  -0.65085  -0.64823
 Alpha  occ. eigenvalues --   -0.64275  -0.62668  -0.62174  -0.61377  -0.60802
 Alpha  occ. eigenvalues --   -0.60113  -0.59962  -0.59806  -0.59265  -0.58682
 Alpha  occ. eigenvalues --   -0.58497  -0.57837  -0.57108  -0.56103  -0.54722
 Alpha  occ. eigenvalues --   -0.53682  -0.53301  -0.52504  -0.52426  -0.51883
 Alpha  occ. eigenvalues --   -0.51461  -0.51235  -0.51057  -0.50373  -0.50315
 Alpha  occ. eigenvalues --   -0.49824  -0.49299  -0.48633  -0.48258  -0.46467
 Alpha  occ. eigenvalues --   -0.46405  -0.45860  -0.45632  -0.45259  -0.44777
 Alpha  occ. eigenvalues --   -0.44165  -0.43694  -0.43265  -0.42815  -0.42469
 Alpha  occ. eigenvalues --   -0.42346  -0.41689  -0.41457  -0.41272  -0.41187
 Alpha  occ. eigenvalues --   -0.40552  -0.40490  -0.40433  -0.40304  -0.40208
 Alpha  occ. eigenvalues --   -0.40125  -0.40013  -0.39939  -0.39414  -0.39124
 Alpha  occ. eigenvalues --   -0.39024  -0.38594  -0.38498  -0.38270  -0.38141
 Alpha  occ. eigenvalues --   -0.38046  -0.37982  -0.37725  -0.37502  -0.37375
 Alpha  occ. eigenvalues --   -0.37013  -0.36855  -0.36752  -0.36585  -0.36472
 Alpha  occ. eigenvalues --   -0.36433  -0.36288  -0.36123  -0.36032  -0.35619
 Alpha  occ. eigenvalues --   -0.35519  -0.35408  -0.35094  -0.35005  -0.34883
 Alpha  occ. eigenvalues --   -0.34555  -0.34488  -0.34192  -0.34122  -0.34032
 Alpha  occ. eigenvalues --   -0.33913  -0.33623  -0.33470  -0.33302  -0.33110
 Alpha  occ. eigenvalues --   -0.32997  -0.32842  -0.32492  -0.32231  -0.32101
 Alpha  occ. eigenvalues --   -0.31906  -0.31781  -0.31533  -0.31442  -0.31321
 Alpha  occ. eigenvalues --   -0.31299  -0.31100  -0.30838  -0.30748  -0.30655
 Alpha  occ. eigenvalues --   -0.30587  -0.30330  -0.30220  -0.30092  -0.29857
 Alpha  occ. eigenvalues --   -0.29690  -0.29627  -0.29212  -0.28974  -0.28544
 Alpha  occ. eigenvalues --   -0.28509  -0.28277  -0.28007  -0.27919  -0.27793
 Alpha  occ. eigenvalues --   -0.27711  -0.27612  -0.27045  -0.26838  -0.26412
 Alpha  occ. eigenvalues --   -0.26022  -0.25920  -0.25377  -0.25248  -0.24930
 Alpha  occ. eigenvalues --   -0.24890  -0.24294  -0.24151  -0.23915  -0.23899
 Alpha  occ. eigenvalues --   -0.23137  -0.22120  -0.21325  -0.21044  -0.20031
 Alpha  occ. eigenvalues --   -0.19823  -0.19663  -0.19426  -0.18657  -0.17384
 Alpha  occ. eigenvalues --   -0.16242
 Alpha virt. eigenvalues --   -0.11946  -0.07131  -0.06259  -0.04613  -0.03673
 Alpha virt. eigenvalues --   -0.03053  -0.02082  -0.01696  -0.01075  -0.00895
 Alpha virt. eigenvalues --    0.01174   0.01825   0.02531   0.02726   0.03172

 Mulliken charges:
               1
     1  Mg   0.661843
     2  C    0.043681
     3  C   -0.031186
     4  C   -0.059867
     5  C   -0.094074
     6  N   -0.220673
     7  C   -0.043004
     8  C    0.086475
     9  C    0.012866
    10  C    0.018107
    11  C    0.132372
    12  C    0.049285
    13  C    0.158177
    14  C    0.049213
    15  O   -0.238733
    16  O   -0.265184
    17  N   -0.296564
    18  C    0.089764
    19  C   -0.140044
    20  C    0.010047
    21  C    0.075537
    22  C    0.184116
    23  C   -0.044213
    24  O   -0.165721
    25  C    0.139574
    26  N   -0.199594
    27  C    0.065000
    28  C   -0.005614
    29  C    0.064148
    30  C   -0.017233
    31  C    0.120868
    32  C    0.088814
    33  C    0.051357
    34  N   -0.245675
    35  C    0.144749
    36  C   -0.159125
    37  C    0.039385
    38  C    0.075040
    39  C    0.180098
    40  C   -0.053555
    41  O   -0.102328
    42  C    0.056179
    43  C    0.094129
    44  O   -0.173049
    45  O   -0.244909
    46  C    0.195598
    47  C    0.309662
    48  C   -0.059021
    49  C   -0.185583
    50  C    0.160685
    51  C    0.176985
    52  C    0.083380
    53  C    0.113971
    54  C   -0.087737
    55  C    0.122358
    56  C    0.105136
    57  C    0.062050
    58  C    0.106017
    59  C   -0.077898
    60  C    0.097860
    61  C    0.085423
    62  C    0.085974
    63  C    0.141651
    64  C   -0.104131
    65  C    0.102392
    66  C    0.089706
    67  H   -0.061294
    68  H   -0.069437
    69  H   -0.067511
    70  H   -0.021010
    71  H   -0.014414
    72  H   -0.012079
    73  H   -0.002917
    74  H   -0.000921
    75  H   -0.018904
    76  H   -0.006518
    77  H   -0.007810
    78  H   -0.017997
    79  H   -0.000525
    80  H   -0.028243
    81  H    0.008833
    82  H    0.036924
    83  H    0.009592
    84  H   -0.012873
    85  H   -0.011370
    86  H   -0.027449
    87  H   -0.011073
    88  H   -0.007999
    89  H   -0.013682
    90  H    0.003594
    91  H   -0.015187
    92  H   -0.006400
    93  H   -0.003077
    94  H   -0.007100
    95  H   -0.021962
    96  H    0.008722
    97  H    0.015816
    98  H   -0.013271
    99  H    0.002383
   100  H    0.019675
   101  H    0.009603
   102  H    0.006010
   103  H    0.004582
   104  H   -0.039623
   105  H    0.001314
   106  H   -0.041255
   107  H    0.022932
   108  H   -0.049305
   109  H   -0.035329
   110  H   -0.060452
   111  H   -0.034884
   112  H   -0.036460
   113  H   -0.022664
   114  H   -0.028931
   115  H   -0.013114
   116  H   -0.025462
   117  H   -0.020415
   118  H   -0.029586
   119  H   -0.041676
   120  H   -0.037378
   121  H   -0.038454
   122  H   -0.041936
   123  H   -0.040205
   124  H   -0.030393
   125  H   -0.017538
   126  H   -0.019396
   127  H   -0.020552
   128  H   -0.043362
   129  H   -0.044277
   130  H   -0.032606
   131  H   -0.029967
   132  H   -0.039347
   133  H   -0.034688
   134  H   -0.033941
   135  H   -0.027288
   136  H   -0.016906
   137  H   -0.008662
   138  H   -0.015605
   139  H   -0.010205
   140  H   -0.022053
 Sum of Mulliken charges =  -0.00000

 Dipole moment (field-independent basis, Debye):
    X=             -0.1333    Y=              3.6967    Z=              1.0694  Tot=              3.8506
 Quadrupole moment (field-independent basis, Debye-Ang):
   XX=           -372.3950   YY=           -434.6044   ZZ=           -397.7083
   XY=             46.4560   XZ=              2.6933   YZ=             18.0954

 Normal termination of Gaussian 16 at Sat Apr 30 18:59:46 2022.
