 Gaussian 16, Revision A.03,
 Gaussian 16:  ES64L-G16RevA.03 25-Dec-2016

 -----------------------------------
 #p cam-b3lyp/Def2SVP td=(nstates=5)
 -----------------------------------

 -------------------------------------------------------
 step_851_chromophore_20 TDDFT with cam-b3lyp functional
 -------------------------------------------------------
 Symbolic Z-matrix:
 Charge =  0 Multiplicity = 1

                         Standard orientation:
 ---------------------------------------------------------------------
 Center     Atomic      Atomic             Coordinates (Angstroms)
 Number     Number       Type             X           Y           Z
 ---------------------------------------------------------------------
      1         12           0        4.392323    1.314624   -0.700141
      2          6           0        4.030282   -2.252336   -0.938200
      3          6           0        2.009155    1.650130   -3.128134
      4          6           0        4.144344    4.433682    0.373289
      5          6           0        6.915549    0.746638    1.739257
      6          7           0        3.080387   -0.185845   -1.817925
      7          6           0        3.136055   -1.607882   -1.810132
      8          6           0        2.170609   -2.193906   -2.817207
      9          6           0        1.762908   -0.910575   -3.666690
     10          6           0        2.312100    0.281098   -2.842820
     11          6           0        2.225654   -0.939847   -5.161482
     12          6           0        0.827054   -2.743678   -2.165790
     13          6           0       -0.323011   -3.426158   -3.009407
     14          6           0       -0.949539   -4.638784   -2.399765
     15          8           0       -0.747545   -5.830882   -2.751086
     16          8           0       -1.854906   -4.348057   -1.452099
     17          7           0        3.108811    2.872170   -1.314264
     18          6           0        2.281601    2.830441   -2.352758
     19          6           0        1.649776    4.102083   -2.381980
     20          6           0        2.267694    4.964722   -1.419512
     21          6           0        3.266507    4.135874   -0.750279
     22          6           0        0.431016    4.411839   -3.101538
     23          6           0        1.847253    6.506560   -1.147680
     24          8           0        1.180062    7.104862   -1.989588
     25          6           0        2.379998    7.225097   -0.000698
     26          7           0        5.348920    2.367250    0.943229
     27          6           0        5.160220    3.700403    1.018330
     28          6           0        5.914283    4.343739    2.122511
     29          6           0        6.935285    3.166220    2.534907
     30          6           0        6.431537    2.002632    1.662405
     31          6           0        6.560302    5.752279    1.775545
     32          6           0        6.907446    2.736954    4.039527
     33          6           0        8.309897    2.610924    4.735693
     34          7           0        5.345577   -0.382780    0.181930
     35          6           0        6.418936   -0.403772    1.116757
     36          6           0        6.858460   -1.755923    1.317163
     37          6           0        5.875708   -2.525485    0.552352
     38          6           0        5.004156   -1.638861   -0.078928
     39          6           0        7.890352   -2.318834    2.192611
     40          6           0        5.414836   -3.900381    0.330334
     41          8           0        5.686158   -4.939461    0.857733
     42          6           0        4.210909   -3.730795   -0.683643
     43          6           0        3.103894   -4.306649    0.055260
     44          8           0        2.537895   -3.796682    0.996041
     45          8           0        2.862783   -5.529155   -0.482028
     46          6           0        1.759713   -6.272559   -0.012310
     47          6           0       -2.867220   -5.346596   -1.099420
     48          6           0       -4.148461   -4.665188   -0.656556
     49          6           0       -4.914788   -5.187828    0.310843
     50          6           0       -4.804073   -6.561730    1.007207
     51          6           0       -6.004219   -4.390707    0.866330
     52          6           0       -5.657034   -3.290623    1.767697
     53          6           0       -6.475854   -3.216335    3.135642
     54          6           0       -6.431170   -1.800472    3.670956
     55          6           0       -6.790905   -1.904641    5.164999
     56          6           0       -7.633422   -1.030989    3.069142
     57          6           0       -7.264233    0.425367    2.741069
     58          6           0       -6.816787    0.730696    1.272385
     59          6           0       -8.082333    1.262476    0.445415
     60          6           0       -7.880357    1.076022   -1.064604
     61          6           0       -8.312748    2.777454    0.708840
     62          6           0       -9.790016    3.183607    0.946896
     63          6           0      -10.237372    4.469254    0.261581
     64          6           0      -11.294970    4.212868   -0.862556
     65          6           0      -10.863987    4.670926   -2.264841
     66          6           0      -12.605572    4.969382   -0.483268
     67          1           0        1.216558    1.861539   -3.849639
     68          1           0        3.854687    5.402830    0.785165
     69          1           0        7.842696    0.649333    2.308561
     70          1           0        2.502156   -3.030755   -3.431883
     71          1           0        0.699191   -0.685896   -3.578293
     72          1           0        1.324265   -0.852467   -5.768561
     73          1           0        2.673278   -1.883085   -5.473667
     74          1           0        2.865367   -0.106375   -5.451385
     75          1           0        0.209437   -2.111644   -1.527611
     76          1           0        0.989960   -3.520498   -1.418364
     77          1           0       -0.083000   -3.596784   -4.059352
     78          1           0       -1.184748   -2.759965   -3.019642
     79          1           0       -0.393485    4.627862   -2.421204
     80          1           0        0.111089    3.621255   -3.779914
     81          1           0        0.579214    5.357170   -3.622778
     82          1           0        3.342054    7.730912   -0.080655
     83          1           0        2.304830    6.626674    0.906356
     84          1           0        1.656648    8.006559    0.231597
     85          1           0        5.220922    4.527309    2.943387
     86          1           0        7.928696    3.395357    2.149369
     87          1           0        7.602318    5.685646    1.461303
     88          1           0        6.478690    6.468230    2.593655
     89          1           0        5.978184    6.122884    0.932925
     90          1           0        6.499705    1.728851    4.104321
     91          1           0        6.330404    3.529002    4.516574
     92          1           0        8.466815    3.341959    5.528535
     93          1           0        9.123104    2.679252    4.012107
     94          1           0        8.293343    1.638865    5.227872
     95          1           0        8.702242   -1.603991    2.325583
     96          1           0        8.349011   -3.215366    1.776755
     97          1           0        7.463035   -2.528966    3.173567
     98          1           0        4.418485   -4.295761   -1.592358
     99          1           0        1.050784   -5.563543    0.416843
    100          1           0        1.878849   -7.146665    0.628619
    101          1           0        1.272534   -6.605646   -0.928735
    102          1           0       -2.428227   -6.010014   -0.354397
    103          1           0       -3.085121   -5.944277   -1.985187
    104          1           0       -4.423832   -3.684441   -1.044034
    105          1           0       -4.710728   -6.357647    2.073876
    106          1           0       -3.829581   -7.022236    0.846622
    107          1           0       -5.537147   -7.267769    0.616816
    108          1           0       -6.767278   -4.994436    1.356568
    109          1           0       -6.538370   -3.994736    0.002740
    110          1           0       -5.911891   -2.311877    1.361775
    111          1           0       -4.573141   -3.167604    1.778362
    112          1           0       -5.939933   -3.825085    3.864072
    113          1           0       -7.509224   -3.541708    3.017808
    114          1           0       -5.480435   -1.304028    3.476518
    115          1           0       -7.491051   -2.708815    5.389875
    116          1           0       -7.249256   -0.964044    5.469769
    117          1           0       -5.871079   -2.033631    5.737026
    118          1           0       -8.558259   -1.030401    3.645638
    119          1           0       -7.826039   -1.452441    2.082420
    120          1           0       -6.499563    0.792905    3.425463
    121          1           0       -8.166834    0.989953    2.973682
    122          1           0       -6.273851   -0.104383    0.829792
    123          1           0       -6.009355    1.462388    1.276197
    124          1           0       -9.003461    0.747421    0.718828
    125          1           0       -8.643034    1.430969   -1.757779
    126          1           0       -7.735851    0.015305   -1.269764
    127          1           0       -7.004729    1.672459   -1.320193
    128          1           0       -7.893038    3.400794   -0.080396
    129          1           0       -7.657363    3.024977    1.544575
    130          1           0       -9.915178    3.249648    2.028031
    131          1           0      -10.271889    2.243545    0.678358
    132          1           0       -9.401399    4.955281   -0.240297
    133          1           0      -10.575972    5.212820    0.983339
    134          1           0      -11.573719    3.163183   -0.952430
    135          1           0      -11.712902    4.750055   -2.943274
    136          1           0      -10.270857    3.869445   -2.704482
    137          1           0      -10.389686    5.652435   -2.242742
    138          1           0      -13.437284    4.425667   -0.930116
    139          1           0      -12.516423    6.019131   -0.762058
    140          1           0      -12.686142    4.884063    0.600613
 ---------------------------------------------------------------------

 SCF Done:  E(RCAM-B3LYP) =  -3007.14877718     A.U. after   18 cycles

 Excitation energies and oscillator strengths:

 Excited State   1:      Singlet-A      1.7254 eV  718.60 nm  f=0.3605  <S**2>=0.000
     245 -> 248        0.17008
     246 -> 247        0.68679
     245 <- 248        0.10300
 This state for optimization and/or second-order correction.
 Total Energy, E(TD-HF/TD-DFT) =  -3007.08537156
 Copying the excited state density for this state as the 1-particle RhoCI density.

 Excited State   2:      Singlet-A      2.1838 eV  567.74 nm  f=0.1504  <S**2>=0.000
     245 -> 247        0.65148
     246 -> 248       -0.25269

 Excited State   3:      Singlet-A      3.0186 eV  410.73 nm  f=0.0006  <S**2>=0.000
     243 -> 247        0.60107
     244 -> 247        0.34086

 Excited State   4:      Singlet-A      3.1347 eV  395.52 nm  f=0.0138  <S**2>=0.000
     243 -> 247       -0.33633
     244 -> 247        0.60089

 Excited State   5:      Singlet-A      3.5435 eV  349.89 nm  f=0.0036  <S**2>=0.000
     241 -> 247        0.61328
     241 -> 249       -0.20625
     241 -> 251        0.21310

 The electronic state is 1-A.
 Alpha  occ. eigenvalues --  -46.89775 -19.25038 -19.23890 -19.20096 -19.18814
 Alpha  occ. eigenvalues --  -19.18605 -19.18500 -14.42381 -14.42225 -14.39525
 Alpha  occ. eigenvalues --  -14.38603 -10.39265 -10.37832 -10.36588 -10.34257
 Alpha  occ. eigenvalues --  -10.32241 -10.32223 -10.31609 -10.31573 -10.31532
 Alpha  occ. eigenvalues --  -10.30332 -10.29806 -10.29725 -10.29644 -10.29102
 Alpha  occ. eigenvalues --  -10.28824 -10.28539 -10.28086 -10.28052 -10.28033
 Alpha  occ. eigenvalues --  -10.27999 -10.27863 -10.27808 -10.27739 -10.27688
 Alpha  occ. eigenvalues --  -10.27653 -10.27365 -10.26983 -10.26875 -10.26827
 Alpha  occ. eigenvalues --  -10.26763 -10.26658 -10.26600 -10.26332 -10.26262
 Alpha  occ. eigenvalues --  -10.26048 -10.25901 -10.25808 -10.25562 -10.25425
 Alpha  occ. eigenvalues --  -10.25421 -10.25311 -10.25172 -10.25036 -10.24713
 Alpha  occ. eigenvalues --  -10.24711 -10.24683 -10.24627 -10.24466 -10.24362
 Alpha  occ. eigenvalues --  -10.24309 -10.24301 -10.24296 -10.24265 -10.24156
 Alpha  occ. eigenvalues --  -10.24074  -3.18045  -1.92952  -1.92517  -1.92312
 Alpha  occ. eigenvalues --   -1.16525  -1.16425  -1.10733  -1.10639  -1.07832
 Alpha  occ. eigenvalues --   -1.05668  -1.04857  -1.03862  -1.02664  -1.01706
 Alpha  occ. eigenvalues --   -0.92060  -0.91580  -0.90052  -0.89282  -0.89224
 Alpha  occ. eigenvalues --   -0.88988  -0.88417  -0.87349  -0.87303  -0.86620
 Alpha  occ. eigenvalues --   -0.86289  -0.85861  -0.84648  -0.84004  -0.83730
 Alpha  occ. eigenvalues --   -0.83037  -0.82629  -0.81595  -0.80959  -0.80722
 Alpha  occ. eigenvalues --   -0.80026  -0.78230  -0.77723  -0.77053  -0.76179
 Alpha  occ. eigenvalues --   -0.75395  -0.75375  -0.75172  -0.74561  -0.73904
 Alpha  occ. eigenvalues --   -0.73554  -0.72780  -0.72083  -0.70978  -0.69319
 Alpha  occ. eigenvalues --   -0.68204  -0.67764  -0.66947  -0.66876  -0.65966
 Alpha  occ. eigenvalues --   -0.65764  -0.65427  -0.65148  -0.64463  -0.64300
 Alpha  occ. eigenvalues --   -0.63620  -0.63244  -0.62542  -0.61882  -0.60309
 Alpha  occ. eigenvalues --   -0.59916  -0.59348  -0.59048  -0.58742  -0.58226
 Alpha  occ. eigenvalues --   -0.57747  -0.57130  -0.56625  -0.55820  -0.55629
 Alpha  occ. eigenvalues --   -0.55397  -0.54740  -0.54459  -0.54059  -0.53997
 Alpha  occ. eigenvalues --   -0.53591  -0.53262  -0.53173  -0.53097  -0.52948
 Alpha  occ. eigenvalues --   -0.52739  -0.52621  -0.52480  -0.52232  -0.51918
 Alpha  occ. eigenvalues --   -0.51459  -0.50981  -0.50843  -0.50770  -0.50718
 Alpha  occ. eigenvalues --   -0.50551  -0.50343  -0.50329  -0.50121  -0.50048
 Alpha  occ. eigenvalues --   -0.49561  -0.49477  -0.49029  -0.48864  -0.48724
 Alpha  occ. eigenvalues --   -0.48669  -0.48456  -0.48324  -0.48058  -0.47921
 Alpha  occ. eigenvalues --   -0.47558  -0.47482  -0.47166  -0.46960  -0.46793
 Alpha  occ. eigenvalues --   -0.46462  -0.46264  -0.46092  -0.45889  -0.45871
 Alpha  occ. eigenvalues --   -0.45663  -0.45472  -0.45364  -0.45064  -0.44953
 Alpha  occ. eigenvalues --   -0.44829  -0.44453  -0.44026  -0.43819  -0.43721
 Alpha  occ. eigenvalues --   -0.43712  -0.43292  -0.43086  -0.42968  -0.42930
 Alpha  occ. eigenvalues --   -0.42784  -0.42668  -0.42531  -0.42283  -0.42007
 Alpha  occ. eigenvalues --   -0.41950  -0.41662  -0.41555  -0.41307  -0.41194
 Alpha  occ. eigenvalues --   -0.40752  -0.40679  -0.40416  -0.40284  -0.39863
 Alpha  occ. eigenvalues --   -0.39719  -0.39485  -0.39290  -0.38938  -0.38858
 Alpha  occ. eigenvalues --   -0.38823  -0.38474  -0.37885  -0.37603  -0.37296
 Alpha  occ. eigenvalues --   -0.36967  -0.36692  -0.36455  -0.36189  -0.36004
 Alpha  occ. eigenvalues --   -0.35539  -0.35478  -0.34798  -0.34326  -0.34081
 Alpha  occ. eigenvalues --   -0.33674  -0.33332  -0.33068  -0.31994  -0.31204
 Alpha  occ. eigenvalues --   -0.30107  -0.30051  -0.29379  -0.28505  -0.24119
 Alpha  occ. eigenvalues --   -0.21689
 Alpha virt. eigenvalues --   -0.09196  -0.01793   0.00209   0.01822   0.02483
 Alpha virt. eigenvalues --    0.04102   0.05053   0.05468   0.06215   0.07059
 Alpha virt. eigenvalues --    0.07834   0.08515   0.08656   0.09114   0.09420

 Mulliken charges:
               1
     1  Mg   0.791757
     2  C    0.015821
     3  C   -0.047511
     4  C   -0.081184
     5  C   -0.096823
     6  N   -0.288306
     7  C   -0.008160
     8  C    0.037286
     9  C   -0.046680
    10  C    0.047930
    11  C    0.072091
    12  C    0.004792
    13  C    0.089326
    14  C    0.129277
    15  O   -0.280408
    16  O   -0.328599
    17  N   -0.386662
    18  C    0.106925
    19  C   -0.145793
    20  C   -0.052680
    21  C    0.110559
    22  C    0.119014
    23  C    0.037808
    24  O   -0.202267
    25  C    0.045883
    26  N   -0.268452
    27  C    0.089419
    28  C   -0.067037
    29  C    0.010813
    30  C   -0.000412
    31  C    0.067077
    32  C    0.030286
    33  C   -0.008275
    34  N   -0.333583
    35  C    0.140318
    36  C   -0.157322
    37  C   -0.039277
    38  C    0.114398
    39  C    0.127960
    40  C    0.042048
    41  O   -0.143446
    42  C   -0.023181
    43  C    0.182402
    44  O   -0.209722
    45  O   -0.306974
    46  C    0.158202
    47  C    0.276583
    48  C   -0.081877
    49  C   -0.206268
    50  C    0.099477
    51  C    0.107779
    52  C    0.030690
    53  C    0.059349
    54  C   -0.147394
    55  C    0.063242
    56  C    0.050441
    57  C    0.010357
    58  C    0.050242
    59  C   -0.136321
    60  C    0.046091
    61  C    0.034950
    62  C    0.031757
    63  C    0.078930
    64  C   -0.161320
    65  C    0.044697
    66  C    0.031714
    67  H   -0.028376
    68  H   -0.035736
    69  H   -0.031961
    70  H    0.014504
    71  H    0.018998
    72  H    0.012017
    73  H    0.022313
    74  H    0.025541
    75  H    0.014410
    76  H    0.018214
    77  H    0.024553
    78  H    0.015927
    79  H    0.029085
    80  H   -0.000666
    81  H    0.040614
    82  H    0.066483
    83  H    0.037917
    84  H    0.024302
    85  H    0.023509
    86  H    0.006315
    87  H    0.014994
    88  H    0.017523
    89  H    0.008922
    90  H    0.034577
    91  H    0.011458
    92  H    0.017245
    93  H    0.017904
    94  H    0.016231
    95  H    0.000606
    96  H    0.033826
    97  H    0.040652
    98  H    0.031963
    99  H    0.025756
   100  H    0.041663
   101  H    0.031879
   102  H    0.032099
   103  H    0.035553
   104  H   -0.003395
   105  H    0.025184
   106  H   -0.014993
   107  H    0.047333
   108  H   -0.015981
   109  H   -0.002837
   110  H   -0.035691
   111  H   -0.002450
   112  H   -0.006633
   113  H    0.005617
   114  H    0.003789
   115  H    0.011746
   116  H   -0.001435
   117  H    0.005403
   118  H    0.001113
   119  H   -0.014321
   120  H   -0.008981
   121  H   -0.010956
   122  H   -0.013365
   123  H   -0.009870
   124  H   -0.001157
   125  H    0.005113
   126  H    0.004428
   127  H    0.001484
   128  H   -0.015377
   129  H   -0.014227
   130  H   -0.003656
   131  H   -0.003035
   132  H   -0.009788
   133  H   -0.003385
   134  H   -0.002966
   135  H   -0.001444
   136  H    0.005474
   137  H    0.013569
   138  H    0.008731
   139  H    0.012479
   140  H    0.001910
 Sum of Mulliken charges =  -0.00000

 Dipole moment (field-independent basis, Debye):
    X=             -0.6235    Y=              4.7780    Z=              0.7001  Tot=              4.8691
 Quadrupole moment (field-independent basis, Debye-Ang):
   XX=           -375.0739   YY=           -430.5226   ZZ=           -396.1843
   XY=             50.8834   XZ=              2.5023   YZ=             18.8571

 Normal termination of Gaussian 16 at Sat Apr 30 18:06:02 2022.
