 Gaussian 16, Revision A.03,
 Gaussian 16:  ES64L-G16RevA.03 25-Dec-2016

 ---------------------------------
 #p PBE1PBE/Def2SVP td=(nstates=5)
 ---------------------------------

 -----------------------------------------------------
 step_851_chromophore_20 TDDFT with PBE1PBE functional
 -----------------------------------------------------
 Symbolic Z-matrix:
 Charge =  0 Multiplicity = 1

                         Standard orientation:
 ---------------------------------------------------------------------
 Center     Atomic      Atomic             Coordinates (Angstroms)
 Number     Number       Type             X           Y           Z
 ---------------------------------------------------------------------
      1         12           0        4.392323    1.314624   -0.700141
      2          6           0        4.030282   -2.252336   -0.938200
      3          6           0        2.009155    1.650130   -3.128134
      4          6           0        4.144344    4.433682    0.373289
      5          6           0        6.915549    0.746638    1.739257
      6          7           0        3.080387   -0.185845   -1.817925
      7          6           0        3.136055   -1.607882   -1.810132
      8          6           0        2.170609   -2.193906   -2.817207
      9          6           0        1.762908   -0.910575   -3.666690
     10          6           0        2.312100    0.281098   -2.842820
     11          6           0        2.225654   -0.939847   -5.161482
     12          6           0        0.827054   -2.743678   -2.165790
     13          6           0       -0.323011   -3.426158   -3.009407
     14          6           0       -0.949539   -4.638784   -2.399765
     15          8           0       -0.747545   -5.830882   -2.751086
     16          8           0       -1.854906   -4.348057   -1.452099
     17          7           0        3.108811    2.872170   -1.314264
     18          6           0        2.281601    2.830441   -2.352758
     19          6           0        1.649776    4.102083   -2.381980
     20          6           0        2.267694    4.964722   -1.419512
     21          6           0        3.266507    4.135874   -0.750279
     22          6           0        0.431016    4.411839   -3.101538
     23          6           0        1.847253    6.506560   -1.147680
     24          8           0        1.180062    7.104862   -1.989588
     25          6           0        2.379998    7.225097   -0.000698
     26          7           0        5.348920    2.367250    0.943229
     27          6           0        5.160220    3.700403    1.018330
     28          6           0        5.914283    4.343739    2.122511
     29          6           0        6.935285    3.166220    2.534907
     30          6           0        6.431537    2.002632    1.662405
     31          6           0        6.560302    5.752279    1.775545
     32          6           0        6.907446    2.736954    4.039527
     33          6           0        8.309897    2.610924    4.735693
     34          7           0        5.345577   -0.382780    0.181930
     35          6           0        6.418936   -0.403772    1.116757
     36          6           0        6.858460   -1.755923    1.317163
     37          6           0        5.875708   -2.525485    0.552352
     38          6           0        5.004156   -1.638861   -0.078928
     39          6           0        7.890352   -2.318834    2.192611
     40          6           0        5.414836   -3.900381    0.330334
     41          8           0        5.686158   -4.939461    0.857733
     42          6           0        4.210909   -3.730795   -0.683643
     43          6           0        3.103894   -4.306649    0.055260
     44          8           0        2.537895   -3.796682    0.996041
     45          8           0        2.862783   -5.529155   -0.482028
     46          6           0        1.759713   -6.272559   -0.012310
     47          6           0       -2.867220   -5.346596   -1.099420
     48          6           0       -4.148461   -4.665188   -0.656556
     49          6           0       -4.914788   -5.187828    0.310843
     50          6           0       -4.804073   -6.561730    1.007207
     51          6           0       -6.004219   -4.390707    0.866330
     52          6           0       -5.657034   -3.290623    1.767697
     53          6           0       -6.475854   -3.216335    3.135642
     54          6           0       -6.431170   -1.800472    3.670956
     55          6           0       -6.790905   -1.904641    5.164999
     56          6           0       -7.633422   -1.030989    3.069142
     57          6           0       -7.264233    0.425367    2.741069
     58          6           0       -6.816787    0.730696    1.272385
     59          6           0       -8.082333    1.262476    0.445415
     60          6           0       -7.880357    1.076022   -1.064604
     61          6           0       -8.312748    2.777454    0.708840
     62          6           0       -9.790016    3.183607    0.946896
     63          6           0      -10.237372    4.469254    0.261581
     64          6           0      -11.294970    4.212868   -0.862556
     65          6           0      -10.863987    4.670926   -2.264841
     66          6           0      -12.605572    4.969382   -0.483268
     67          1           0        1.216558    1.861539   -3.849639
     68          1           0        3.854687    5.402830    0.785165
     69          1           0        7.842696    0.649333    2.308561
     70          1           0        2.502156   -3.030755   -3.431883
     71          1           0        0.699191   -0.685896   -3.578293
     72          1           0        1.324265   -0.852467   -5.768561
     73          1           0        2.673278   -1.883085   -5.473667
     74          1           0        2.865367   -0.106375   -5.451385
     75          1           0        0.209437   -2.111644   -1.527611
     76          1           0        0.989960   -3.520498   -1.418364
     77          1           0       -0.083000   -3.596784   -4.059352
     78          1           0       -1.184748   -2.759965   -3.019642
     79          1           0       -0.393485    4.627862   -2.421204
     80          1           0        0.111089    3.621255   -3.779914
     81          1           0        0.579214    5.357170   -3.622778
     82          1           0        3.342054    7.730912   -0.080655
     83          1           0        2.304830    6.626674    0.906356
     84          1           0        1.656648    8.006559    0.231597
     85          1           0        5.220922    4.527309    2.943387
     86          1           0        7.928696    3.395357    2.149369
     87          1           0        7.602318    5.685646    1.461303
     88          1           0        6.478690    6.468230    2.593655
     89          1           0        5.978184    6.122884    0.932925
     90          1           0        6.499705    1.728851    4.104321
     91          1           0        6.330404    3.529002    4.516574
     92          1           0        8.466815    3.341959    5.528535
     93          1           0        9.123104    2.679252    4.012107
     94          1           0        8.293343    1.638865    5.227872
     95          1           0        8.702242   -1.603991    2.325583
     96          1           0        8.349011   -3.215366    1.776755
     97          1           0        7.463035   -2.528966    3.173567
     98          1           0        4.418485   -4.295761   -1.592358
     99          1           0        1.050784   -5.563543    0.416843
    100          1           0        1.878849   -7.146665    0.628619
    101          1           0        1.272534   -6.605646   -0.928735
    102          1           0       -2.428227   -6.010014   -0.354397
    103          1           0       -3.085121   -5.944277   -1.985187
    104          1           0       -4.423832   -3.684441   -1.044034
    105          1           0       -4.710728   -6.357647    2.073876
    106          1           0       -3.829581   -7.022236    0.846622
    107          1           0       -5.537147   -7.267769    0.616816
    108          1           0       -6.767278   -4.994436    1.356568
    109          1           0       -6.538370   -3.994736    0.002740
    110          1           0       -5.911891   -2.311877    1.361775
    111          1           0       -4.573141   -3.167604    1.778362
    112          1           0       -5.939933   -3.825085    3.864072
    113          1           0       -7.509224   -3.541708    3.017808
    114          1           0       -5.480435   -1.304028    3.476518
    115          1           0       -7.491051   -2.708815    5.389875
    116          1           0       -7.249256   -0.964044    5.469769
    117          1           0       -5.871079   -2.033631    5.737026
    118          1           0       -8.558259   -1.030401    3.645638
    119          1           0       -7.826039   -1.452441    2.082420
    120          1           0       -6.499563    0.792905    3.425463
    121          1           0       -8.166834    0.989953    2.973682
    122          1           0       -6.273851   -0.104383    0.829792
    123          1           0       -6.009355    1.462388    1.276197
    124          1           0       -9.003461    0.747421    0.718828
    125          1           0       -8.643034    1.430969   -1.757779
    126          1           0       -7.735851    0.015305   -1.269764
    127          1           0       -7.004729    1.672459   -1.320193
    128          1           0       -7.893038    3.400794   -0.080396
    129          1           0       -7.657363    3.024977    1.544575
    130          1           0       -9.915178    3.249648    2.028031
    131          1           0      -10.271889    2.243545    0.678358
    132          1           0       -9.401399    4.955281   -0.240297
    133          1           0      -10.575972    5.212820    0.983339
    134          1           0      -11.573719    3.163183   -0.952430
    135          1           0      -11.712902    4.750055   -2.943274
    136          1           0      -10.270857    3.869445   -2.704482
    137          1           0      -10.389686    5.652435   -2.242742
    138          1           0      -13.437284    4.425667   -0.930116
    139          1           0      -12.516423    6.019131   -0.762058
    140          1           0      -12.686142    4.884063    0.600613
 ---------------------------------------------------------------------

 SCF Done:  E(RPBE1PBE) =  -3005.33839962     A.U. after   16 cycles

 Excitation energies and oscillator strengths:

 Excited State   1:      Singlet-A      1.8601 eV  666.56 nm  f=0.3461  <S**2>=0.000
     245 -> 248       -0.16615
     246 -> 247        0.69241
     246 <- 247       -0.10636
 This state for optimization and/or second-order correction.
 Total Energy, E(TD-HF/TD-DFT) =  -3005.27004323
 Copying the excited state density for this state as the 1-particle RhoCI density.

 Excited State   2:      Singlet-A      2.2013 eV  563.22 nm  f=0.1383  <S**2>=0.000
     245 -> 247        0.65759
     246 -> 248        0.23496

 Excited State   3:      Singlet-A      2.7045 eV  458.44 nm  f=0.0006  <S**2>=0.000
     243 -> 247        0.33252
     244 -> 247        0.61696

 Excited State   4:      Singlet-A      2.7754 eV  446.72 nm  f=0.0173  <S**2>=0.000
     243 -> 247        0.61073
     244 -> 247       -0.33104

 Excited State   5:      Singlet-A      2.9118 eV  425.80 nm  f=0.0010  <S**2>=0.000
     242 -> 247        0.68553
     242 -> 249       -0.10563

 The electronic state is 1-A.
 Alpha  occ. eigenvalues --  -46.93114 -19.25728 -19.24616 -19.20096 -19.19155
 Alpha  occ. eigenvalues --  -19.18959 -19.18912 -14.41927 -14.41655 -14.39021
 Alpha  occ. eigenvalues --  -14.38431 -10.36324 -10.34900 -10.33543 -10.31628
 Alpha  occ. eigenvalues --  -10.29750 -10.29634 -10.29449 -10.29040 -10.28959
 Alpha  occ. eigenvalues --  -10.27732 -10.27620 -10.27564 -10.27198 -10.26910
 Alpha  occ. eigenvalues --  -10.26571 -10.26310 -10.25998 -10.25942 -10.25936
 Alpha  occ. eigenvalues --  -10.25462 -10.25404 -10.25366 -10.25364 -10.25288
 Alpha  occ. eigenvalues --  -10.25258 -10.25109 -10.24476 -10.24473 -10.24357
 Alpha  occ. eigenvalues --  -10.24302 -10.24154 -10.24066 -10.24025 -10.23755
 Alpha  occ. eigenvalues --  -10.23653 -10.23464 -10.23302 -10.23191 -10.23075
 Alpha  occ. eigenvalues --  -10.23015 -10.23012 -10.22618 -10.22391 -10.22362
 Alpha  occ. eigenvalues --  -10.22270 -10.22253 -10.22228 -10.22148 -10.22048
 Alpha  occ. eigenvalues --  -10.21874 -10.21707 -10.21701 -10.21672 -10.21662
 Alpha  occ. eigenvalues --  -10.21448  -3.14974  -1.87820  -1.87363  -1.87162
 Alpha  occ. eigenvalues --   -1.11375  -1.11281  -1.05628  -1.05263  -1.02723
 Alpha  occ. eigenvalues --   -1.00539  -0.99433  -0.98300  -0.97403  -0.96427
 Alpha  occ. eigenvalues --   -0.86542  -0.85728  -0.84157  -0.83597  -0.83396
 Alpha  occ. eigenvalues --   -0.83101  -0.82693  -0.81526  -0.81433  -0.80876
 Alpha  occ. eigenvalues --   -0.80545  -0.80182  -0.78815  -0.78143  -0.78093
 Alpha  occ. eigenvalues --   -0.77181  -0.76810  -0.75974  -0.75226  -0.74965
 Alpha  occ. eigenvalues --   -0.74224  -0.72566  -0.72068  -0.71276  -0.70339
 Alpha  occ. eigenvalues --   -0.69795  -0.69689  -0.69243  -0.68673  -0.68069
 Alpha  occ. eigenvalues --   -0.67895  -0.67264  -0.66459  -0.65289  -0.63694
 Alpha  occ. eigenvalues --   -0.62660  -0.62026  -0.61330  -0.61099  -0.60396
 Alpha  occ. eigenvalues --   -0.59915  -0.59889  -0.59702  -0.58875  -0.58550
 Alpha  occ. eigenvalues --   -0.58089  -0.57416  -0.56718  -0.56502  -0.54734
 Alpha  occ. eigenvalues --   -0.54333  -0.53841  -0.53679  -0.53276  -0.52897
 Alpha  occ. eigenvalues --   -0.52213  -0.51495  -0.51114  -0.50508  -0.50199
 Alpha  occ. eigenvalues --   -0.49933  -0.49275  -0.48993  -0.48620  -0.48365
 Alpha  occ. eigenvalues --   -0.48233  -0.47647  -0.47570  -0.47519  -0.47378
 Alpha  occ. eigenvalues --   -0.47326  -0.47100  -0.47085  -0.46793  -0.46580
 Alpha  occ. eigenvalues --   -0.45935  -0.45532  -0.45462  -0.45372  -0.45133
 Alpha  occ. eigenvalues --   -0.45093  -0.45018  -0.44906  -0.44695  -0.44459
 Alpha  occ. eigenvalues --   -0.44223  -0.44068  -0.43714  -0.43459  -0.43388
 Alpha  occ. eigenvalues --   -0.43286  -0.43086  -0.42895  -0.42700  -0.42590
 Alpha  occ. eigenvalues --   -0.42162  -0.42128  -0.41754  -0.41592  -0.41545
 Alpha  occ. eigenvalues --   -0.41161  -0.40787  -0.40778  -0.40670  -0.40463
 Alpha  occ. eigenvalues --   -0.40344  -0.40244  -0.40051  -0.39815  -0.39715
 Alpha  occ. eigenvalues --   -0.39562  -0.39084  -0.38862  -0.38672  -0.38494
 Alpha  occ. eigenvalues --   -0.38462  -0.38015  -0.37878  -0.37784  -0.37634
 Alpha  occ. eigenvalues --   -0.37527  -0.37448  -0.37184  -0.37133  -0.36901
 Alpha  occ. eigenvalues --   -0.36660  -0.36576  -0.36433  -0.36111  -0.36076
 Alpha  occ. eigenvalues --   -0.35623  -0.35489  -0.35265  -0.34993  -0.34704
 Alpha  occ. eigenvalues --   -0.34583  -0.34256  -0.34071  -0.33940  -0.33774
 Alpha  occ. eigenvalues --   -0.33530  -0.33261  -0.32700  -0.32452  -0.32292
 Alpha  occ. eigenvalues --   -0.32065  -0.31548  -0.31458  -0.31144  -0.30902
 Alpha  occ. eigenvalues --   -0.30494  -0.30360  -0.29696  -0.29295  -0.29223
 Alpha  occ. eigenvalues --   -0.28999  -0.28455  -0.27849  -0.26884  -0.26572
 Alpha  occ. eigenvalues --   -0.25322  -0.25279  -0.24721  -0.24402  -0.21059
 Alpha  occ. eigenvalues --   -0.19251
 Alpha virt. eigenvalues --   -0.11610  -0.05356  -0.03966  -0.02006  -0.00983
 Alpha virt. eigenvalues --   -0.00412   0.00859   0.01173   0.01873   0.02288
 Alpha virt. eigenvalues --    0.04263   0.04486   0.05413   0.05632   0.06100

 Mulliken charges:
               1
     1  Mg   0.930511
     2  C   -0.008192
     3  C   -0.041197
     4  C   -0.077013
     5  C   -0.091435
     6  N   -0.383798
     7  C    0.068544
     8  C   -0.041757
     9  C   -0.121768
    10  C    0.086714
    11  C    0.014909
    12  C   -0.049073
    13  C    0.020910
    14  C    0.191514
    15  O   -0.312903
    16  O   -0.358966
    17  N   -0.498927
    18  C    0.139984
    19  C   -0.187739
    20  C   -0.092839
    21  C    0.139248
    22  C    0.059475
    23  C    0.084135
    24  O   -0.237161
    25  C   -0.027700
    26  N   -0.371675
    27  C    0.119074
    28  C   -0.142498
    29  C   -0.061710
    30  C    0.040519
    31  C    0.009340
    32  C   -0.033655
    33  C   -0.078284
    34  N   -0.458060
    35  C    0.158386
    36  C   -0.169613
    37  C   -0.083500
    38  C    0.177209
    39  C    0.073384
    40  C    0.129752
    41  O   -0.187352
    42  C   -0.132204
    43  C    0.276490
    44  O   -0.244697
    45  O   -0.341549
    46  C    0.104426
    47  C    0.239235
    48  C   -0.098434
    49  C   -0.244298
    50  C    0.032790
    51  C    0.043367
    52  C   -0.036252
    53  C    0.003537
    54  C   -0.238545
    55  C    0.003158
    56  C   -0.005534
    57  C   -0.049071
    58  C   -0.007532
    59  C   -0.230502
    60  C   -0.013862
    61  C   -0.008501
    62  C   -0.032301
    63  C    0.021653
    64  C   -0.249178
    65  C   -0.019045
    66  C   -0.033446
    67  H    0.004491
    68  H   -0.000422
    69  H    0.002346
    70  H    0.049181
    71  H    0.055692
    72  H    0.039076
    73  H    0.048300
    74  H    0.052431
    75  H    0.046415
    76  H    0.065055
    77  H    0.056174
    78  H    0.048829
    79  H    0.056461
    80  H    0.025967
    81  H    0.067445
    82  H    0.091565
    83  H    0.062213
    84  H    0.051886
    85  H    0.059469
    86  H    0.043697
    87  H    0.041747
    88  H    0.044503
    89  H    0.037885
    90  H    0.067282
    91  H    0.045473
    92  H    0.045476
    93  H    0.044171
    94  H    0.043287
    95  H    0.029404
    96  H    0.061886
    97  H    0.069514
    98  H    0.068769
    99  H    0.046606
   100  H    0.063747
   101  H    0.056279
   102  H    0.057286
   103  H    0.062607
   104  H    0.025903
   105  H    0.053470
   106  H    0.012783
   107  H    0.074422
   108  H    0.017116
   109  H    0.030468
   110  H    0.006315
   111  H    0.029709
   112  H    0.028715
   113  H    0.036393
   114  H    0.039030
   115  H    0.039209
   116  H    0.027782
   117  H    0.034662
   118  H    0.032517
   119  H    0.021208
   120  H    0.023414
   121  H    0.023434
   122  H    0.020970
   123  H    0.022501
   124  H    0.035551
   125  H    0.034385
   126  H    0.032468
   127  H    0.029625
   128  H    0.016250
   129  H    0.018987
   130  H    0.029278
   131  H    0.029097
   132  H    0.022884
   133  H    0.028000
   134  H    0.034006
   135  H    0.027082
   136  H    0.035080
   137  H    0.040298
   138  H    0.036960
   139  H    0.040187
   140  H    0.031148
 Sum of Mulliken charges =  -0.00000

 Dipole moment (field-independent basis, Debye):
    X=             -0.3320    Y=              4.3275    Z=              0.9985  Tot=              4.4536
 Quadrupole moment (field-independent basis, Debye-Ang):
   XX=           -368.6166   YY=           -428.5480   ZZ=           -392.7695
   XY=             49.4520   XZ=              4.5609   YZ=             19.6588

 Normal termination of Gaussian 16 at Sat Apr 30 18:20:31 2022.
