 Gaussian 16, Revision A.03,
 Gaussian 16:  ES64L-G16RevA.03 25-Dec-2016

 --------------------------------
 #p wB97XD/Def2SVP td=(nstates=5)
 --------------------------------

 ----------------------------------------------------
 step_851_chromophore_20 TDDFT with wB97XD functional
 ----------------------------------------------------
 Symbolic Z-matrix:
 Charge =  0 Multiplicity = 1

                         Standard orientation:
 ---------------------------------------------------------------------
 Center     Atomic      Atomic             Coordinates (Angstroms)
 Number     Number       Type             X           Y           Z
 ---------------------------------------------------------------------
      1         12           0        4.392323    1.314624   -0.700141
      2          6           0        4.030282   -2.252336   -0.938200
      3          6           0        2.009155    1.650130   -3.128134
      4          6           0        4.144344    4.433682    0.373289
      5          6           0        6.915549    0.746638    1.739257
      6          7           0        3.080387   -0.185845   -1.817925
      7          6           0        3.136055   -1.607882   -1.810132
      8          6           0        2.170609   -2.193906   -2.817207
      9          6           0        1.762908   -0.910575   -3.666690
     10          6           0        2.312100    0.281098   -2.842820
     11          6           0        2.225654   -0.939847   -5.161482
     12          6           0        0.827054   -2.743678   -2.165790
     13          6           0       -0.323011   -3.426158   -3.009407
     14          6           0       -0.949539   -4.638784   -2.399765
     15          8           0       -0.747545   -5.830882   -2.751086
     16          8           0       -1.854906   -4.348057   -1.452099
     17          7           0        3.108811    2.872170   -1.314264
     18          6           0        2.281601    2.830441   -2.352758
     19          6           0        1.649776    4.102083   -2.381980
     20          6           0        2.267694    4.964722   -1.419512
     21          6           0        3.266507    4.135874   -0.750279
     22          6           0        0.431016    4.411839   -3.101538
     23          6           0        1.847253    6.506560   -1.147680
     24          8           0        1.180062    7.104862   -1.989588
     25          6           0        2.379998    7.225097   -0.000698
     26          7           0        5.348920    2.367250    0.943229
     27          6           0        5.160220    3.700403    1.018330
     28          6           0        5.914283    4.343739    2.122511
     29          6           0        6.935285    3.166220    2.534907
     30          6           0        6.431537    2.002632    1.662405
     31          6           0        6.560302    5.752279    1.775545
     32          6           0        6.907446    2.736954    4.039527
     33          6           0        8.309897    2.610924    4.735693
     34          7           0        5.345577   -0.382780    0.181930
     35          6           0        6.418936   -0.403772    1.116757
     36          6           0        6.858460   -1.755923    1.317163
     37          6           0        5.875708   -2.525485    0.552352
     38          6           0        5.004156   -1.638861   -0.078928
     39          6           0        7.890352   -2.318834    2.192611
     40          6           0        5.414836   -3.900381    0.330334
     41          8           0        5.686158   -4.939461    0.857733
     42          6           0        4.210909   -3.730795   -0.683643
     43          6           0        3.103894   -4.306649    0.055260
     44          8           0        2.537895   -3.796682    0.996041
     45          8           0        2.862783   -5.529155   -0.482028
     46          6           0        1.759713   -6.272559   -0.012310
     47          6           0       -2.867220   -5.346596   -1.099420
     48          6           0       -4.148461   -4.665188   -0.656556
     49          6           0       -4.914788   -5.187828    0.310843
     50          6           0       -4.804073   -6.561730    1.007207
     51          6           0       -6.004219   -4.390707    0.866330
     52          6           0       -5.657034   -3.290623    1.767697
     53          6           0       -6.475854   -3.216335    3.135642
     54          6           0       -6.431170   -1.800472    3.670956
     55          6           0       -6.790905   -1.904641    5.164999
     56          6           0       -7.633422   -1.030989    3.069142
     57          6           0       -7.264233    0.425367    2.741069
     58          6           0       -6.816787    0.730696    1.272385
     59          6           0       -8.082333    1.262476    0.445415
     60          6           0       -7.880357    1.076022   -1.064604
     61          6           0       -8.312748    2.777454    0.708840
     62          6           0       -9.790016    3.183607    0.946896
     63          6           0      -10.237372    4.469254    0.261581
     64          6           0      -11.294970    4.212868   -0.862556
     65          6           0      -10.863987    4.670926   -2.264841
     66          6           0      -12.605572    4.969382   -0.483268
     67          1           0        1.216558    1.861539   -3.849639
     68          1           0        3.854687    5.402830    0.785165
     69          1           0        7.842696    0.649333    2.308561
     70          1           0        2.502156   -3.030755   -3.431883
     71          1           0        0.699191   -0.685896   -3.578293
     72          1           0        1.324265   -0.852467   -5.768561
     73          1           0        2.673278   -1.883085   -5.473667
     74          1           0        2.865367   -0.106375   -5.451385
     75          1           0        0.209437   -2.111644   -1.527611
     76          1           0        0.989960   -3.520498   -1.418364
     77          1           0       -0.083000   -3.596784   -4.059352
     78          1           0       -1.184748   -2.759965   -3.019642
     79          1           0       -0.393485    4.627862   -2.421204
     80          1           0        0.111089    3.621255   -3.779914
     81          1           0        0.579214    5.357170   -3.622778
     82          1           0        3.342054    7.730912   -0.080655
     83          1           0        2.304830    6.626674    0.906356
     84          1           0        1.656648    8.006559    0.231597
     85          1           0        5.220922    4.527309    2.943387
     86          1           0        7.928696    3.395357    2.149369
     87          1           0        7.602318    5.685646    1.461303
     88          1           0        6.478690    6.468230    2.593655
     89          1           0        5.978184    6.122884    0.932925
     90          1           0        6.499705    1.728851    4.104321
     91          1           0        6.330404    3.529002    4.516574
     92          1           0        8.466815    3.341959    5.528535
     93          1           0        9.123104    2.679252    4.012107
     94          1           0        8.293343    1.638865    5.227872
     95          1           0        8.702242   -1.603991    2.325583
     96          1           0        8.349011   -3.215366    1.776755
     97          1           0        7.463035   -2.528966    3.173567
     98          1           0        4.418485   -4.295761   -1.592358
     99          1           0        1.050784   -5.563543    0.416843
    100          1           0        1.878849   -7.146665    0.628619
    101          1           0        1.272534   -6.605646   -0.928735
    102          1           0       -2.428227   -6.010014   -0.354397
    103          1           0       -3.085121   -5.944277   -1.985187
    104          1           0       -4.423832   -3.684441   -1.044034
    105          1           0       -4.710728   -6.357647    2.073876
    106          1           0       -3.829581   -7.022236    0.846622
    107          1           0       -5.537147   -7.267769    0.616816
    108          1           0       -6.767278   -4.994436    1.356568
    109          1           0       -6.538370   -3.994736    0.002740
    110          1           0       -5.911891   -2.311877    1.361775
    111          1           0       -4.573141   -3.167604    1.778362
    112          1           0       -5.939933   -3.825085    3.864072
    113          1           0       -7.509224   -3.541708    3.017808
    114          1           0       -5.480435   -1.304028    3.476518
    115          1           0       -7.491051   -2.708815    5.389875
    116          1           0       -7.249256   -0.964044    5.469769
    117          1           0       -5.871079   -2.033631    5.737026
    118          1           0       -8.558259   -1.030401    3.645638
    119          1           0       -7.826039   -1.452441    2.082420
    120          1           0       -6.499563    0.792905    3.425463
    121          1           0       -8.166834    0.989953    2.973682
    122          1           0       -6.273851   -0.104383    0.829792
    123          1           0       -6.009355    1.462388    1.276197
    124          1           0       -9.003461    0.747421    0.718828
    125          1           0       -8.643034    1.430969   -1.757779
    126          1           0       -7.735851    0.015305   -1.269764
    127          1           0       -7.004729    1.672459   -1.320193
    128          1           0       -7.893038    3.400794   -0.080396
    129          1           0       -7.657363    3.024977    1.544575
    130          1           0       -9.915178    3.249648    2.028031
    131          1           0      -10.271889    2.243545    0.678358
    132          1           0       -9.401399    4.955281   -0.240297
    133          1           0      -10.575972    5.212820    0.983339
    134          1           0      -11.573719    3.163183   -0.952430
    135          1           0      -11.712902    4.750055   -2.943274
    136          1           0      -10.270857    3.869445   -2.704482
    137          1           0      -10.389686    5.652435   -2.242742
    138          1           0      -13.437284    4.425667   -0.930116
    139          1           0      -12.516423    6.019131   -0.762058
    140          1           0      -12.686142    4.884063    0.600613
 ---------------------------------------------------------------------

 SCF Done:  E(RwB97XD) =  -3007.84669495     A.U. after   19 cycles

 Excitation energies and oscillator strengths:

 Excited State   1:      Singlet-A      1.6844 eV  736.08 nm  f=0.3606  <S**2>=0.000
     245 -> 248        0.17421
     246 -> 247        0.68507
     245 <- 248        0.11100
 This state for optimization and/or second-order correction.
 Total Energy, E(TD-HF/TD-DFT) =  -3007.78479512
 Copying the excited state density for this state as the 1-particle RhoCI density.

 Excited State   2:      Singlet-A      2.1335 eV  581.13 nm  f=0.1456  <S**2>=0.000
     245 -> 247        0.64846
     246 -> 248       -0.25581

 Excited State   3:      Singlet-A      3.0324 eV  408.86 nm  f=0.0010  <S**2>=0.000
     243 -> 247        0.62888
     244 -> 247        0.27138

 Excited State   4:      Singlet-A      3.1897 eV  388.70 nm  f=0.0115  <S**2>=0.000
     243 -> 247       -0.26269
     244 -> 247        0.62664

 Excited State   5:      Singlet-A      3.6152 eV  342.95 nm  f=0.0123  <S**2>=0.000
     235 -> 247       -0.10270
     242 -> 247        0.56938
     242 -> 249       -0.22132
     242 -> 250        0.21756
     246 -> 248       -0.10520

 The electronic state is 1-A.
 Alpha  occ. eigenvalues --  -46.96118 -19.30257 -19.29081 -19.25171 -19.23776
 Alpha  occ. eigenvalues --  -19.23509 -19.23460 -14.46999 -14.46819 -14.44143
 Alpha  occ. eigenvalues --  -14.43159 -10.43076 -10.41631 -10.40621 -10.38196
 Alpha  occ. eigenvalues --  -10.36341 -10.36113 -10.35793 -10.35646 -10.35542
 Alpha  occ. eigenvalues --  -10.34459 -10.33796 -10.33723 -10.33338 -10.33030
 Alpha  occ. eigenvalues --  -10.32894 -10.32609 -10.32211 -10.32154 -10.32077
 Alpha  occ. eigenvalues --  -10.31984 -10.31978 -10.31941 -10.31854 -10.31677
 Alpha  occ. eigenvalues --  -10.31647 -10.31388 -10.30893 -10.30807 -10.30778
 Alpha  occ. eigenvalues --  -10.30693 -10.30580 -10.30536 -10.30296 -10.30096
 Alpha  occ. eigenvalues --  -10.30042 -10.29833 -10.29620 -10.29387 -10.29364
 Alpha  occ. eigenvalues --  -10.29354 -10.29282 -10.29142 -10.28982 -10.28648
 Alpha  occ. eigenvalues --  -10.28633 -10.28604 -10.28536 -10.28396 -10.28259
 Alpha  occ. eigenvalues --  -10.28239 -10.28132 -10.28124 -10.28122 -10.28082
 Alpha  occ. eigenvalues --  -10.27893  -3.21863  -1.95452  -1.94995  -1.94794
 Alpha  occ. eigenvalues --   -1.18715  -1.18566  -1.13002  -1.12806  -1.09980
 Alpha  occ. eigenvalues --   -1.07857  -1.06867  -1.05969  -1.04641  -1.03698
 Alpha  occ. eigenvalues --   -0.93983  -0.93381  -0.91824  -0.91221  -0.91044
 Alpha  occ. eigenvalues --   -0.90770  -0.90275  -0.89279  -0.89115  -0.88627
 Alpha  occ. eigenvalues --   -0.88191  -0.87743  -0.86558  -0.85868  -0.85622
 Alpha  occ. eigenvalues --   -0.84953  -0.84474  -0.83500  -0.82879  -0.82614
 Alpha  occ. eigenvalues --   -0.81874  -0.80115  -0.79679  -0.79009  -0.78013
 Alpha  occ. eigenvalues --   -0.77354  -0.77305  -0.76961  -0.76372  -0.75741
 Alpha  occ. eigenvalues --   -0.75478  -0.74746  -0.74050  -0.72903  -0.71252
 Alpha  occ. eigenvalues --   -0.70162  -0.69639  -0.68954  -0.68748  -0.67892
 Alpha  occ. eigenvalues --   -0.67595  -0.67416  -0.67150  -0.66307  -0.66249
 Alpha  occ. eigenvalues --   -0.65561  -0.65077  -0.64372  -0.63830  -0.62344
 Alpha  occ. eigenvalues --   -0.61818  -0.61299  -0.61030  -0.60712  -0.60216
 Alpha  occ. eigenvalues --   -0.59679  -0.58986  -0.58632  -0.57760  -0.57536
 Alpha  occ. eigenvalues --   -0.57307  -0.56659  -0.56379  -0.55997  -0.55855
 Alpha  occ. eigenvalues --   -0.55534  -0.55230  -0.55107  -0.54979  -0.54856
 Alpha  occ. eigenvalues --   -0.54656  -0.54505  -0.54374  -0.54146  -0.53844
 Alpha  occ. eigenvalues --   -0.53325  -0.52889  -0.52781  -0.52707  -0.52660
 Alpha  occ. eigenvalues --   -0.52455  -0.52267  -0.52224  -0.52045  -0.52001
 Alpha  occ. eigenvalues --   -0.51433  -0.51407  -0.50925  -0.50736  -0.50632
 Alpha  occ. eigenvalues --   -0.50571  -0.50355  -0.50203  -0.49930  -0.49815
 Alpha  occ. eigenvalues --   -0.49538  -0.49393  -0.49137  -0.48820  -0.48702
 Alpha  occ. eigenvalues --   -0.48375  -0.48090  -0.48048  -0.47784  -0.47731
 Alpha  occ. eigenvalues --   -0.47542  -0.47405  -0.47261  -0.47023  -0.46874
 Alpha  occ. eigenvalues --   -0.46729  -0.46310  -0.45946  -0.45774  -0.45641
 Alpha  occ. eigenvalues --   -0.45622  -0.45176  -0.45046  -0.44890  -0.44839
 Alpha  occ. eigenvalues --   -0.44654  -0.44571  -0.44546  -0.44180  -0.43941
 Alpha  occ. eigenvalues --   -0.43821  -0.43558  -0.43515  -0.43177  -0.43070
 Alpha  occ. eigenvalues --   -0.42612  -0.42569  -0.42301  -0.42121  -0.41752
 Alpha  occ. eigenvalues --   -0.41610  -0.41331  -0.41135  -0.40839  -0.40754
 Alpha  occ. eigenvalues --   -0.40637  -0.40306  -0.39712  -0.39448  -0.39240
 Alpha  occ. eigenvalues --   -0.39115  -0.38586  -0.38399  -0.38144  -0.37858
 Alpha  occ. eigenvalues --   -0.37457  -0.37371  -0.36645  -0.36160  -0.36071
 Alpha  occ. eigenvalues --   -0.35705  -0.35456  -0.34973  -0.33988  -0.33416
 Alpha  occ. eigenvalues --   -0.32067  -0.32041  -0.31626  -0.30609  -0.26047
 Alpha  occ. eigenvalues --   -0.23504
 Alpha virt. eigenvalues --   -0.07531   0.00123   0.02293   0.04546   0.04966
 Alpha virt. eigenvalues --    0.06333   0.07535   0.07892   0.08563   0.09208
 Alpha virt. eigenvalues --    0.10660   0.11258   0.12088   0.12380   0.12885

 Mulliken charges:
               1
     1  Mg   0.924962
     2  C   -0.001669
     3  C   -0.059925
     4  C   -0.089211
     5  C   -0.105732
     6  N   -0.353790
     7  C    0.030410
     8  C   -0.014593
     9  C   -0.095139
    10  C    0.074013
    11  C    0.024512
    12  C   -0.029702
    13  C    0.032303
    14  C    0.181455
    15  O   -0.309323
    16  O   -0.357983
    17  N   -0.469453
    18  C    0.132201
    19  C   -0.168807
    20  C   -0.090076
    21  C    0.136670
    22  C    0.068321
    23  C    0.083119
    24  O   -0.231245
    25  C   -0.019549
    26  N   -0.338293
    27  C    0.112717
    28  C   -0.121076
    29  C   -0.039013
    30  C    0.026522
    31  C    0.022538
    32  C   -0.015878
    33  C   -0.063078
    34  N   -0.420651
    35  C    0.148205
    36  C   -0.169243
    37  C   -0.083410
    38  C    0.153594
    39  C    0.085012
    40  C    0.114582
    41  O   -0.181086
    42  C   -0.093076
    43  C    0.249636
    44  O   -0.238641
    45  O   -0.338865
    46  C    0.120541
    47  C    0.250649
    48  C   -0.108473
    49  C   -0.230836
    50  C    0.048730
    51  C    0.061097
    52  C   -0.011836
    53  C    0.019190
    54  C   -0.208139
    55  C    0.014874
    56  C    0.012359
    57  C   -0.033795
    58  C    0.008644
    59  C   -0.194361
    60  C    0.000016
    61  C    0.000075
    62  C   -0.012570
    63  C    0.036568
    64  C   -0.223195
    65  C   -0.006040
    66  C   -0.018503
    67  H   -0.003134
    68  H   -0.015789
    69  H   -0.005658
    70  H    0.041604
    71  H    0.043904
    72  H    0.033598
    73  H    0.043947
    74  H    0.046967
    75  H    0.039935
    76  H    0.042924
    77  H    0.051198
    78  H    0.041968
    79  H    0.053626
    80  H    0.022798
    81  H    0.064312
    82  H    0.089846
    83  H    0.058511
    84  H    0.050907
    85  H    0.049877
    86  H    0.031664
    87  H    0.037531
    88  H    0.040346
    89  H    0.028163
    90  H    0.057985
    91  H    0.036076
    92  H    0.039814
    93  H    0.037694
    94  H    0.037819
    95  H    0.021660
    96  H    0.056870
    97  H    0.063476
    98  H    0.063354
    99  H    0.041626
   100  H    0.060688
   101  H    0.051251
   102  H    0.051866
   103  H    0.057779
   104  H    0.024755
   105  H    0.046739
   106  H    0.006312
   107  H    0.070147
   108  H    0.008353
   109  H    0.022974
   110  H   -0.016018
   111  H    0.021650
   112  H    0.018964
   113  H    0.027401
   114  H    0.029083
   115  H    0.033027
   116  H    0.020000
   117  H    0.029250
   118  H    0.025645
   119  H    0.005925
   120  H    0.014997
   121  H    0.012362
   122  H    0.010644
   123  H    0.014435
   124  H    0.021761
   125  H    0.027947
   126  H    0.026516
   127  H    0.021087
   128  H    0.004990
   129  H    0.009498
   130  H    0.022420
   131  H    0.015954
   132  H    0.012307
   133  H    0.021307
   134  H    0.023266
   135  H    0.020991
   136  H    0.028460
   137  H    0.033912
   138  H    0.031591
   139  H    0.033776
   140  H    0.023308
 Sum of Mulliken charges =  -0.00000

 Dipole moment (field-independent basis, Debye):
    X=             -0.7298    Y=              5.0205    Z=              0.6799  Tot=              5.1186
 Quadrupole moment (field-independent basis, Debye-Ang):
   XX=           -371.7339   YY=           -425.9823   ZZ=           -392.2598
   XY=             51.5293   XZ=              3.1260   YZ=             18.8816

 Normal termination of Gaussian 16 at Sat Apr 30 18:47:18 2022.
