 Gaussian 16, Revision A.03,
 Gaussian 16:  ES64L-G16RevA.03 25-Dec-2016

 --------------------
 #p ZINDO=(nstates=5)
 --------------------

 -----------------------------
 step_851_chromophore_20 ZINDO
 -----------------------------
 Symbolic Z-matrix:
 Charge =  0 Multiplicity = 1

                         Standard orientation:
 ---------------------------------------------------------------------
 Center     Atomic      Atomic             Coordinates (Angstroms)
 Number     Number       Type             X           Y           Z
 ---------------------------------------------------------------------
      1         12           0        4.392323    1.314624   -0.700141
      2          6           0        4.030282   -2.252336   -0.938200
      3          6           0        2.009155    1.650130   -3.128134
      4          6           0        4.144344    4.433682    0.373289
      5          6           0        6.915549    0.746638    1.739257
      6          7           0        3.080387   -0.185845   -1.817925
      7          6           0        3.136055   -1.607882   -1.810132
      8          6           0        2.170609   -2.193906   -2.817207
      9          6           0        1.762908   -0.910575   -3.666690
     10          6           0        2.312100    0.281098   -2.842820
     11          6           0        2.225654   -0.939847   -5.161482
     12          6           0        0.827054   -2.743678   -2.165790
     13          6           0       -0.323011   -3.426158   -3.009407
     14          6           0       -0.949539   -4.638784   -2.399765
     15          8           0       -0.747545   -5.830882   -2.751086
     16          8           0       -1.854906   -4.348057   -1.452099
     17          7           0        3.108811    2.872170   -1.314264
     18          6           0        2.281601    2.830441   -2.352758
     19          6           0        1.649776    4.102083   -2.381980
     20          6           0        2.267694    4.964722   -1.419512
     21          6           0        3.266507    4.135874   -0.750279
     22          6           0        0.431016    4.411839   -3.101538
     23          6           0        1.847253    6.506560   -1.147680
     24          8           0        1.180062    7.104862   -1.989588
     25          6           0        2.379998    7.225097   -0.000698
     26          7           0        5.348920    2.367250    0.943229
     27          6           0        5.160220    3.700403    1.018330
     28          6           0        5.914283    4.343739    2.122511
     29          6           0        6.935285    3.166220    2.534907
     30          6           0        6.431537    2.002632    1.662405
     31          6           0        6.560302    5.752279    1.775545
     32          6           0        6.907446    2.736954    4.039527
     33          6           0        8.309897    2.610924    4.735693
     34          7           0        5.345577   -0.382780    0.181930
     35          6           0        6.418936   -0.403772    1.116757
     36          6           0        6.858460   -1.755923    1.317163
     37          6           0        5.875708   -2.525485    0.552352
     38          6           0        5.004156   -1.638861   -0.078928
     39          6           0        7.890352   -2.318834    2.192611
     40          6           0        5.414836   -3.900381    0.330334
     41          8           0        5.686158   -4.939461    0.857733
     42          6           0        4.210909   -3.730795   -0.683643
     43          6           0        3.103894   -4.306649    0.055260
     44          8           0        2.537895   -3.796682    0.996041
     45          8           0        2.862783   -5.529155   -0.482028
     46          6           0        1.759713   -6.272559   -0.012310
     47          6           0       -2.867220   -5.346596   -1.099420
     48          6           0       -4.148461   -4.665188   -0.656556
     49          6           0       -4.914788   -5.187828    0.310843
     50          6           0       -4.804073   -6.561730    1.007207
     51          6           0       -6.004219   -4.390707    0.866330
     52          6           0       -5.657034   -3.290623    1.767697
     53          6           0       -6.475854   -3.216335    3.135642
     54          6           0       -6.431170   -1.800472    3.670956
     55          6           0       -6.790905   -1.904641    5.164999
     56          6           0       -7.633422   -1.030989    3.069142
     57          6           0       -7.264233    0.425367    2.741069
     58          6           0       -6.816787    0.730696    1.272385
     59          6           0       -8.082333    1.262476    0.445415
     60          6           0       -7.880357    1.076022   -1.064604
     61          6           0       -8.312748    2.777454    0.708840
     62          6           0       -9.790016    3.183607    0.946896
     63          6           0      -10.237372    4.469254    0.261581
     64          6           0      -11.294970    4.212868   -0.862556
     65          6           0      -10.863987    4.670926   -2.264841
     66          6           0      -12.605572    4.969382   -0.483268
     67          1           0        1.216558    1.861539   -3.849639
     68          1           0        3.854687    5.402830    0.785165
     69          1           0        7.842696    0.649333    2.308561
     70          1           0        2.502156   -3.030755   -3.431883
     71          1           0        0.699191   -0.685896   -3.578293
     72          1           0        1.324265   -0.852467   -5.768561
     73          1           0        2.673278   -1.883085   -5.473667
     74          1           0        2.865367   -0.106375   -5.451385
     75          1           0        0.209437   -2.111644   -1.527611
     76          1           0        0.989960   -3.520498   -1.418364
     77          1           0       -0.083000   -3.596784   -4.059352
     78          1           0       -1.184748   -2.759965   -3.019642
     79          1           0       -0.393485    4.627862   -2.421204
     80          1           0        0.111089    3.621255   -3.779914
     81          1           0        0.579214    5.357170   -3.622778
     82          1           0        3.342054    7.730912   -0.080655
     83          1           0        2.304830    6.626674    0.906356
     84          1           0        1.656648    8.006559    0.231597
     85          1           0        5.220922    4.527309    2.943387
     86          1           0        7.928696    3.395357    2.149369
     87          1           0        7.602318    5.685646    1.461303
     88          1           0        6.478690    6.468230    2.593655
     89          1           0        5.978184    6.122884    0.932925
     90          1           0        6.499705    1.728851    4.104321
     91          1           0        6.330404    3.529002    4.516574
     92          1           0        8.466815    3.341959    5.528535
     93          1           0        9.123104    2.679252    4.012107
     94          1           0        8.293343    1.638865    5.227872
     95          1           0        8.702242   -1.603991    2.325583
     96          1           0        8.349011   -3.215366    1.776755
     97          1           0        7.463035   -2.528966    3.173567
     98          1           0        4.418485   -4.295761   -1.592358
     99          1           0        1.050784   -5.563543    0.416843
    100          1           0        1.878849   -7.146665    0.628619
    101          1           0        1.272534   -6.605646   -0.928735
    102          1           0       -2.428227   -6.010014   -0.354397
    103          1           0       -3.085121   -5.944277   -1.985187
    104          1           0       -4.423832   -3.684441   -1.044034
    105          1           0       -4.710728   -6.357647    2.073876
    106          1           0       -3.829581   -7.022236    0.846622
    107          1           0       -5.537147   -7.267769    0.616816
    108          1           0       -6.767278   -4.994436    1.356568
    109          1           0       -6.538370   -3.994736    0.002740
    110          1           0       -5.911891   -2.311877    1.361775
    111          1           0       -4.573141   -3.167604    1.778362
    112          1           0       -5.939933   -3.825085    3.864072
    113          1           0       -7.509224   -3.541708    3.017808
    114          1           0       -5.480435   -1.304028    3.476518
    115          1           0       -7.491051   -2.708815    5.389875
    116          1           0       -7.249256   -0.964044    5.469769
    117          1           0       -5.871079   -2.033631    5.737026
    118          1           0       -8.558259   -1.030401    3.645638
    119          1           0       -7.826039   -1.452441    2.082420
    120          1           0       -6.499563    0.792905    3.425463
    121          1           0       -8.166834    0.989953    2.973682
    122          1           0       -6.273851   -0.104383    0.829792
    123          1           0       -6.009355    1.462388    1.276197
    124          1           0       -9.003461    0.747421    0.718828
    125          1           0       -8.643034    1.430969   -1.757779
    126          1           0       -7.735851    0.015305   -1.269764
    127          1           0       -7.004729    1.672459   -1.320193
    128          1           0       -7.893038    3.400794   -0.080396
    129          1           0       -7.657363    3.024977    1.544575
    130          1           0       -9.915178    3.249648    2.028031
    131          1           0      -10.271889    2.243545    0.678358
    132          1           0       -9.401399    4.955281   -0.240297
    133          1           0      -10.575972    5.212820    0.983339
    134          1           0      -11.573719    3.163183   -0.952430
    135          1           0      -11.712902    4.750055   -2.943274
    136          1           0      -10.270857    3.869445   -2.704482
    137          1           0      -10.389686    5.652435   -2.242742
    138          1           0      -13.437284    4.425667   -0.930116
    139          1           0      -12.516423    6.019131   -0.762058
    140          1           0      -12.686142    4.884063    0.600613
 ---------------------------------------------------------------------

 SCF Done:  E(RZINDO/S) =  -474.405268964     A.U. after   19 cycles

 Excitation energies and oscillator strengths:

 Excited State   1:      Singlet-A      1.2918 eV  959.76 nm  f=0.5433  <S**2>=0.000
     175 ->178         0.16684
     176 ->177         0.66935
 This state for optimization and/or second-order correction.
 Total Energy, E(CIS/TDA) =  -474.357795280
 Copying the excited state density for this state as the 1-particle RhoCI density.

 Excited State   2:      Singlet-A      1.9071 eV  650.12 nm  f=0.0977  <S**2>=0.000
     175 ->177         0.57962
     176 ->178        -0.36405

 Excited State   3:      Singlet-A      2.8733 eV  431.50 nm  f=0.0022  <S**2>=0.000
     171 ->177         0.58278
     172 ->177         0.22806
     174 ->177        -0.25659

 Excited State   4:      Singlet-A      3.0305 eV  409.13 nm  f=0.0831  <S**2>=0.000
     166 ->177        -0.11233
     166 ->178         0.10021
     166 ->179        -0.19634
     166 ->181        -0.13591
     167 ->177         0.13565
     167 ->178        -0.12190
     167 ->179         0.23572
     167 ->181         0.16457
     168 ->177        -0.16638
     168 ->178         0.14633
     168 ->179        -0.28012
     168 ->181        -0.18998
     168 ->184         0.11347
     176 ->178         0.15100

 Excited State   5:      Singlet-A      3.0637 eV  404.69 nm  f=1.0908  <S**2>=0.000
     174 ->177         0.12769
     175 ->177         0.33378
     176 ->178         0.54444

 The electronic state is 1-A.
 Alpha  occ. eigenvalues --   -1.82955  -1.81698  -1.79766  -1.74139  -1.73594
 Alpha  occ. eigenvalues --   -1.70045  -1.67263  -1.61852  -1.59673  -1.58871
 Alpha  occ. eigenvalues --   -1.56148  -1.52611  -1.49095  -1.46774  -1.45884
 Alpha  occ. eigenvalues --   -1.43741  -1.41876  -1.40980  -1.38560  -1.37500
 Alpha  occ. eigenvalues --   -1.35183  -1.33374  -1.33071  -1.32095  -1.28776
 Alpha  occ. eigenvalues --   -1.27986  -1.27805  -1.23717  -1.20794  -1.18112
 Alpha  occ. eigenvalues --   -1.17509  -1.16220  -1.15205  -1.14975  -1.12623
 Alpha  occ. eigenvalues --   -1.12593  -1.09330  -1.08766  -1.04876  -1.02538
 Alpha  occ. eigenvalues --   -1.01581  -1.01277  -0.98662  -0.97518  -0.95802
 Alpha  occ. eigenvalues --   -0.95605  -0.95294  -0.94376  -0.93060  -0.92588
 Alpha  occ. eigenvalues --   -0.92211  -0.91180  -0.89245  -0.88097  -0.86906
 Alpha  occ. eigenvalues --   -0.85895  -0.84240  -0.83910  -0.81572  -0.79910
 Alpha  occ. eigenvalues --   -0.79439  -0.78845  -0.77056  -0.76640  -0.76055
 Alpha  occ. eigenvalues --   -0.75210  -0.74776  -0.74587  -0.74134  -0.73727
 Alpha  occ. eigenvalues --   -0.72979  -0.72662  -0.72142  -0.71746  -0.70859
 Alpha  occ. eigenvalues --   -0.70466  -0.69880  -0.69436  -0.68670  -0.68299
 Alpha  occ. eigenvalues --   -0.67545  -0.67096  -0.66686  -0.66055  -0.65524
 Alpha  occ. eigenvalues --   -0.65449  -0.65100  -0.64415  -0.63695  -0.63160
 Alpha  occ. eigenvalues --   -0.62866  -0.62580  -0.62140  -0.62128  -0.61843
 Alpha  occ. eigenvalues --   -0.61596  -0.61557  -0.61405  -0.61115  -0.60237
 Alpha  occ. eigenvalues --   -0.59855  -0.59415  -0.59207  -0.58967  -0.58501
 Alpha  occ. eigenvalues --   -0.58206  -0.57826  -0.57233  -0.57041  -0.56690
 Alpha  occ. eigenvalues --   -0.55962  -0.55735  -0.55349  -0.55052  -0.54714
 Alpha  occ. eigenvalues --   -0.54209  -0.53796  -0.53460  -0.52745  -0.52585
 Alpha  occ. eigenvalues --   -0.52132  -0.51636  -0.51306  -0.51092  -0.50933
 Alpha  occ. eigenvalues --   -0.50665  -0.50507  -0.50241  -0.49973  -0.49715
 Alpha  occ. eigenvalues --   -0.49480  -0.49457  -0.49116  -0.48860  -0.48565
 Alpha  occ. eigenvalues --   -0.48534  -0.48414  -0.47956  -0.47724  -0.47662
 Alpha  occ. eigenvalues --   -0.47530  -0.46996  -0.46832  -0.46666  -0.46431
 Alpha  occ. eigenvalues --   -0.46134  -0.45911  -0.45761  -0.45613  -0.45378
 Alpha  occ. eigenvalues --   -0.45333  -0.44997  -0.44370  -0.43973  -0.43677
 Alpha  occ. eigenvalues --   -0.43224  -0.43099  -0.42943  -0.41954  -0.41519
 Alpha  occ. eigenvalues --   -0.41186  -0.40926  -0.40135  -0.38705  -0.38080
 Alpha  occ. eigenvalues --   -0.37326  -0.37075  -0.36301  -0.35000  -0.33769
 Alpha  occ. eigenvalues --   -0.32986  -0.32489  -0.31767  -0.30969  -0.26747
 Alpha  occ. eigenvalues --   -0.22380
 Alpha virt. eigenvalues --   -0.08921  -0.02169  -0.00508   0.01244   0.01387
 Alpha virt. eigenvalues --    0.01956   0.02876   0.03538   0.04650   0.05104
 Alpha virt. eigenvalues --    0.05872   0.06337   0.06664   0.07364   0.07712

 Mulliken charges:
               1
     1  Mg   0.433930
     2  C   -0.021234
     3  C   -0.110963
     4  C   -0.095102
     5  C   -0.039242
     6  N   -0.305326
     7  C    0.089992
     8  C    0.024147
     9  C    0.003218
    10  C    0.178073
    11  C   -0.049548
    12  C   -0.035627
    13  C    0.005058
    14  C    0.479317
    15  O   -0.550516
    16  O   -0.268058
    17  N   -0.326029
    18  C    0.156671
    19  C    0.061835
    20  C   -0.063090
    21  C    0.123163
    22  C   -0.036799
    23  C    0.337288
    24  O   -0.507679
    25  C   -0.025195
    26  N   -0.257670
    27  C    0.165547
    28  C   -0.001816
    29  C   -0.009791
    30  C    0.090648
    31  C   -0.057224
    32  C   -0.034087
    33  C   -0.063067
    34  N   -0.332365
    35  C    0.060350
    36  C    0.013277
    37  C   -0.084737
    38  C    0.124994
    39  C   -0.028587
    40  C    0.335910
    41  O   -0.512168
    42  C    0.054136
    43  C    0.508349
    44  O   -0.537928
    45  O   -0.263454
    46  C    0.071366
    47  C    0.109476
    48  C   -0.097549
    49  C    0.003164
    50  C   -0.049777
    51  C   -0.010248
    52  C   -0.041163
    53  C   -0.031458
    54  C   -0.012537
    55  C   -0.056291
    56  C   -0.035464
    57  C   -0.040845
    58  C   -0.035106
    59  C   -0.008735
    60  C   -0.058914
    61  C   -0.040582
    62  C   -0.036674
    63  C   -0.024881
    64  C   -0.017764
    65  C   -0.055549
    66  C   -0.062158
    67  H    0.024392
    68  H    0.028864
    69  H    0.023119
    70  H    0.042082
    71  H    0.034940
    72  H    0.014285
    73  H    0.027063
    74  H    0.028523
    75  H    0.032462
    76  H    0.026944
    77  H    0.038108
    78  H    0.026998
    79  H    0.037817
    80  H    0.020085
    81  H    0.043827
    82  H    0.056520
    83  H    0.028326
    84  H    0.030155
    85  H    0.038428
    86  H    0.033662
    87  H    0.025974
    88  H    0.023121
    89  H    0.019659
    90  H    0.037451
    91  H    0.023291
    92  H    0.019804
    93  H    0.024167
    94  H    0.019536
    95  H    0.012671
    96  H    0.032874
    97  H    0.039362
    98  H    0.048070
    99  H    0.038918
   100  H    0.051761
   101  H    0.027448
   102  H    0.051673
   103  H    0.048784
   104  H    0.040521
   105  H    0.033714
   106  H    0.011211
   107  H    0.043525
   108  H    0.009529
   109  H    0.012941
   110  H    0.009414
   111  H    0.027866
   112  H    0.012038
   113  H    0.031963
   114  H    0.038067
   115  H    0.024337
   116  H    0.011005
   117  H    0.010647
   118  H    0.027689
   119  H    0.009724
   120  H    0.013647
   121  H    0.010870
   122  H    0.020790
   123  H    0.015321
   124  H    0.025772
   125  H    0.018111
   126  H    0.010979
   127  H    0.015123
   128  H    0.016866
   129  H    0.011170
   130  H    0.013523
   131  H    0.026040
   132  H    0.016532
   133  H    0.022875
   134  H    0.021787
   135  H    0.011022
   136  H    0.014734
   137  H    0.025133
   138  H    0.019090
   139  H    0.026412
   140  H    0.011936
 Sum of Mulliken charges =  -0.00000

 Dipole moment (field-independent basis, Debye):
    X=             -1.2286    Y=              7.7874    Z=             -1.1778  Tot=              7.9712
 N-N= 4.420297304779D+03 E-N= 0.000000000000D+00  KE=-9.515365026251D+03
 Leave Link  601 at Sat Apr 30 18:59:54 2022, MaxMem=  6710886400 cpu:               0.8 elap:               0.1
 (Enter /sw/apps/gaussian-16.0/g16/l9999.exe)
 1\1\GINC-BP1-COMPUTE102\SP\RZINDO CIS\STO-3G\C55H74Mg1N4O6\OF15641\30-
 Apr-2022\0\\#p ZINDO=(nstates=5)\\step_851_chromophore_20 ZINDO\\0,1\M
 g,0,6.257,56.909,42.406\C,0,4.577,53.77,41.921\C,0,9.129,55.476,41.229
 \C,0,7.292,60.02,41.967\C,0,3.195,58.18,43.69\N,0,6.735,54.844,41.552\
 C,0,5.915,53.682,41.5\C,0,6.693,52.492,40.982\C,0,8.191,53.028,41.041\
 C,0,8.041,54.549,41.295\C,0,9.114,52.283,42.062\C,0,6.399,52.155,39.45
 5\C,0,7.07,50.941,38.696\C,0,6.172,50.157,37.794\O,0,5.693,49.018,38.0

 Normal termination of Gaussian 16 at Sat Apr 30 18:59:54 2022.
