 Gaussian 16, Revision A.03,
 Gaussian 16:  ES64L-G16RevA.03 25-Dec-2016

 ------------------------------
 #p blyp/Def2SVP td=(nstates=5)
 ------------------------------

 --------------------------------------------------
 step_201_chromophore_25 TDDFT with blyp functional
 --------------------------------------------------
 Symbolic Z-matrix:
 Charge =  0 Multiplicity = 1

                         Standard orientation:
 ---------------------------------------------------------------------
 Center     Atomic      Atomic             Coordinates (Angstroms)
 Number     Number       Type             X           Y           Z
 ---------------------------------------------------------------------
      1         12           0        6.194732    0.510321    0.383260
      2          6           0        3.754161   -2.159709   -0.085473
      3          6           0        3.665980    2.707526    0.035914
      4          6           0        8.553170    2.793479   -0.125790
      5          6           0        8.587233   -2.063629    0.545211
      6          7           0        3.946471    0.267376   -0.079783
      7          6           0        3.173084   -0.852033   -0.017600
      8          6           0        1.640818   -0.520168   -0.039491
      9          6           0        1.654064    1.020470   -0.238687
     10          6           0        3.157978    1.384045   -0.012811
     11          6           0        0.984642    1.674840   -1.464552
     12          6           0        0.830667   -1.033560    1.198916
     13          6           0       -0.288346   -2.038935    0.890533
     14          6           0       -1.722291   -1.661524    1.292217
     15          8           0       -2.027742   -1.571607    2.512982
     16          8           0       -2.618624   -1.349597    0.280943
     17          7           0        6.130543    2.501526    0.122946
     18          6           0        4.995563    3.213120    0.034798
     19          6           0        5.356632    4.597272   -0.180067
     20          6           0        6.775337    4.719765   -0.311433
     21          6           0        7.222245    3.289150   -0.127154
     22          6           0        4.349908    5.751575   -0.192687
     23          6           0        7.629034    6.044405   -0.561455
     24          8           0        8.867991    6.014484   -0.687310
     25          6           0        6.951889    7.388748   -0.701479
     26          7           0        8.260834    0.387119    0.251836
     27          6           0        9.049237    1.518256    0.093569
     28          6           0       10.535139    1.208668    0.199544
     29          6           0       10.455843   -0.364008    0.523179
     30          6           0        8.974355   -0.751299    0.445275
     31          6           0       11.234057    1.646597   -1.071951
     32          6           0       11.021805   -0.802296    1.919893
     33          6           0       12.334517   -1.564779    1.967866
     34          7           0        6.235550   -1.645446    0.202114
     35          6           0        7.305818   -2.551752    0.364319
     36          6           0        6.849553   -3.928900    0.245357
     37          6           0        5.464535   -3.827257    0.058244
     38          6           0        5.151775   -2.430736    0.017168
     39          6           0        7.664710   -5.144715    0.514724
     40          6           0        4.325663   -4.574996   -0.058188
     41          8           0        4.095357   -5.776762   -0.033704
     42          6           0        3.123069   -3.558170   -0.106853
     43          6           0        2.348248   -3.898325   -1.373709
     44          8           0        2.763401   -3.699290   -2.530924
     45          8           0        1.152415   -4.515953   -1.126948
     46          6           0        0.272047   -4.898277   -2.210133
     47          6           0       -3.967069   -1.075073    0.817231
     48          6           0       -4.961502   -1.103999   -0.316557
     49          6           0       -6.159028   -0.558736   -0.379808
     50          6           0       -6.800943    0.083048    0.809997
     51          6           0       -6.881491   -0.482299   -1.826632
     52          6           0       -8.391140   -0.756387   -1.932857
     53          6           0       -9.254028    0.469165   -1.495884
     54          6           0      -10.310073    0.956474   -2.627795
     55          6           0       -9.817465    2.150220   -3.493222
     56          6           0      -11.673628    1.398558   -1.970547
     57          6           0      -12.841304    0.569050   -2.531390
     58          6           0      -14.083659    0.752990   -1.637240
     59          6           0      -14.081924   -0.302924   -0.458135
     60          6           0      -14.707109   -1.615627   -0.984063
     61          6           0      -14.928565    0.297180    0.748969
     62          6           0      -14.229067    1.424647    1.551046
     63          6           0      -13.786272    0.822779    2.986239
     64          6           0      -12.434500    1.486701    3.498845
     65          6           0      -11.064365    0.785614    3.266678
     66          6           0      -12.655873    1.749214    5.021991
     67          1           0        2.834596    3.413012    0.083107
     68          1           0        9.222088    3.620120   -0.370599
     69          1           0        9.311135   -2.868344    0.687555
     70          1           0        1.352951   -0.965192   -0.991933
     71          1           0        1.078935    1.481095    0.563935
     72          1           0        0.574565    0.834696   -2.025844
     73          1           0        1.769246    2.223864   -1.984943
     74          1           0        0.134397    2.335792   -1.295938
     75          1           0        0.345067   -0.231287    1.754171
     76          1           0        1.607692   -1.482526    1.817430
     77          1           0       -0.084404   -2.986959    1.388317
     78          1           0       -0.174368   -2.248452   -0.173428
     79          1           0        4.290592    6.361073    0.709297
     80          1           0        3.335782    5.419516   -0.415107
     81          1           0        4.568738    6.378618   -1.057918
     82          1           0        6.518273    7.500609   -1.695222
     83          1           0        7.738520    8.096507   -0.438632
     84          1           0        6.106562    7.587918   -0.042967
     85          1           0       10.989917    1.701797    1.058925
     86          1           0       10.927498   -0.933207   -0.276789
     87          1           0       11.291469    0.787178   -1.740968
     88          1           0       12.204255    2.067097   -0.805822
     89          1           0       10.734834    2.456240   -1.603058
     90          1           0       10.326202   -1.542887    2.315598
     91          1           0       11.003504    0.020046    2.634260
     92          1           0       12.086055   -2.603717    2.182696
     93          1           0       12.935016   -1.180757    2.793385
     94          1           0       12.847889   -1.574632    1.007157
     95          1           0        8.577618   -5.007012    1.095103
     96          1           0        7.993003   -5.576794   -0.429852
     97          1           0        6.871970   -5.773029    0.921432
     98          1           0        2.434040   -3.633403    0.734039
     99          1           0       -0.316450   -4.007582   -2.428989
    100          1           0       -0.360852   -5.717552   -1.869374
    101          1           0        0.775443   -5.141645   -3.145901
    102          1           0       -4.025426   -0.103437    1.308359
    103          1           0       -4.396319   -1.864772    1.433727
    104          1           0       -4.571183   -1.629866   -1.187933
    105          1           0       -6.232341    0.113366    1.739819
    106          1           0       -7.732256   -0.462283    0.964918
    107          1           0       -7.019707    1.077108    0.421308
    108          1           0       -6.421470   -1.080388   -2.613992
    109          1           0       -6.671351    0.496351   -2.257790
    110          1           0       -8.675855   -1.643453   -1.368354
    111          1           0       -8.581856   -0.948739   -2.989031
    112          1           0       -8.632679    1.312588   -1.193496
    113          1           0       -9.712622    0.095867   -0.579929
    114          1           0      -10.475192    0.179821   -3.374033
    115          1           0      -10.168265    3.162484   -3.293514
    116          1           0      -10.274468    1.987941   -4.469690
    117          1           0       -8.736478    2.205523   -3.623484
    118          1           0      -11.827180    2.456534   -2.183463
    119          1           0      -11.654036    1.188399   -0.901501
    120          1           0      -12.646439   -0.501842   -2.591188
    121          1           0      -13.188420    0.850002   -3.526205
    122          1           0      -15.044587    0.808011   -2.149466
    123          1           0      -14.016738    1.729243   -1.157391
    124          1           0      -13.070746   -0.644933   -0.238939
    125          1           0      -14.830398   -2.414018   -0.252144
    126          1           0      -13.914292   -1.981998   -1.636106
    127          1           0      -15.603440   -1.380638   -1.558156
    128          1           0      -14.894655   -0.584096    1.390012
    129          1           0      -15.903349    0.628888    0.391992
    130          1           0      -14.982056    2.188463    1.744823
    131          1           0      -13.366417    1.875610    1.058566
    132          1           0      -13.599304   -0.246844    2.890496
    133          1           0      -14.647237    1.001949    3.630176
    134          1           0      -12.352240    2.470965    3.037669
    135          1           0      -10.338326    1.538771    2.962825
    136          1           0      -11.243348    0.168689    2.386516
    137          1           0      -10.647523    0.109580    4.014118
    138          1           0      -12.770191    2.802172    5.278233
    139          1           0      -11.886806    1.359457    5.688410
    140          1           0      -13.428348    1.060595    5.367033
 ---------------------------------------------------------------------

 SCF Done:  E(RB-LYP) =  -3007.37386730     A.U. after   21 cycles

 Excitation energies and oscillator strengths:

 Excited State   1:      Singlet-A      1.8147 eV  683.20 nm  f=0.3070  <S**2>=0.000
     245 -> 248        0.17723
     246 -> 247        0.68237
     246 <- 247       -0.14693
 This state for optimization and/or second-order correction.
 Total Energy, E(TD-HF/TD-DFT) =  -3007.30717670
 Copying the excited state density for this state as the 1-particle RhoCI density.

 Excited State   2:      Singlet-A      1.9072 eV  650.08 nm  f=0.0244  <S**2>=0.000
     244 -> 247        0.60220
     245 -> 247       -0.34356

 Excited State   3:      Singlet-A      2.0146 eV  615.42 nm  f=0.0628  <S**2>=0.000
     244 -> 247        0.35837
     245 -> 247        0.55293
     246 -> 248       -0.19962
     246 -> 249        0.11843

 Excited State   4:      Singlet-A      2.2241 eV  557.45 nm  f=0.0002  <S**2>=0.000
     243 -> 247        0.70603

 Excited State   5:      Singlet-A      2.2685 eV  546.54 nm  f=0.0000  <S**2>=0.000
     242 -> 247        0.70710

 The electronic state is 1-A.
 Alpha  occ. eigenvalues --  -46.27446 -18.83385 -18.81907 -18.76749 -18.76698
 Alpha  occ. eigenvalues --  -18.75763 -18.75225 -14.03621 -14.03230 -14.01624
 Alpha  occ. eigenvalues --  -14.01015 -10.04730 -10.03687 -10.01475  -9.98816
 Alpha  occ. eigenvalues --   -9.98071  -9.97610  -9.97228  -9.96912  -9.96516
 Alpha  occ. eigenvalues --   -9.96505  -9.96410  -9.96101  -9.95323  -9.94894
 Alpha  occ. eigenvalues --   -9.94681  -9.94228  -9.94102  -9.94036  -9.93984
 Alpha  occ. eigenvalues --   -9.93968  -9.93905  -9.93889  -9.93821  -9.93771
 Alpha  occ. eigenvalues --   -9.93651  -9.93476  -9.93144  -9.92752  -9.92716
 Alpha  occ. eigenvalues --   -9.92673  -9.92668  -9.92633  -9.92601  -9.92562
 Alpha  occ. eigenvalues --   -9.92559  -9.92391  -9.92330  -9.92262  -9.92007
 Alpha  occ. eigenvalues --   -9.91897  -9.91790  -9.91765  -9.91691  -9.91575
 Alpha  occ. eigenvalues --   -9.91370  -9.91312  -9.91305  -9.91138  -9.91094
 Alpha  occ. eigenvalues --   -9.91043  -9.90959  -9.90942  -9.90727  -9.90637
 Alpha  occ. eigenvalues --   -9.90243  -2.92119  -1.72534  -1.71987  -1.71850
 Alpha  occ. eigenvalues --   -0.97370  -0.97062  -0.91220  -0.91059  -0.88537
 Alpha  occ. eigenvalues --   -0.88215  -0.86555  -0.85828  -0.85627  -0.84734
 Alpha  occ. eigenvalues --   -0.75263  -0.73327  -0.72936  -0.72608  -0.72304
 Alpha  occ. eigenvalues --   -0.71637  -0.71263  -0.71193  -0.70687  -0.70284
 Alpha  occ. eigenvalues --   -0.69962  -0.69252  -0.68306  -0.67978  -0.67206
 Alpha  occ. eigenvalues --   -0.66324  -0.65951  -0.65577  -0.65197  -0.64685
 Alpha  occ. eigenvalues --   -0.64198  -0.62949  -0.62481  -0.61884  -0.60902
 Alpha  occ. eigenvalues --   -0.60740  -0.60221  -0.59955  -0.58980  -0.58392
 Alpha  occ. eigenvalues --   -0.58047  -0.57733  -0.56938  -0.55917  -0.54387
 Alpha  occ. eigenvalues --   -0.53881  -0.53289  -0.52705  -0.52002  -0.51552
 Alpha  occ. eigenvalues --   -0.51354  -0.51179  -0.51092  -0.50429  -0.50144
 Alpha  occ. eigenvalues --   -0.49850  -0.49356  -0.48588  -0.48520  -0.46899
 Alpha  occ. eigenvalues --   -0.46326  -0.46089  -0.45603  -0.45181  -0.44569
 Alpha  occ. eigenvalues --   -0.44131  -0.43741  -0.43169  -0.43056  -0.42432
 Alpha  occ. eigenvalues --   -0.42152  -0.41769  -0.41485  -0.41221  -0.40925
 Alpha  occ. eigenvalues --   -0.40735  -0.40689  -0.40527  -0.40409  -0.40160
 Alpha  occ. eigenvalues --   -0.39919  -0.39759  -0.39531  -0.39511  -0.39301
 Alpha  occ. eigenvalues --   -0.38878  -0.38743  -0.38668  -0.38552  -0.38217
 Alpha  occ. eigenvalues --   -0.38043  -0.37761  -0.37646  -0.37474  -0.37325
 Alpha  occ. eigenvalues --   -0.37076  -0.36960  -0.36605  -0.36468  -0.36391
 Alpha  occ. eigenvalues --   -0.36292  -0.36148  -0.35936  -0.35809  -0.35608
 Alpha  occ. eigenvalues --   -0.35430  -0.35247  -0.35080  -0.35054  -0.34938
 Alpha  occ. eigenvalues --   -0.34472  -0.34353  -0.34320  -0.34248  -0.34134
 Alpha  occ. eigenvalues --   -0.34054  -0.33724  -0.33628  -0.33417  -0.33080
 Alpha  occ. eigenvalues --   -0.32909  -0.32888  -0.32699  -0.32584  -0.32351
 Alpha  occ. eigenvalues --   -0.32151  -0.31939  -0.31888  -0.31669  -0.31579
 Alpha  occ. eigenvalues --   -0.31447  -0.31034  -0.30912  -0.30687  -0.30470
 Alpha  occ. eigenvalues --   -0.30420  -0.30333  -0.30130  -0.29983  -0.29885
 Alpha  occ. eigenvalues --   -0.29777  -0.29524  -0.28956  -0.28894  -0.28718
 Alpha  occ. eigenvalues --   -0.28676  -0.28464  -0.28311  -0.28257  -0.27595
 Alpha  occ. eigenvalues --   -0.27473  -0.27247  -0.27081  -0.26721  -0.26561
 Alpha  occ. eigenvalues --   -0.26299  -0.26296  -0.26100  -0.25745  -0.25621
 Alpha  occ. eigenvalues --   -0.25195  -0.24296  -0.24274  -0.24021  -0.23444
 Alpha  occ. eigenvalues --   -0.22941  -0.22231  -0.21581  -0.21260  -0.20936
 Alpha  occ. eigenvalues --   -0.20756  -0.20039  -0.19800  -0.18662  -0.17400
 Alpha  occ. eigenvalues --   -0.16008
 Alpha virt. eigenvalues --   -0.11702  -0.07286  -0.06548  -0.04912  -0.04183
 Alpha virt. eigenvalues --   -0.03052  -0.02401  -0.01557  -0.00543  -0.00225
 Alpha virt. eigenvalues --    0.01132   0.01176   0.01869   0.02460   0.02630

 Mulliken charges:
               1
     1  Mg   0.710041
     2  C    0.029452
     3  C   -0.073394
     4  C   -0.025332
     5  C   -0.091987
     6  N   -0.184597
     7  C   -0.112967
     8  C    0.029201
     9  C   -0.018373
    10  C   -0.012396
    11  C    0.135994
    12  C    0.147678
    13  C    0.150985
    14  C    0.088923
    15  O   -0.241697
    16  O   -0.266657
    17  N   -0.303153
    18  C    0.186708
    19  C   -0.148452
    20  C    0.029273
    21  C    0.032515
    22  C    0.151694
    23  C   -0.027857
    24  O   -0.176729
    25  C    0.112834
    26  N   -0.252040
    27  C    0.045148
    28  C    0.047621
    29  C    0.027834
    30  C    0.081771
    31  C    0.136014
    32  C    0.071132
    33  C    0.081769
    34  N   -0.241571
    35  C    0.089673
    36  C   -0.165834
    37  C    0.159543
    38  C    0.047528
    39  C    0.178552
    40  C   -0.099556
    41  O   -0.139152
    42  C    0.054428
    43  C    0.102381
    44  O   -0.210586
    45  O   -0.260723
    46  C    0.220694
    47  C    0.322608
    48  C   -0.152267
    49  C   -0.128830
    50  C    0.164828
    51  C    0.097037
    52  C    0.061988
    53  C    0.076389
    54  C   -0.045325
    55  C    0.077418
    56  C    0.111840
    57  C    0.074374
    58  C    0.079134
    59  C   -0.105283
    60  C    0.110790
    61  C    0.110404
    62  C    0.060548
    63  C    0.077341
    64  C   -0.102056
    65  C    0.112372
    66  C    0.090458
    67  H   -0.062173
    68  H   -0.047241
    69  H   -0.069170
    70  H   -0.005976
    71  H   -0.032544
    72  H   -0.011664
    73  H    0.000922
    74  H   -0.009077
    75  H   -0.002769
    76  H   -0.014199
    77  H    0.013418
    78  H   -0.018764
    79  H    0.022544
    80  H   -0.026104
    81  H   -0.012844
    82  H    0.028758
    83  H    0.005717
    84  H   -0.008674
    85  H   -0.017839
    86  H   -0.031794
    87  H   -0.011693
    88  H   -0.010819
    89  H    0.002882
    90  H   -0.028019
    91  H   -0.024513
    92  H   -0.015009
    93  H   -0.005381
    94  H   -0.007644
    95  H   -0.003276
    96  H    0.001593
    97  H    0.020969
    98  H   -0.013518
    99  H    0.002580
   100  H    0.023523
   101  H    0.021351
   102  H    0.010696
   103  H    0.017499
   104  H   -0.040771
   105  H   -0.003737
   106  H    0.005963
   107  H    0.000618
   108  H   -0.041563
   109  H   -0.022331
   110  H   -0.020497
   111  H   -0.029491
   112  H   -0.024875
   113  H   -0.025746
   114  H   -0.021910
   115  H   -0.016566
   116  H   -0.025117
   117  H   -0.016959
   118  H   -0.025298
   119  H   -0.020360
   120  H   -0.033521
   121  H   -0.041184
   122  H   -0.041439
   123  H   -0.047329
   124  H   -0.037532
   125  H   -0.017069
   126  H   -0.031410
   127  H   -0.014574
   128  H   -0.028812
   129  H   -0.027603
   130  H   -0.031922
   131  H   -0.009217
   132  H   -0.025098
   133  H   -0.013671
   134  H   -0.030769
   135  H   -0.009356
   136  H   -0.029231
   137  H   -0.004065
   138  H   -0.004457
   139  H   -0.040292
   140  H   -0.024660
 Sum of Mulliken charges =  -0.00000

 Dipole moment (field-independent basis, Debye):
    X=             -2.2104    Y=              3.6826    Z=              0.7909  Tot=              4.3673
 Quadrupole moment (field-independent basis, Debye-Ang):
   XX=           -379.9787   YY=           -421.8254   ZZ=           -415.2822
   XY=             -9.4324   XZ=             27.9005   YZ=             -0.7241

 Normal termination of Gaussian 16 at Fri Apr 29 09:25:00 2022.
