 Gaussian 16, Revision A.03,
 Gaussian 16:  ES64L-G16RevA.03 25-Dec-2016

 -----------------------------------
 #p cam-b3lyp/Def2SVP td=(nstates=5)
 -----------------------------------

 -------------------------------------------------------
 step_201_chromophore_25 TDDFT with cam-b3lyp functional
 -------------------------------------------------------
 Symbolic Z-matrix:
 Charge =  0 Multiplicity = 1

                         Standard orientation:
 ---------------------------------------------------------------------
 Center     Atomic      Atomic             Coordinates (Angstroms)
 Number     Number       Type             X           Y           Z
 ---------------------------------------------------------------------
      1         12           0        6.194732    0.510321    0.383260
      2          6           0        3.754161   -2.159709   -0.085473
      3          6           0        3.665980    2.707526    0.035914
      4          6           0        8.553170    2.793479   -0.125790
      5          6           0        8.587233   -2.063629    0.545211
      6          7           0        3.946471    0.267376   -0.079783
      7          6           0        3.173084   -0.852033   -0.017600
      8          6           0        1.640818   -0.520168   -0.039491
      9          6           0        1.654064    1.020470   -0.238687
     10          6           0        3.157978    1.384045   -0.012811
     11          6           0        0.984642    1.674840   -1.464552
     12          6           0        0.830667   -1.033560    1.198916
     13          6           0       -0.288346   -2.038935    0.890533
     14          6           0       -1.722291   -1.661524    1.292217
     15          8           0       -2.027742   -1.571607    2.512982
     16          8           0       -2.618624   -1.349597    0.280943
     17          7           0        6.130543    2.501526    0.122946
     18          6           0        4.995563    3.213120    0.034798
     19          6           0        5.356632    4.597272   -0.180067
     20          6           0        6.775337    4.719765   -0.311433
     21          6           0        7.222245    3.289150   -0.127154
     22          6           0        4.349908    5.751575   -0.192687
     23          6           0        7.629034    6.044405   -0.561455
     24          8           0        8.867991    6.014484   -0.687310
     25          6           0        6.951889    7.388748   -0.701479
     26          7           0        8.260834    0.387119    0.251836
     27          6           0        9.049237    1.518256    0.093569
     28          6           0       10.535139    1.208668    0.199544
     29          6           0       10.455843   -0.364008    0.523179
     30          6           0        8.974355   -0.751299    0.445275
     31          6           0       11.234057    1.646597   -1.071951
     32          6           0       11.021805   -0.802296    1.919893
     33          6           0       12.334517   -1.564779    1.967866
     34          7           0        6.235550   -1.645446    0.202114
     35          6           0        7.305818   -2.551752    0.364319
     36          6           0        6.849553   -3.928900    0.245357
     37          6           0        5.464535   -3.827257    0.058244
     38          6           0        5.151775   -2.430736    0.017168
     39          6           0        7.664710   -5.144715    0.514724
     40          6           0        4.325663   -4.574996   -0.058188
     41          8           0        4.095357   -5.776762   -0.033704
     42          6           0        3.123069   -3.558170   -0.106853
     43          6           0        2.348248   -3.898325   -1.373709
     44          8           0        2.763401   -3.699290   -2.530924
     45          8           0        1.152415   -4.515953   -1.126948
     46          6           0        0.272047   -4.898277   -2.210133
     47          6           0       -3.967069   -1.075073    0.817231
     48          6           0       -4.961502   -1.103999   -0.316557
     49          6           0       -6.159028   -0.558736   -0.379808
     50          6           0       -6.800943    0.083048    0.809997
     51          6           0       -6.881491   -0.482299   -1.826632
     52          6           0       -8.391140   -0.756387   -1.932857
     53          6           0       -9.254028    0.469165   -1.495884
     54          6           0      -10.310073    0.956474   -2.627795
     55          6           0       -9.817465    2.150220   -3.493222
     56          6           0      -11.673628    1.398558   -1.970547
     57          6           0      -12.841304    0.569050   -2.531390
     58          6           0      -14.083659    0.752990   -1.637240
     59          6           0      -14.081924   -0.302924   -0.458135
     60          6           0      -14.707109   -1.615627   -0.984063
     61          6           0      -14.928565    0.297180    0.748969
     62          6           0      -14.229067    1.424647    1.551046
     63          6           0      -13.786272    0.822779    2.986239
     64          6           0      -12.434500    1.486701    3.498845
     65          6           0      -11.064365    0.785614    3.266678
     66          6           0      -12.655873    1.749214    5.021991
     67          1           0        2.834596    3.413012    0.083107
     68          1           0        9.222088    3.620120   -0.370599
     69          1           0        9.311135   -2.868344    0.687555
     70          1           0        1.352951   -0.965192   -0.991933
     71          1           0        1.078935    1.481095    0.563935
     72          1           0        0.574565    0.834696   -2.025844
     73          1           0        1.769246    2.223864   -1.984943
     74          1           0        0.134397    2.335792   -1.295938
     75          1           0        0.345067   -0.231287    1.754171
     76          1           0        1.607692   -1.482526    1.817430
     77          1           0       -0.084404   -2.986959    1.388317
     78          1           0       -0.174368   -2.248452   -0.173428
     79          1           0        4.290592    6.361073    0.709297
     80          1           0        3.335782    5.419516   -0.415107
     81          1           0        4.568738    6.378618   -1.057918
     82          1           0        6.518273    7.500609   -1.695222
     83          1           0        7.738520    8.096507   -0.438632
     84          1           0        6.106562    7.587918   -0.042967
     85          1           0       10.989917    1.701797    1.058925
     86          1           0       10.927498   -0.933207   -0.276789
     87          1           0       11.291469    0.787178   -1.740968
     88          1           0       12.204255    2.067097   -0.805822
     89          1           0       10.734834    2.456240   -1.603058
     90          1           0       10.326202   -1.542887    2.315598
     91          1           0       11.003504    0.020046    2.634260
     92          1           0       12.086055   -2.603717    2.182696
     93          1           0       12.935016   -1.180757    2.793385
     94          1           0       12.847889   -1.574632    1.007157
     95          1           0        8.577618   -5.007012    1.095103
     96          1           0        7.993003   -5.576794   -0.429852
     97          1           0        6.871970   -5.773029    0.921432
     98          1           0        2.434040   -3.633403    0.734039
     99          1           0       -0.316450   -4.007582   -2.428989
    100          1           0       -0.360852   -5.717552   -1.869374
    101          1           0        0.775443   -5.141645   -3.145901
    102          1           0       -4.025426   -0.103437    1.308359
    103          1           0       -4.396319   -1.864772    1.433727
    104          1           0       -4.571183   -1.629866   -1.187933
    105          1           0       -6.232341    0.113366    1.739819
    106          1           0       -7.732256   -0.462283    0.964918
    107          1           0       -7.019707    1.077108    0.421308
    108          1           0       -6.421470   -1.080388   -2.613992
    109          1           0       -6.671351    0.496351   -2.257790
    110          1           0       -8.675855   -1.643453   -1.368354
    111          1           0       -8.581856   -0.948739   -2.989031
    112          1           0       -8.632679    1.312588   -1.193496
    113          1           0       -9.712622    0.095867   -0.579929
    114          1           0      -10.475192    0.179821   -3.374033
    115          1           0      -10.168265    3.162484   -3.293514
    116          1           0      -10.274468    1.987941   -4.469690
    117          1           0       -8.736478    2.205523   -3.623484
    118          1           0      -11.827180    2.456534   -2.183463
    119          1           0      -11.654036    1.188399   -0.901501
    120          1           0      -12.646439   -0.501842   -2.591188
    121          1           0      -13.188420    0.850002   -3.526205
    122          1           0      -15.044587    0.808011   -2.149466
    123          1           0      -14.016738    1.729243   -1.157391
    124          1           0      -13.070746   -0.644933   -0.238939
    125          1           0      -14.830398   -2.414018   -0.252144
    126          1           0      -13.914292   -1.981998   -1.636106
    127          1           0      -15.603440   -1.380638   -1.558156
    128          1           0      -14.894655   -0.584096    1.390012
    129          1           0      -15.903349    0.628888    0.391992
    130          1           0      -14.982056    2.188463    1.744823
    131          1           0      -13.366417    1.875610    1.058566
    132          1           0      -13.599304   -0.246844    2.890496
    133          1           0      -14.647237    1.001949    3.630176
    134          1           0      -12.352240    2.470965    3.037669
    135          1           0      -10.338326    1.538771    2.962825
    136          1           0      -11.243348    0.168689    2.386516
    137          1           0      -10.647523    0.109580    4.014118
    138          1           0      -12.770191    2.802172    5.278233
    139          1           0      -11.886806    1.359457    5.688410
    140          1           0      -13.428348    1.060595    5.367033
 ---------------------------------------------------------------------

 SCF Done:  E(RCAM-B3LYP) =  -3007.15364638     A.U. after   19 cycles

 Excitation energies and oscillator strengths:

 Excited State   1:      Singlet-A      1.7066 eV  726.49 nm  f=0.4003  <S**2>=0.000
     245 -> 248        0.18378
     246 -> 247        0.68431
     245 <- 248        0.10824
 This state for optimization and/or second-order correction.
 Total Energy, E(TD-HF/TD-DFT) =  -3007.09092949
 Copying the excited state density for this state as the 1-particle RhoCI density.

 Excited State   2:      Singlet-A      2.2207 eV  558.32 nm  f=0.1073  <S**2>=0.000
     245 -> 247        0.63765
     246 -> 248       -0.29411

 Excited State   3:      Singlet-A      3.4054 eV  364.08 nm  f=0.0427  <S**2>=0.000
     240 -> 247       -0.13257
     241 -> 247        0.49476
     241 -> 249       -0.22973
     241 -> 250       -0.12786
     241 -> 251        0.14111
     242 -> 247        0.21596
     243 -> 247       -0.12343
     246 -> 248       -0.19798

 Excited State   4:      Singlet-A      3.4591 eV  358.42 nm  f=0.1633  <S**2>=0.000
     241 -> 247        0.13794
     242 -> 247        0.13153
     243 -> 247        0.51703
     245 -> 247        0.13915
     246 -> 248        0.37879

 Excited State   5:      Singlet-A      3.5500 eV  349.25 nm  f=0.4241  <S**2>=0.000
     242 -> 247        0.22665
     243 -> 247       -0.43610
     245 -> 247        0.22105
     246 -> 248        0.44063

 The electronic state is 1-A.
 Alpha  occ. eigenvalues --  -46.89000 -19.26333 -19.24904 -19.19963 -19.19784
 Alpha  occ. eigenvalues --  -19.18926 -19.18451 -14.42531 -14.42057 -14.40104
 Alpha  occ. eigenvalues --  -14.39478 -10.40187 -10.39266 -10.36831 -10.34206
 Alpha  occ. eigenvalues --  -10.32113 -10.31853 -10.31616 -10.31396 -10.30939
 Alpha  occ. eigenvalues --  -10.30888 -10.30768 -10.30349 -10.29628 -10.29331
 Alpha  occ. eigenvalues --  -10.28823 -10.28683 -10.28661 -10.28409 -10.28318
 Alpha  occ. eigenvalues --  -10.28263 -10.28230 -10.27960 -10.27952 -10.27663
 Alpha  occ. eigenvalues --  -10.27645 -10.27545 -10.27092 -10.26921 -10.26723
 Alpha  occ. eigenvalues --  -10.26632 -10.26554 -10.26444 -10.26393 -10.26362
 Alpha  occ. eigenvalues --  -10.26274 -10.26209 -10.26087 -10.26058 -10.25815
 Alpha  occ. eigenvalues --  -10.25515 -10.25472 -10.25458 -10.25333 -10.25332
 Alpha  occ. eigenvalues --  -10.25081 -10.25050 -10.25027 -10.24930 -10.24909
 Alpha  occ. eigenvalues --  -10.24805 -10.24760 -10.24714 -10.24439 -10.24260
 Alpha  occ. eigenvalues --  -10.23830  -3.17577  -1.92466  -1.92012  -1.91898
 Alpha  occ. eigenvalues --   -1.15779  -1.15612  -1.09620  -1.09523  -1.06414
 Alpha  occ. eigenvalues --   -1.06227  -1.04248  -1.03464  -1.03256  -1.02257
 Alpha  occ. eigenvalues --   -0.92452  -0.90207  -0.89762  -0.89417  -0.88996
 Alpha  occ. eigenvalues --   -0.88166  -0.87919  -0.87861  -0.87277  -0.86832
 Alpha  occ. eigenvalues --   -0.86604  -0.85665  -0.84590  -0.84165  -0.83350
 Alpha  occ. eigenvalues --   -0.82382  -0.82017  -0.81676  -0.81002  -0.80534
 Alpha  occ. eigenvalues --   -0.80025  -0.78678  -0.78124  -0.77431  -0.76363
 Alpha  occ. eigenvalues --   -0.76174  -0.75577  -0.75226  -0.74225  -0.73568
 Alpha  occ. eigenvalues --   -0.73150  -0.72783  -0.71832  -0.70785  -0.69080
 Alpha  occ. eigenvalues --   -0.68366  -0.67838  -0.67204  -0.66332  -0.65728
 Alpha  occ. eigenvalues --   -0.65378  -0.65286  -0.65261  -0.64385  -0.64112
 Alpha  occ. eigenvalues --   -0.63774  -0.63326  -0.62403  -0.62299  -0.60529
 Alpha  occ. eigenvalues --   -0.59929  -0.59615  -0.59105  -0.58486  -0.58041
 Alpha  occ. eigenvalues --   -0.57585  -0.57327  -0.56371  -0.56205  -0.55590
 Alpha  occ. eigenvalues --   -0.55373  -0.54704  -0.54430  -0.53978  -0.53924
 Alpha  occ. eigenvalues --   -0.53613  -0.53456  -0.53362  -0.53081  -0.52780
 Alpha  occ. eigenvalues --   -0.52671  -0.52397  -0.52345  -0.52266  -0.51924
 Alpha  occ. eigenvalues --   -0.51451  -0.51274  -0.51078  -0.51005  -0.50936
 Alpha  occ. eigenvalues --   -0.50403  -0.49972  -0.49930  -0.49726  -0.49575
 Alpha  occ. eigenvalues --   -0.49453  -0.49362  -0.49080  -0.48866  -0.48786
 Alpha  occ. eigenvalues --   -0.48583  -0.48514  -0.48435  -0.47978  -0.47847
 Alpha  occ. eigenvalues --   -0.47703  -0.47144  -0.47080  -0.46946  -0.46808
 Alpha  occ. eigenvalues --   -0.46361  -0.46237  -0.46150  -0.46099  -0.46071
 Alpha  occ. eigenvalues --   -0.45962  -0.45466  -0.45337  -0.45154  -0.45019
 Alpha  occ. eigenvalues --   -0.44641  -0.44469  -0.44454  -0.44279  -0.43979
 Alpha  occ. eigenvalues --   -0.43820  -0.43593  -0.43429  -0.43273  -0.43268
 Alpha  occ. eigenvalues --   -0.43203  -0.42703  -0.42370  -0.42232  -0.42001
 Alpha  occ. eigenvalues --   -0.41723  -0.41691  -0.41377  -0.41237  -0.41145
 Alpha  occ. eigenvalues --   -0.40984  -0.40914  -0.40782  -0.40087  -0.39773
 Alpha  occ. eigenvalues --   -0.39720  -0.39443  -0.39364  -0.39200  -0.38473
 Alpha  occ. eigenvalues --   -0.38318  -0.38046  -0.37984  -0.37891  -0.37342
 Alpha  occ. eigenvalues --   -0.37138  -0.37079  -0.36908  -0.36759  -0.36616
 Alpha  occ. eigenvalues --   -0.35805  -0.35769  -0.34705  -0.34456  -0.33905
 Alpha  occ. eigenvalues --   -0.33651  -0.33229  -0.33204  -0.32104  -0.31339
 Alpha  occ. eigenvalues --   -0.30837  -0.30651  -0.30120  -0.29851  -0.24168
 Alpha  occ. eigenvalues --   -0.21258
 Alpha virt. eigenvalues --   -0.08832  -0.01996  -0.00198   0.01879   0.02052
 Alpha virt. eigenvalues --    0.03570   0.05128   0.05647   0.06858   0.06947
 Alpha virt. eigenvalues --    0.07046   0.07624   0.08391   0.08823   0.09106

 Mulliken charges:
               1
     1  Mg   0.841080
     2  C    0.003630
     3  C   -0.089360
     4  C   -0.043563
     5  C   -0.098296
     6  N   -0.251327
     7  C   -0.067357
     8  C   -0.024618
     9  C   -0.062405
    10  C    0.005310
    11  C    0.075760
    12  C    0.090832
    13  C    0.085529
    14  C    0.168709
    15  O   -0.282094
    16  O   -0.331340
    17  N   -0.394302
    18  C    0.194933
    19  C   -0.159824
    20  C   -0.035898
    21  C    0.059499
    22  C    0.094943
    23  C    0.050281
    24  O   -0.217080
    25  C    0.032628
    26  N   -0.327880
    27  C    0.061426
    28  C   -0.002319
    29  C   -0.029327
    30  C    0.100270
    31  C    0.074712
    32  C    0.012262
    33  C    0.020619
    34  N   -0.327275
    35  C    0.093318
    36  C   -0.145502
    37  C    0.064892
    38  C    0.087853
    39  C    0.123017
    40  C   -0.003777
    41  O   -0.178145
    42  C   -0.015962
    43  C    0.192100
    44  O   -0.247673
    45  O   -0.325619
    46  C    0.181607
    47  C    0.286982
    48  C   -0.168156
    49  C   -0.151074
    50  C    0.097780
    51  C    0.046964
    52  C    0.006398
    53  C    0.025982
    54  C   -0.100901
    55  C    0.022366
    56  C    0.063039
    57  C    0.021482
    58  C    0.024504
    59  C   -0.159552
    60  C    0.056625
    61  C    0.054789
    62  C    0.008671
    63  C    0.024982
    64  C   -0.159857
    65  C    0.057286
    66  C    0.029494
    67  H   -0.027030
    68  H   -0.007561
    69  H   -0.033780
    70  H    0.026830
    71  H    0.002935
    72  H    0.012610
    73  H    0.026702
    74  H    0.016579
    75  H    0.029084
    76  H    0.018349
    77  H    0.045241
    78  H    0.011986
    79  H    0.047504
    80  H    0.002435
    81  H    0.012660
    82  H    0.055160
    83  H    0.039225
    84  H    0.021158
    85  H    0.016725
    86  H    0.002859
    87  H    0.012906
    88  H    0.014142
    89  H    0.028383
    90  H    0.003011
    91  H    0.004576
    92  H    0.007065
    93  H    0.018956
    94  H    0.015256
    95  H    0.021799
    96  H    0.030477
    97  H    0.047030
    98  H    0.027775
    99  H    0.022446
   100  H    0.046232
   101  H    0.047836
   102  H    0.036574
   103  H    0.045965
   104  H   -0.004757
   105  H    0.022325
   106  H    0.027586
   107  H    0.023003
   108  H   -0.009165
   109  H    0.005067
   110  H    0.007616
   111  H   -0.000326
   112  H    0.001293
   113  H   -0.000358
   114  H    0.008425
   115  H    0.007416
   116  H   -0.000675
   117  H    0.005747
   118  H    0.003335
   119  H    0.002743
   120  H   -0.008124
   121  H   -0.011254
   122  H   -0.010559
   123  H   -0.017986
   124  H   -0.008624
   125  H    0.008618
   126  H   -0.007713
   127  H    0.008143
   128  H   -0.001625
   129  H    0.001030
   130  H   -0.002189
   131  H    0.013281
   132  H    0.000773
   133  H    0.015664
   134  H    0.001293
   135  H    0.013775
   136  H   -0.009811
   137  H    0.019338
   138  H    0.019282
   139  H   -0.014367
   140  H   -0.000390
 Sum of Mulliken charges =  -0.00000

 Dipole moment (field-independent basis, Debye):
    X=             -2.3915    Y=              4.0412    Z=              0.7504  Tot=              4.7554
 Quadrupole moment (field-independent basis, Debye-Ang):
   XX=           -379.7026   YY=           -417.2562   ZZ=           -415.6855
   XY=             -8.0243   XZ=             29.2897   YZ=             -0.9212

 Normal termination of Gaussian 16 at Fri Apr 29 08:21:19 2022.
