 Gaussian 16, Revision A.03,
 Gaussian 16:  ES64L-G16RevA.03 25-Dec-2016

 ---------------------------------
 #p PBE1PBE/Def2SVP td=(nstates=5)
 ---------------------------------

 -----------------------------------------------------
 step_201_chromophore_25 TDDFT with PBE1PBE functional
 -----------------------------------------------------
 Symbolic Z-matrix:
 Charge =  0 Multiplicity = 1

                         Standard orientation:
 ---------------------------------------------------------------------
 Center     Atomic      Atomic             Coordinates (Angstroms)
 Number     Number       Type             X           Y           Z
 ---------------------------------------------------------------------
      1         12           0        6.194732    0.510321    0.383260
      2          6           0        3.754161   -2.159709   -0.085473
      3          6           0        3.665980    2.707526    0.035914
      4          6           0        8.553170    2.793479   -0.125790
      5          6           0        8.587233   -2.063629    0.545211
      6          7           0        3.946471    0.267376   -0.079783
      7          6           0        3.173084   -0.852033   -0.017600
      8          6           0        1.640818   -0.520168   -0.039491
      9          6           0        1.654064    1.020470   -0.238687
     10          6           0        3.157978    1.384045   -0.012811
     11          6           0        0.984642    1.674840   -1.464552
     12          6           0        0.830667   -1.033560    1.198916
     13          6           0       -0.288346   -2.038935    0.890533
     14          6           0       -1.722291   -1.661524    1.292217
     15          8           0       -2.027742   -1.571607    2.512982
     16          8           0       -2.618624   -1.349597    0.280943
     17          7           0        6.130543    2.501526    0.122946
     18          6           0        4.995563    3.213120    0.034798
     19          6           0        5.356632    4.597272   -0.180067
     20          6           0        6.775337    4.719765   -0.311433
     21          6           0        7.222245    3.289150   -0.127154
     22          6           0        4.349908    5.751575   -0.192687
     23          6           0        7.629034    6.044405   -0.561455
     24          8           0        8.867991    6.014484   -0.687310
     25          6           0        6.951889    7.388748   -0.701479
     26          7           0        8.260834    0.387119    0.251836
     27          6           0        9.049237    1.518256    0.093569
     28          6           0       10.535139    1.208668    0.199544
     29          6           0       10.455843   -0.364008    0.523179
     30          6           0        8.974355   -0.751299    0.445275
     31          6           0       11.234057    1.646597   -1.071951
     32          6           0       11.021805   -0.802296    1.919893
     33          6           0       12.334517   -1.564779    1.967866
     34          7           0        6.235550   -1.645446    0.202114
     35          6           0        7.305818   -2.551752    0.364319
     36          6           0        6.849553   -3.928900    0.245357
     37          6           0        5.464535   -3.827257    0.058244
     38          6           0        5.151775   -2.430736    0.017168
     39          6           0        7.664710   -5.144715    0.514724
     40          6           0        4.325663   -4.574996   -0.058188
     41          8           0        4.095357   -5.776762   -0.033704
     42          6           0        3.123069   -3.558170   -0.106853
     43          6           0        2.348248   -3.898325   -1.373709
     44          8           0        2.763401   -3.699290   -2.530924
     45          8           0        1.152415   -4.515953   -1.126948
     46          6           0        0.272047   -4.898277   -2.210133
     47          6           0       -3.967069   -1.075073    0.817231
     48          6           0       -4.961502   -1.103999   -0.316557
     49          6           0       -6.159028   -0.558736   -0.379808
     50          6           0       -6.800943    0.083048    0.809997
     51          6           0       -6.881491   -0.482299   -1.826632
     52          6           0       -8.391140   -0.756387   -1.932857
     53          6           0       -9.254028    0.469165   -1.495884
     54          6           0      -10.310073    0.956474   -2.627795
     55          6           0       -9.817465    2.150220   -3.493222
     56          6           0      -11.673628    1.398558   -1.970547
     57          6           0      -12.841304    0.569050   -2.531390
     58          6           0      -14.083659    0.752990   -1.637240
     59          6           0      -14.081924   -0.302924   -0.458135
     60          6           0      -14.707109   -1.615627   -0.984063
     61          6           0      -14.928565    0.297180    0.748969
     62          6           0      -14.229067    1.424647    1.551046
     63          6           0      -13.786272    0.822779    2.986239
     64          6           0      -12.434500    1.486701    3.498845
     65          6           0      -11.064365    0.785614    3.266678
     66          6           0      -12.655873    1.749214    5.021991
     67          1           0        2.834596    3.413012    0.083107
     68          1           0        9.222088    3.620120   -0.370599
     69          1           0        9.311135   -2.868344    0.687555
     70          1           0        1.352951   -0.965192   -0.991933
     71          1           0        1.078935    1.481095    0.563935
     72          1           0        0.574565    0.834696   -2.025844
     73          1           0        1.769246    2.223864   -1.984943
     74          1           0        0.134397    2.335792   -1.295938
     75          1           0        0.345067   -0.231287    1.754171
     76          1           0        1.607692   -1.482526    1.817430
     77          1           0       -0.084404   -2.986959    1.388317
     78          1           0       -0.174368   -2.248452   -0.173428
     79          1           0        4.290592    6.361073    0.709297
     80          1           0        3.335782    5.419516   -0.415107
     81          1           0        4.568738    6.378618   -1.057918
     82          1           0        6.518273    7.500609   -1.695222
     83          1           0        7.738520    8.096507   -0.438632
     84          1           0        6.106562    7.587918   -0.042967
     85          1           0       10.989917    1.701797    1.058925
     86          1           0       10.927498   -0.933207   -0.276789
     87          1           0       11.291469    0.787178   -1.740968
     88          1           0       12.204255    2.067097   -0.805822
     89          1           0       10.734834    2.456240   -1.603058
     90          1           0       10.326202   -1.542887    2.315598
     91          1           0       11.003504    0.020046    2.634260
     92          1           0       12.086055   -2.603717    2.182696
     93          1           0       12.935016   -1.180757    2.793385
     94          1           0       12.847889   -1.574632    1.007157
     95          1           0        8.577618   -5.007012    1.095103
     96          1           0        7.993003   -5.576794   -0.429852
     97          1           0        6.871970   -5.773029    0.921432
     98          1           0        2.434040   -3.633403    0.734039
     99          1           0       -0.316450   -4.007582   -2.428989
    100          1           0       -0.360852   -5.717552   -1.869374
    101          1           0        0.775443   -5.141645   -3.145901
    102          1           0       -4.025426   -0.103437    1.308359
    103          1           0       -4.396319   -1.864772    1.433727
    104          1           0       -4.571183   -1.629866   -1.187933
    105          1           0       -6.232341    0.113366    1.739819
    106          1           0       -7.732256   -0.462283    0.964918
    107          1           0       -7.019707    1.077108    0.421308
    108          1           0       -6.421470   -1.080388   -2.613992
    109          1           0       -6.671351    0.496351   -2.257790
    110          1           0       -8.675855   -1.643453   -1.368354
    111          1           0       -8.581856   -0.948739   -2.989031
    112          1           0       -8.632679    1.312588   -1.193496
    113          1           0       -9.712622    0.095867   -0.579929
    114          1           0      -10.475192    0.179821   -3.374033
    115          1           0      -10.168265    3.162484   -3.293514
    116          1           0      -10.274468    1.987941   -4.469690
    117          1           0       -8.736478    2.205523   -3.623484
    118          1           0      -11.827180    2.456534   -2.183463
    119          1           0      -11.654036    1.188399   -0.901501
    120          1           0      -12.646439   -0.501842   -2.591188
    121          1           0      -13.188420    0.850002   -3.526205
    122          1           0      -15.044587    0.808011   -2.149466
    123          1           0      -14.016738    1.729243   -1.157391
    124          1           0      -13.070746   -0.644933   -0.238939
    125          1           0      -14.830398   -2.414018   -0.252144
    126          1           0      -13.914292   -1.981998   -1.636106
    127          1           0      -15.603440   -1.380638   -1.558156
    128          1           0      -14.894655   -0.584096    1.390012
    129          1           0      -15.903349    0.628888    0.391992
    130          1           0      -14.982056    2.188463    1.744823
    131          1           0      -13.366417    1.875610    1.058566
    132          1           0      -13.599304   -0.246844    2.890496
    133          1           0      -14.647237    1.001949    3.630176
    134          1           0      -12.352240    2.470965    3.037669
    135          1           0      -10.338326    1.538771    2.962825
    136          1           0      -11.243348    0.168689    2.386516
    137          1           0      -10.647523    0.109580    4.014118
    138          1           0      -12.770191    2.802172    5.278233
    139          1           0      -11.886806    1.359457    5.688410
    140          1           0      -13.428348    1.060595    5.367033
 ---------------------------------------------------------------------

 SCF Done:  E(RPBE1PBE) =  -3005.34215158     A.U. after   15 cycles

 Excitation energies and oscillator strengths:

 Excited State   1:      Singlet-A      1.8664 eV  664.29 nm  f=0.3870  <S**2>=0.000
     245 -> 248        0.17361
     246 -> 247        0.69153
     246 <- 247       -0.10679
 This state for optimization and/or second-order correction.
 Total Energy, E(TD-HF/TD-DFT) =  -3005.27356214
 Copying the excited state density for this state as the 1-particle RhoCI density.

 Excited State   2:      Singlet-A      2.2211 eV  558.21 nm  f=0.1059  <S**2>=0.000
     245 -> 247        0.65040
     246 -> 248       -0.26080

 Excited State   3:      Singlet-A      2.9296 eV  423.21 nm  f=0.0002  <S**2>=0.000
     243 -> 247        0.67108
     243 -> 249       -0.15858
     243 -> 250       -0.11596

 Excited State   4:      Singlet-A      3.1648 eV  391.76 nm  f=0.0085  <S**2>=0.000
     242 -> 247        0.66611
     246 -> 248        0.20177

 Excited State   5:      Singlet-A      3.2807 eV  377.92 nm  f=0.1723  <S**2>=0.000
     241 -> 247        0.38855
     242 -> 247       -0.14073
     245 -> 247        0.15908
     246 -> 248        0.49651
     246 -> 249        0.16528

 The electronic state is 1-A.
 Alpha  occ. eigenvalues --  -46.92410 -19.27037 -19.25516 -19.20205 -19.20124
 Alpha  occ. eigenvalues --  -19.19128 -19.18651 -14.42031 -14.41605 -14.39747
 Alpha  occ. eigenvalues --  -14.39145 -10.37283 -10.36266 -10.34023 -10.31255
 Alpha  occ. eigenvalues --  -10.29588 -10.29544 -10.29164 -10.28811 -10.28685
 Alpha  occ. eigenvalues --  -10.28670 -10.28505 -10.28073 -10.27330 -10.26990
 Alpha  occ. eigenvalues --  -10.26634 -10.26388 -10.26271 -10.26142 -10.26061
 Alpha  occ. eigenvalues --  -10.26039 -10.25992 -10.25559 -10.25501 -10.25430
 Alpha  occ. eigenvalues --  -10.25423 -10.25305 -10.24601 -10.24542 -10.24304
 Alpha  occ. eigenvalues --  -10.24247 -10.24033 -10.23981 -10.23967 -10.23843
 Alpha  occ. eigenvalues --  -10.23832 -10.23785 -10.23719 -10.23600 -10.23549
 Alpha  occ. eigenvalues --  -10.23070 -10.23060 -10.22973 -10.22940 -10.22764
 Alpha  occ. eigenvalues --  -10.22715 -10.22657 -10.22597 -10.22458 -10.22350
 Alpha  occ. eigenvalues --  -10.22343 -10.22298 -10.22129 -10.22031 -10.21672
 Alpha  occ. eigenvalues --  -10.21239  -3.14564  -1.87394  -1.86919  -1.86809
 Alpha  occ. eigenvalues --   -1.10611  -1.10358  -1.04363  -1.04219  -1.01284
 Alpha  occ. eigenvalues --   -1.00989  -0.98892  -0.98124  -0.97866  -0.96911
 Alpha  occ. eigenvalues --   -0.86788  -0.84358  -0.83948  -0.83509  -0.83348
 Alpha  occ. eigenvalues --   -0.82478  -0.82177  -0.82001  -0.81590  -0.80939
 Alpha  occ. eigenvalues --   -0.80864  -0.79923  -0.78758  -0.78462  -0.77679
 Alpha  occ. eigenvalues --   -0.76548  -0.76237  -0.75885  -0.75269  -0.74849
 Alpha  occ. eigenvalues --   -0.74177  -0.72966  -0.72434  -0.71758  -0.70660
 Alpha  occ. eigenvalues --   -0.70346  -0.69670  -0.69593  -0.68380  -0.67788
 Alpha  occ. eigenvalues --   -0.67532  -0.67104  -0.66290  -0.65093  -0.63559
 Alpha  occ. eigenvalues --   -0.62736  -0.62061  -0.61648  -0.60581  -0.60186
 Alpha  occ. eigenvalues --   -0.59897  -0.59674  -0.59512  -0.58942  -0.58467
 Alpha  occ. eigenvalues --   -0.58090  -0.57518  -0.56865  -0.56557  -0.55094
 Alpha  occ. eigenvalues --   -0.54486  -0.54013  -0.53670  -0.53154  -0.52630
 Alpha  occ. eigenvalues --   -0.51968  -0.51770  -0.50902  -0.50684  -0.50197
 Alpha  occ. eigenvalues --   -0.49916  -0.49152  -0.48977  -0.48607  -0.48304
 Alpha  occ. eigenvalues --   -0.48205  -0.48021  -0.47897  -0.47528  -0.47328
 Alpha  occ. eigenvalues --   -0.47211  -0.46956  -0.46822  -0.46648  -0.46457
 Alpha  occ. eigenvalues --   -0.46068  -0.45878  -0.45572  -0.45487  -0.45451
 Alpha  occ. eigenvalues --   -0.44974  -0.44589  -0.44512  -0.44353  -0.44200
 Alpha  occ. eigenvalues --   -0.44044  -0.43988  -0.43699  -0.43509  -0.43429
 Alpha  occ. eigenvalues --   -0.43180  -0.43058  -0.43006  -0.42673  -0.42455
 Alpha  occ. eigenvalues --   -0.42335  -0.41779  -0.41763  -0.41578  -0.41398
 Alpha  occ. eigenvalues --   -0.41111  -0.40983  -0.40847  -0.40765  -0.40703
 Alpha  occ. eigenvalues --   -0.40624  -0.40228  -0.40027  -0.39871  -0.39705
 Alpha  occ. eigenvalues --   -0.39371  -0.39282  -0.39136  -0.39113  -0.38763
 Alpha  occ. eigenvalues --   -0.38514  -0.38488  -0.38271  -0.38161  -0.37990
 Alpha  occ. eigenvalues --   -0.37967  -0.37546  -0.37086  -0.37029  -0.36820
 Alpha  occ. eigenvalues --   -0.36544  -0.36403  -0.36256  -0.36036  -0.35923
 Alpha  occ. eigenvalues --   -0.35904  -0.35671  -0.35651  -0.35006  -0.34660
 Alpha  occ. eigenvalues --   -0.34579  -0.34300  -0.34182  -0.33957  -0.33318
 Alpha  occ. eigenvalues --   -0.33305  -0.33016  -0.32903  -0.32661  -0.32263
 Alpha  occ. eigenvalues --   -0.32064  -0.31967  -0.31894  -0.31703  -0.31641
 Alpha  occ. eigenvalues --   -0.30705  -0.30694  -0.29698  -0.29673  -0.29037
 Alpha  occ. eigenvalues --   -0.28684  -0.28244  -0.28186  -0.27019  -0.26828
 Alpha  occ. eigenvalues --   -0.26293  -0.25774  -0.25627  -0.25096  -0.21109
 Alpha  occ. eigenvalues --   -0.18925
 Alpha virt. eigenvalues --   -0.11299  -0.05536  -0.04376  -0.02424  -0.01056
 Alpha virt. eigenvalues --   -0.00763   0.00581   0.01270   0.02509   0.02813
 Alpha virt. eigenvalues --    0.03850   0.04021   0.04578   0.05355   0.05543

 Mulliken charges:
               1
     1  Mg   0.987160
     2  C    0.006664
     3  C   -0.085846
     4  C   -0.037422
     5  C   -0.086451
     6  N   -0.348826
     7  C   -0.000154
     8  C   -0.098143
     9  C   -0.125669
    10  C    0.041426
    11  C    0.014947
    12  C    0.040998
    13  C    0.006824
    14  C    0.228181
    15  O   -0.309203
    16  O   -0.361866
    17  N   -0.518770
    18  C    0.221382
    19  C   -0.194011
    20  C   -0.074390
    21  C    0.091667
    22  C    0.035692
    23  C    0.095413
    24  O   -0.252368
    25  C   -0.038812
    26  N   -0.437219
    27  C    0.091133
    28  C   -0.074882
    29  C   -0.101269
    30  C    0.132434
    31  C    0.016907
    32  C   -0.048389
    33  C   -0.050359
    34  N   -0.447292
    35  C    0.110797
    36  C   -0.145792
    37  C    0.007828
    38  C    0.138560
    39  C    0.068574
    40  C    0.081777
    41  O   -0.225486
    42  C   -0.129400
    43  C    0.284842
    44  O   -0.282168
    45  O   -0.360409
    46  C    0.128102
    47  C    0.243177
    48  C   -0.172211
    49  C   -0.198552
    50  C    0.030429
    51  C   -0.012353
    52  C   -0.058023
    53  C   -0.028348
    54  C   -0.184016
    55  C   -0.035302
    56  C    0.004264
    57  C   -0.042964
    58  C   -0.027857
    59  C   -0.246152
    60  C   -0.001065
    61  C   -0.005762
    62  C   -0.052695
    63  C   -0.033818
    64  C   -0.246567
    65  C   -0.006744
    66  C   -0.029288
    67  H    0.005915
    68  H    0.025051
    69  H   -0.000737
    70  H    0.065681
    71  H    0.041574
    72  H    0.040827
    73  H    0.054714
    74  H    0.043382
    75  H    0.060032
    76  H    0.051556
    77  H    0.076775
    78  H    0.049144
    79  H    0.074252
    80  H    0.030233
    81  H    0.041919
    82  H    0.081340
    83  H    0.066244
    84  H    0.048114
    85  H    0.053028
    86  H    0.039925
    87  H    0.040991
    88  H    0.042181
    89  H    0.055953
    90  H    0.037912
    91  H    0.036492
    92  H    0.034468
    93  H    0.046679
    94  H    0.042564
    95  H    0.047027
    96  H    0.059158
    97  H    0.074373
    98  H    0.067330
    99  H    0.043958
   100  H    0.067584
   101  H    0.068599
   102  H    0.062902
   103  H    0.073590
   104  H    0.025505
   105  H    0.048388
   106  H    0.056600
   107  H    0.051164
   108  H    0.021831
   109  H    0.039251
   110  H    0.040058
   111  H    0.032856
   112  H    0.033445
   113  H    0.032117
   114  H    0.043770
   115  H    0.033695
   116  H    0.027878
   117  H    0.033646
   118  H    0.035489
   119  H    0.038218
   120  H    0.025306
   121  H    0.022547
   122  H    0.020773
   123  H    0.017820
   124  H    0.028852
   125  H    0.036372
   126  H    0.021297
   127  H    0.035597
   128  H    0.032054
   129  H    0.032355
   130  H    0.031676
   131  H    0.044938
   132  H    0.033336
   133  H    0.047351
   134  H    0.039235
   135  H    0.041197
   136  H    0.019926
   137  H    0.045356
   138  H    0.046148
   139  H    0.013341
   140  H    0.027020
 Sum of Mulliken charges =  -0.00000

 Dipole moment (field-independent basis, Debye):
    X=             -2.3310    Y=              4.0931    Z=              0.7643  Tot=              4.7719
 Quadrupole moment (field-independent basis, Debye-Ang):
   XX=           -373.1376   YY=           -414.6577   ZZ=           -413.0907
   XY=             -8.4955   XZ=             30.0248   YZ=             -1.1298

 Normal termination of Gaussian 16 at Fri Apr 29 08:49:12 2022.
