 Gaussian 16, Revision A.03,
 Gaussian 16:  ES64L-G16RevA.03 25-Dec-2016

 --------------------------------
 #p wB97XD/Def2SVP td=(nstates=5)
 --------------------------------

 ----------------------------------------------------
 step_201_chromophore_25 TDDFT with wB97XD functional
 ----------------------------------------------------
 Symbolic Z-matrix:
 Charge =  0 Multiplicity = 1

                         Standard orientation:
 ---------------------------------------------------------------------
 Center     Atomic      Atomic             Coordinates (Angstroms)
 Number     Number       Type             X           Y           Z
 ---------------------------------------------------------------------
      1         12           0        6.194732    0.510321    0.383260
      2          6           0        3.754161   -2.159709   -0.085473
      3          6           0        3.665980    2.707526    0.035914
      4          6           0        8.553170    2.793479   -0.125790
      5          6           0        8.587233   -2.063629    0.545211
      6          7           0        3.946471    0.267376   -0.079783
      7          6           0        3.173084   -0.852033   -0.017600
      8          6           0        1.640818   -0.520168   -0.039491
      9          6           0        1.654064    1.020470   -0.238687
     10          6           0        3.157978    1.384045   -0.012811
     11          6           0        0.984642    1.674840   -1.464552
     12          6           0        0.830667   -1.033560    1.198916
     13          6           0       -0.288346   -2.038935    0.890533
     14          6           0       -1.722291   -1.661524    1.292217
     15          8           0       -2.027742   -1.571607    2.512982
     16          8           0       -2.618624   -1.349597    0.280943
     17          7           0        6.130543    2.501526    0.122946
     18          6           0        4.995563    3.213120    0.034798
     19          6           0        5.356632    4.597272   -0.180067
     20          6           0        6.775337    4.719765   -0.311433
     21          6           0        7.222245    3.289150   -0.127154
     22          6           0        4.349908    5.751575   -0.192687
     23          6           0        7.629034    6.044405   -0.561455
     24          8           0        8.867991    6.014484   -0.687310
     25          6           0        6.951889    7.388748   -0.701479
     26          7           0        8.260834    0.387119    0.251836
     27          6           0        9.049237    1.518256    0.093569
     28          6           0       10.535139    1.208668    0.199544
     29          6           0       10.455843   -0.364008    0.523179
     30          6           0        8.974355   -0.751299    0.445275
     31          6           0       11.234057    1.646597   -1.071951
     32          6           0       11.021805   -0.802296    1.919893
     33          6           0       12.334517   -1.564779    1.967866
     34          7           0        6.235550   -1.645446    0.202114
     35          6           0        7.305818   -2.551752    0.364319
     36          6           0        6.849553   -3.928900    0.245357
     37          6           0        5.464535   -3.827257    0.058244
     38          6           0        5.151775   -2.430736    0.017168
     39          6           0        7.664710   -5.144715    0.514724
     40          6           0        4.325663   -4.574996   -0.058188
     41          8           0        4.095357   -5.776762   -0.033704
     42          6           0        3.123069   -3.558170   -0.106853
     43          6           0        2.348248   -3.898325   -1.373709
     44          8           0        2.763401   -3.699290   -2.530924
     45          8           0        1.152415   -4.515953   -1.126948
     46          6           0        0.272047   -4.898277   -2.210133
     47          6           0       -3.967069   -1.075073    0.817231
     48          6           0       -4.961502   -1.103999   -0.316557
     49          6           0       -6.159028   -0.558736   -0.379808
     50          6           0       -6.800943    0.083048    0.809997
     51          6           0       -6.881491   -0.482299   -1.826632
     52          6           0       -8.391140   -0.756387   -1.932857
     53          6           0       -9.254028    0.469165   -1.495884
     54          6           0      -10.310073    0.956474   -2.627795
     55          6           0       -9.817465    2.150220   -3.493222
     56          6           0      -11.673628    1.398558   -1.970547
     57          6           0      -12.841304    0.569050   -2.531390
     58          6           0      -14.083659    0.752990   -1.637240
     59          6           0      -14.081924   -0.302924   -0.458135
     60          6           0      -14.707109   -1.615627   -0.984063
     61          6           0      -14.928565    0.297180    0.748969
     62          6           0      -14.229067    1.424647    1.551046
     63          6           0      -13.786272    0.822779    2.986239
     64          6           0      -12.434500    1.486701    3.498845
     65          6           0      -11.064365    0.785614    3.266678
     66          6           0      -12.655873    1.749214    5.021991
     67          1           0        2.834596    3.413012    0.083107
     68          1           0        9.222088    3.620120   -0.370599
     69          1           0        9.311135   -2.868344    0.687555
     70          1           0        1.352951   -0.965192   -0.991933
     71          1           0        1.078935    1.481095    0.563935
     72          1           0        0.574565    0.834696   -2.025844
     73          1           0        1.769246    2.223864   -1.984943
     74          1           0        0.134397    2.335792   -1.295938
     75          1           0        0.345067   -0.231287    1.754171
     76          1           0        1.607692   -1.482526    1.817430
     77          1           0       -0.084404   -2.986959    1.388317
     78          1           0       -0.174368   -2.248452   -0.173428
     79          1           0        4.290592    6.361073    0.709297
     80          1           0        3.335782    5.419516   -0.415107
     81          1           0        4.568738    6.378618   -1.057918
     82          1           0        6.518273    7.500609   -1.695222
     83          1           0        7.738520    8.096507   -0.438632
     84          1           0        6.106562    7.587918   -0.042967
     85          1           0       10.989917    1.701797    1.058925
     86          1           0       10.927498   -0.933207   -0.276789
     87          1           0       11.291469    0.787178   -1.740968
     88          1           0       12.204255    2.067097   -0.805822
     89          1           0       10.734834    2.456240   -1.603058
     90          1           0       10.326202   -1.542887    2.315598
     91          1           0       11.003504    0.020046    2.634260
     92          1           0       12.086055   -2.603717    2.182696
     93          1           0       12.935016   -1.180757    2.793385
     94          1           0       12.847889   -1.574632    1.007157
     95          1           0        8.577618   -5.007012    1.095103
     96          1           0        7.993003   -5.576794   -0.429852
     97          1           0        6.871970   -5.773029    0.921432
     98          1           0        2.434040   -3.633403    0.734039
     99          1           0       -0.316450   -4.007582   -2.428989
    100          1           0       -0.360852   -5.717552   -1.869374
    101          1           0        0.775443   -5.141645   -3.145901
    102          1           0       -4.025426   -0.103437    1.308359
    103          1           0       -4.396319   -1.864772    1.433727
    104          1           0       -4.571183   -1.629866   -1.187933
    105          1           0       -6.232341    0.113366    1.739819
    106          1           0       -7.732256   -0.462283    0.964918
    107          1           0       -7.019707    1.077108    0.421308
    108          1           0       -6.421470   -1.080388   -2.613992
    109          1           0       -6.671351    0.496351   -2.257790
    110          1           0       -8.675855   -1.643453   -1.368354
    111          1           0       -8.581856   -0.948739   -2.989031
    112          1           0       -8.632679    1.312588   -1.193496
    113          1           0       -9.712622    0.095867   -0.579929
    114          1           0      -10.475192    0.179821   -3.374033
    115          1           0      -10.168265    3.162484   -3.293514
    116          1           0      -10.274468    1.987941   -4.469690
    117          1           0       -8.736478    2.205523   -3.623484
    118          1           0      -11.827180    2.456534   -2.183463
    119          1           0      -11.654036    1.188399   -0.901501
    120          1           0      -12.646439   -0.501842   -2.591188
    121          1           0      -13.188420    0.850002   -3.526205
    122          1           0      -15.044587    0.808011   -2.149466
    123          1           0      -14.016738    1.729243   -1.157391
    124          1           0      -13.070746   -0.644933   -0.238939
    125          1           0      -14.830398   -2.414018   -0.252144
    126          1           0      -13.914292   -1.981998   -1.636106
    127          1           0      -15.603440   -1.380638   -1.558156
    128          1           0      -14.894655   -0.584096    1.390012
    129          1           0      -15.903349    0.628888    0.391992
    130          1           0      -14.982056    2.188463    1.744823
    131          1           0      -13.366417    1.875610    1.058566
    132          1           0      -13.599304   -0.246844    2.890496
    133          1           0      -14.647237    1.001949    3.630176
    134          1           0      -12.352240    2.470965    3.037669
    135          1           0      -10.338326    1.538771    2.962825
    136          1           0      -11.243348    0.168689    2.386516
    137          1           0      -10.647523    0.109580    4.014118
    138          1           0      -12.770191    2.802172    5.278233
    139          1           0      -11.886806    1.359457    5.688410
    140          1           0      -13.428348    1.060595    5.367033
 ---------------------------------------------------------------------

 SCF Done:  E(RwB97XD) =  -3007.85111069     A.U. after   19 cycles

 Excitation energies and oscillator strengths:

 Excited State   1:      Singlet-A      1.6456 eV  753.43 nm  f=0.3983  <S**2>=0.000
     245 -> 248        0.18991
     246 -> 247        0.68201
     245 <- 248        0.11800
 This state for optimization and/or second-order correction.
 Total Energy, E(TD-HF/TD-DFT) =  -3007.79063652
 Copying the excited state density for this state as the 1-particle RhoCI density.

 Excited State   2:      Singlet-A      2.1631 eV  573.17 nm  f=0.1039  <S**2>=0.000
     245 -> 247        0.63575
     246 -> 248       -0.29687

 Excited State   3:      Singlet-A      3.4282 eV  361.66 nm  f=0.0783  <S**2>=0.000
     241 -> 247        0.31470
     241 -> 249       -0.16186
     241 -> 250       -0.12869
     242 -> 247        0.38254
     242 -> 249       -0.19350
     242 -> 250       -0.15107
     243 -> 247       -0.20944
     245 -> 247       -0.10254
     246 -> 248       -0.26186

 Excited State   4:      Singlet-A      3.4695 eV  357.36 nm  f=0.1484  <S**2>=0.000
     241 -> 247        0.10279
     242 -> 247        0.26992
     242 -> 249       -0.12793
     243 -> 247        0.46659
     245 -> 247        0.12751
     246 -> 248        0.35346

 Excited State   5:      Singlet-A      3.5756 eV  346.76 nm  f=0.4315  <S**2>=0.000
     241 -> 247        0.14488
     242 -> 247       -0.17030
     243 -> 247        0.45438
     245 -> 247       -0.22018
     246 -> 248       -0.42476

 The electronic state is 1-A.
 Alpha  occ. eigenvalues --  -46.95342 -19.31614 -19.30142 -19.24993 -19.24792
 Alpha  occ. eigenvalues --  -19.23898 -19.23541 -14.47121 -14.46658 -14.44686
 Alpha  occ. eigenvalues --  -14.44103 -10.44065 -10.43148 -10.40830 -10.38229
 Alpha  occ. eigenvalues --  -10.36039 -10.35903 -10.35428 -10.35356 -10.34981
 Alpha  occ. eigenvalues --  -10.34908 -10.34768 -10.34365 -10.33666 -10.33361
 Alpha  occ. eigenvalues --  -10.32897 -10.32843 -10.32801 -10.32485 -10.32474
 Alpha  occ. eigenvalues --  -10.32379 -10.32268 -10.31943 -10.31893 -10.31713
 Alpha  occ. eigenvalues --  -10.31685 -10.31596 -10.31035 -10.30950 -10.30655
 Alpha  occ. eigenvalues --  -10.30600 -10.30592 -10.30366 -10.30349 -10.30314
 Alpha  occ. eigenvalues --  -10.30202 -10.30062 -10.30052 -10.29994 -10.29812
 Alpha  occ. eigenvalues --  -10.29446 -10.29444 -10.29302 -10.29284 -10.29135
 Alpha  occ. eigenvalues --  -10.29102 -10.29038 -10.28961 -10.28862 -10.28733
 Alpha  occ. eigenvalues --  -10.28714 -10.28701 -10.28561 -10.28380 -10.28103
 Alpha  occ. eigenvalues --  -10.27647  -3.21361  -1.94939  -1.94467  -1.94347
 Alpha  occ. eigenvalues --   -1.18005  -1.17812  -1.11835  -1.11784  -1.08653
 Alpha  occ. eigenvalues --   -1.08431  -1.06252  -1.05494  -1.05256  -1.04295
 Alpha  occ. eigenvalues --   -0.94458  -0.92041  -0.91602  -0.91193  -0.90927
 Alpha  occ. eigenvalues --   -0.90024  -0.89815  -0.89682  -0.89222  -0.88613
 Alpha  occ. eigenvalues --   -0.88531  -0.87561  -0.86428  -0.86072  -0.85283
 Alpha  occ. eigenvalues --   -0.84218  -0.83936  -0.83612  -0.82913  -0.82484
 Alpha  occ. eigenvalues --   -0.81853  -0.80621  -0.80055  -0.79361  -0.78304
 Alpha  occ. eigenvalues --   -0.78042  -0.77359  -0.77163  -0.76061  -0.75436
 Alpha  occ. eigenvalues --   -0.75121  -0.74723  -0.73811  -0.72720  -0.71092
 Alpha  occ. eigenvalues --   -0.70276  -0.69710  -0.69201  -0.68217  -0.67690
 Alpha  occ. eigenvalues --   -0.67353  -0.67175  -0.67166  -0.66392  -0.66022
 Alpha  occ. eigenvalues --   -0.65705  -0.65154  -0.64295  -0.64230  -0.62520
 Alpha  occ. eigenvalues --   -0.61921  -0.61536  -0.61091  -0.60485  -0.60037
 Alpha  occ. eigenvalues --   -0.59534  -0.59271  -0.58314  -0.58159  -0.57575
 Alpha  occ. eigenvalues --   -0.57329  -0.56606  -0.56363  -0.55966  -0.55777
 Alpha  occ. eigenvalues --   -0.55548  -0.55355  -0.55306  -0.54963  -0.54711
 Alpha  occ. eigenvalues --   -0.54580  -0.54283  -0.54230  -0.54183  -0.53838
 Alpha  occ. eigenvalues --   -0.53389  -0.53209  -0.52974  -0.52933  -0.52833
 Alpha  occ. eigenvalues --   -0.52335  -0.51888  -0.51847  -0.51638  -0.51555
 Alpha  occ. eigenvalues --   -0.51359  -0.51314  -0.50998  -0.50796  -0.50720
 Alpha  occ. eigenvalues --   -0.50509  -0.50392  -0.50347  -0.49920  -0.49723
 Alpha  occ. eigenvalues --   -0.49666  -0.49028  -0.48997  -0.48843  -0.48655
 Alpha  occ. eigenvalues --   -0.48293  -0.48170  -0.48054  -0.48026  -0.47954
 Alpha  occ. eigenvalues --   -0.47871  -0.47396  -0.47230  -0.47072  -0.46945
 Alpha  occ. eigenvalues --   -0.46626  -0.46370  -0.46333  -0.46232  -0.45940
 Alpha  occ. eigenvalues --   -0.45692  -0.45526  -0.45410  -0.45203  -0.45154
 Alpha  occ. eigenvalues --   -0.45121  -0.44688  -0.44236  -0.44174  -0.43997
 Alpha  occ. eigenvalues --   -0.43599  -0.43555  -0.43302  -0.43194  -0.43021
 Alpha  occ. eigenvalues --   -0.42912  -0.42768  -0.42669  -0.42001  -0.41656
 Alpha  occ. eigenvalues --   -0.41618  -0.41305  -0.41259  -0.41045  -0.40338
 Alpha  occ. eigenvalues --   -0.40228  -0.39948  -0.39903  -0.39727  -0.39321
 Alpha  occ. eigenvalues --   -0.39074  -0.39002  -0.38928  -0.38620  -0.38560
 Alpha  occ. eigenvalues --   -0.37837  -0.37628  -0.36561  -0.36462  -0.35845
 Alpha  occ. eigenvalues --   -0.35753  -0.35300  -0.35078  -0.34045  -0.33538
 Alpha  occ. eigenvalues --   -0.32901  -0.32783  -0.32315  -0.31892  -0.26089
 Alpha  occ. eigenvalues --   -0.23056
 Alpha virt. eigenvalues --   -0.07195  -0.00086   0.01867   0.04021   0.05144
 Alpha virt. eigenvalues --    0.05803   0.07286   0.08015   0.09223   0.09519
 Alpha virt. eigenvalues --    0.10391   0.10481   0.11263   0.12113   0.12313

 Mulliken charges:
               1
     1  Mg   0.977750
     2  C   -0.004549
     3  C   -0.100773
     4  C   -0.053832
     5  C   -0.108827
     6  N   -0.316932
     7  C   -0.025986
     8  C   -0.071745
     9  C   -0.104524
    10  C    0.027993
    11  C    0.027471
    12  C    0.050924
    13  C    0.026815
    14  C    0.221951
    15  O   -0.308386
    16  O   -0.361786
    17  N   -0.482820
    18  C    0.211768
    19  C   -0.182325
    20  C   -0.073197
    21  C    0.083255
    22  C    0.049573
    23  C    0.093541
    24  O   -0.247235
    25  C   -0.028613
    26  N   -0.403318
    27  C    0.082552
    28  C   -0.052522
    29  C   -0.078499
    30  C    0.126514
    31  C    0.026540
    32  C   -0.032703
    33  C   -0.035301
    34  N   -0.411819
    35  C    0.106092
    36  C   -0.146492
    37  C    0.013120
    38  C    0.123088
    39  C    0.077817
    40  C    0.067955
    41  O   -0.214611
    42  C   -0.083925
    43  C    0.258129
    44  O   -0.276250
    45  O   -0.357140
    46  C    0.142120
    47  C    0.256774
    48  C   -0.181361
    49  C   -0.185905
    50  C    0.045970
    51  C    0.006908
    52  C   -0.042666
    53  C   -0.012493
    54  C   -0.155552
    55  C   -0.023702
    56  C    0.027362
    57  C   -0.024230
    58  C   -0.011827
    59  C   -0.214932
    60  C    0.010068
    61  C    0.016161
    62  C   -0.038054
    63  C   -0.015958
    64  C   -0.221189
    65  C    0.007815
    66  C   -0.016485
    67  H   -0.001772
    68  H    0.017690
    69  H   -0.008302
    70  H    0.050340
    71  H    0.029987
    72  H    0.034438
    73  H    0.047575
    74  H    0.039083
    75  H    0.053391
    76  H    0.043319
    77  H    0.072161
    78  H    0.035639
    79  H    0.069896
    80  H    0.025386
    81  H    0.033998
    82  H    0.077422
    83  H    0.064811
    84  H    0.042533
    85  H    0.043909
    86  H    0.027856
    87  H    0.035047
    88  H    0.037182
    89  H    0.049402
    90  H    0.026287
    91  H    0.029655
    92  H    0.028088
    93  H    0.041644
    94  H    0.036370
    95  H    0.043453
    96  H    0.055133
    97  H    0.069668
    98  H    0.057451
    99  H    0.039714
   100  H    0.064662
   101  H    0.065357
   102  H    0.057031
   103  H    0.068022
   104  H    0.022537
   105  H    0.045088
   106  H    0.049270
   107  H    0.043559
   108  H    0.016038
   109  H    0.028753
   110  H    0.033403
   111  H    0.024291
   112  H    0.021248
   113  H    0.021961
   114  H    0.031356
   115  H    0.027679
   116  H    0.021189
   117  H    0.027642
   118  H    0.026578
   119  H    0.020410
   120  H    0.011912
   121  H    0.015379
   122  H    0.013684
   123  H    0.003788
   124  H    0.014679
   125  H    0.031693
   126  H    0.013318
   127  H    0.028662
   128  H    0.018598
   129  H    0.025620
   130  H    0.024963
   131  H    0.031612
   132  H    0.022174
   133  H    0.039325
   134  H    0.028299
   135  H    0.035762
   136  H    0.010327
   137  H    0.040368
   138  H    0.041683
   139  H    0.006916
   140  H    0.019148
 Sum of Mulliken charges =  -0.00000

 Dipole moment (field-independent basis, Debye):
    X=             -2.4360    Y=              4.0643    Z=              0.7602  Tot=              4.7990
 Quadrupole moment (field-independent basis, Debye-Ang):
   XX=           -374.6447   YY=           -412.7114   ZZ=           -412.8396
   XY=             -8.3426   XZ=             30.1268   YZ=             -1.1095

 Normal termination of Gaussian 16 at Fri Apr 29 09:11:20 2022.
