 Gaussian 16, Revision A.03,
 Gaussian 16:  ES64L-G16RevA.03 25-Dec-2016

 --------------------
 #p ZINDO=(nstates=5)
 --------------------

 -----------------------------
 step_201_chromophore_25 ZINDO
 -----------------------------
 Symbolic Z-matrix:
 Charge =  0 Multiplicity = 1

                         Standard orientation:
 ---------------------------------------------------------------------
 Center     Atomic      Atomic             Coordinates (Angstroms)
 Number     Number       Type             X           Y           Z
 ---------------------------------------------------------------------
      1         12           0        6.194732    0.510321    0.383260
      2          6           0        3.754161   -2.159709   -0.085473
      3          6           0        3.665980    2.707526    0.035914
      4          6           0        8.553170    2.793479   -0.125790
      5          6           0        8.587233   -2.063629    0.545211
      6          7           0        3.946471    0.267376   -0.079783
      7          6           0        3.173084   -0.852033   -0.017600
      8          6           0        1.640818   -0.520168   -0.039491
      9          6           0        1.654064    1.020470   -0.238687
     10          6           0        3.157978    1.384045   -0.012811
     11          6           0        0.984642    1.674840   -1.464552
     12          6           0        0.830667   -1.033560    1.198916
     13          6           0       -0.288346   -2.038935    0.890533
     14          6           0       -1.722291   -1.661524    1.292217
     15          8           0       -2.027742   -1.571607    2.512982
     16          8           0       -2.618624   -1.349597    0.280943
     17          7           0        6.130543    2.501526    0.122946
     18          6           0        4.995563    3.213120    0.034798
     19          6           0        5.356632    4.597272   -0.180067
     20          6           0        6.775337    4.719765   -0.311433
     21          6           0        7.222245    3.289150   -0.127154
     22          6           0        4.349908    5.751575   -0.192687
     23          6           0        7.629034    6.044405   -0.561455
     24          8           0        8.867991    6.014484   -0.687310
     25          6           0        6.951889    7.388748   -0.701479
     26          7           0        8.260834    0.387119    0.251836
     27          6           0        9.049237    1.518256    0.093569
     28          6           0       10.535139    1.208668    0.199544
     29          6           0       10.455843   -0.364008    0.523179
     30          6           0        8.974355   -0.751299    0.445275
     31          6           0       11.234057    1.646597   -1.071951
     32          6           0       11.021805   -0.802296    1.919893
     33          6           0       12.334517   -1.564779    1.967866
     34          7           0        6.235550   -1.645446    0.202114
     35          6           0        7.305818   -2.551752    0.364319
     36          6           0        6.849553   -3.928900    0.245357
     37          6           0        5.464535   -3.827257    0.058244
     38          6           0        5.151775   -2.430736    0.017168
     39          6           0        7.664710   -5.144715    0.514724
     40          6           0        4.325663   -4.574996   -0.058188
     41          8           0        4.095357   -5.776762   -0.033704
     42          6           0        3.123069   -3.558170   -0.106853
     43          6           0        2.348248   -3.898325   -1.373709
     44          8           0        2.763401   -3.699290   -2.530924
     45          8           0        1.152415   -4.515953   -1.126948
     46          6           0        0.272047   -4.898277   -2.210133
     47          6           0       -3.967069   -1.075073    0.817231
     48          6           0       -4.961502   -1.103999   -0.316557
     49          6           0       -6.159028   -0.558736   -0.379808
     50          6           0       -6.800943    0.083048    0.809997
     51          6           0       -6.881491   -0.482299   -1.826632
     52          6           0       -8.391140   -0.756387   -1.932857
     53          6           0       -9.254028    0.469165   -1.495884
     54          6           0      -10.310073    0.956474   -2.627795
     55          6           0       -9.817465    2.150220   -3.493222
     56          6           0      -11.673628    1.398558   -1.970547
     57          6           0      -12.841304    0.569050   -2.531390
     58          6           0      -14.083659    0.752990   -1.637240
     59          6           0      -14.081924   -0.302924   -0.458135
     60          6           0      -14.707109   -1.615627   -0.984063
     61          6           0      -14.928565    0.297180    0.748969
     62          6           0      -14.229067    1.424647    1.551046
     63          6           0      -13.786272    0.822779    2.986239
     64          6           0      -12.434500    1.486701    3.498845
     65          6           0      -11.064365    0.785614    3.266678
     66          6           0      -12.655873    1.749214    5.021991
     67          1           0        2.834596    3.413012    0.083107
     68          1           0        9.222088    3.620120   -0.370599
     69          1           0        9.311135   -2.868344    0.687555
     70          1           0        1.352951   -0.965192   -0.991933
     71          1           0        1.078935    1.481095    0.563935
     72          1           0        0.574565    0.834696   -2.025844
     73          1           0        1.769246    2.223864   -1.984943
     74          1           0        0.134397    2.335792   -1.295938
     75          1           0        0.345067   -0.231287    1.754171
     76          1           0        1.607692   -1.482526    1.817430
     77          1           0       -0.084404   -2.986959    1.388317
     78          1           0       -0.174368   -2.248452   -0.173428
     79          1           0        4.290592    6.361073    0.709297
     80          1           0        3.335782    5.419516   -0.415107
     81          1           0        4.568738    6.378618   -1.057918
     82          1           0        6.518273    7.500609   -1.695222
     83          1           0        7.738520    8.096507   -0.438632
     84          1           0        6.106562    7.587918   -0.042967
     85          1           0       10.989917    1.701797    1.058925
     86          1           0       10.927498   -0.933207   -0.276789
     87          1           0       11.291469    0.787178   -1.740968
     88          1           0       12.204255    2.067097   -0.805822
     89          1           0       10.734834    2.456240   -1.603058
     90          1           0       10.326202   -1.542887    2.315598
     91          1           0       11.003504    0.020046    2.634260
     92          1           0       12.086055   -2.603717    2.182696
     93          1           0       12.935016   -1.180757    2.793385
     94          1           0       12.847889   -1.574632    1.007157
     95          1           0        8.577618   -5.007012    1.095103
     96          1           0        7.993003   -5.576794   -0.429852
     97          1           0        6.871970   -5.773029    0.921432
     98          1           0        2.434040   -3.633403    0.734039
     99          1           0       -0.316450   -4.007582   -2.428989
    100          1           0       -0.360852   -5.717552   -1.869374
    101          1           0        0.775443   -5.141645   -3.145901
    102          1           0       -4.025426   -0.103437    1.308359
    103          1           0       -4.396319   -1.864772    1.433727
    104          1           0       -4.571183   -1.629866   -1.187933
    105          1           0       -6.232341    0.113366    1.739819
    106          1           0       -7.732256   -0.462283    0.964918
    107          1           0       -7.019707    1.077108    0.421308
    108          1           0       -6.421470   -1.080388   -2.613992
    109          1           0       -6.671351    0.496351   -2.257790
    110          1           0       -8.675855   -1.643453   -1.368354
    111          1           0       -8.581856   -0.948739   -2.989031
    112          1           0       -8.632679    1.312588   -1.193496
    113          1           0       -9.712622    0.095867   -0.579929
    114          1           0      -10.475192    0.179821   -3.374033
    115          1           0      -10.168265    3.162484   -3.293514
    116          1           0      -10.274468    1.987941   -4.469690
    117          1           0       -8.736478    2.205523   -3.623484
    118          1           0      -11.827180    2.456534   -2.183463
    119          1           0      -11.654036    1.188399   -0.901501
    120          1           0      -12.646439   -0.501842   -2.591188
    121          1           0      -13.188420    0.850002   -3.526205
    122          1           0      -15.044587    0.808011   -2.149466
    123          1           0      -14.016738    1.729243   -1.157391
    124          1           0      -13.070746   -0.644933   -0.238939
    125          1           0      -14.830398   -2.414018   -0.252144
    126          1           0      -13.914292   -1.981998   -1.636106
    127          1           0      -15.603440   -1.380638   -1.558156
    128          1           0      -14.894655   -0.584096    1.390012
    129          1           0      -15.903349    0.628888    0.391992
    130          1           0      -14.982056    2.188463    1.744823
    131          1           0      -13.366417    1.875610    1.058566
    132          1           0      -13.599304   -0.246844    2.890496
    133          1           0      -14.647237    1.001949    3.630176
    134          1           0      -12.352240    2.470965    3.037669
    135          1           0      -10.338326    1.538771    2.962825
    136          1           0      -11.243348    0.168689    2.386516
    137          1           0      -10.647523    0.109580    4.014118
    138          1           0      -12.770191    2.802172    5.278233
    139          1           0      -11.886806    1.359457    5.688410
    140          1           0      -13.428348    1.060595    5.367033
 ---------------------------------------------------------------------

 SCF Done:  E(RZINDO/S) =  -473.928658738     A.U. after   19 cycles

 Excitation energies and oscillator strengths:

 Excited State   1:      Singlet-A      1.2313 eV 1006.90 nm  f=0.6197  <S**2>=0.000
     175 ->178         0.19822
     176 ->177         0.66109
 This state for optimization and/or second-order correction.
 Total Energy, E(CIS/TDA) =  -473.883407489
 Copying the excited state density for this state as the 1-particle RhoCI density.

 Excited State   2:      Singlet-A      1.9017 eV  651.98 nm  f=0.0342  <S**2>=0.000
     175 ->177         0.54077
     176 ->178        -0.43031

 Excited State   3:      Singlet-A      2.8684 eV  432.25 nm  f=0.0514  <S**2>=0.000
     169 ->177         0.31794
     169 ->178        -0.12422
     169 ->179        -0.30230
     169 ->181         0.19829
     169 ->185        -0.12853
     169 ->187         0.10645
     170 ->177         0.20951
     170 ->179        -0.19830
     170 ->181         0.13843
     176 ->178        -0.14716
     176 ->179        -0.12329

 Excited State   4:      Singlet-A      2.9230 eV  424.16 nm  f=0.3903  <S**2>=0.000
     169 ->177         0.12709
     169 ->179        -0.11719
     175 ->177         0.24824
     176 ->178         0.37139
     176 ->179         0.44962

 Excited State   5:      Singlet-A      3.0262 eV  409.71 nm  f=0.6856  <S**2>=0.000
     175 ->177        -0.29667
     176 ->178        -0.34154
     176 ->179         0.47656
     176 ->181         0.13356

 The electronic state is 1-A.
 Alpha  occ. eigenvalues --   -1.82954  -1.80629  -1.78952  -1.71688  -1.71438
 Alpha  occ. eigenvalues --   -1.69876  -1.64481  -1.59519  -1.58069  -1.56571
 Alpha  occ. eigenvalues --   -1.54017  -1.50705  -1.47925  -1.47685  -1.46738
 Alpha  occ. eigenvalues --   -1.43343  -1.42602  -1.40937  -1.38663  -1.38315
 Alpha  occ. eigenvalues --   -1.36433  -1.34764  -1.33817  -1.31675  -1.29155
 Alpha  occ. eigenvalues --   -1.27258  -1.25758  -1.20877  -1.19613  -1.18469
 Alpha  occ. eigenvalues --   -1.17373  -1.16349  -1.16085  -1.14826  -1.12768
 Alpha  occ. eigenvalues --   -1.11390  -1.09762  -1.08647  -1.05071  -1.03853
 Alpha  occ. eigenvalues --   -1.01910  -1.00906  -0.98661  -0.98236  -0.95636
 Alpha  occ. eigenvalues --   -0.94527  -0.94415  -0.94208  -0.93187  -0.91369
 Alpha  occ. eigenvalues --   -0.91009  -0.90026  -0.88837  -0.88614  -0.87621
 Alpha  occ. eigenvalues --   -0.86746  -0.84971  -0.83952  -0.81726  -0.80764
 Alpha  occ. eigenvalues --   -0.79617  -0.79426  -0.76961  -0.76660  -0.76126
 Alpha  occ. eigenvalues --   -0.75762  -0.74787  -0.73935  -0.73719  -0.73069
 Alpha  occ. eigenvalues --   -0.72925  -0.72468  -0.71846  -0.71098  -0.70969
 Alpha  occ. eigenvalues --   -0.70498  -0.69751  -0.69177  -0.69017  -0.68653
 Alpha  occ. eigenvalues --   -0.67606  -0.67436  -0.66039  -0.65933  -0.65661
 Alpha  occ. eigenvalues --   -0.65130  -0.64858  -0.64058  -0.63965  -0.63602
 Alpha  occ. eigenvalues --   -0.63349  -0.62954  -0.62640  -0.62203  -0.61796
 Alpha  occ. eigenvalues --   -0.61417  -0.61109  -0.60950  -0.60709  -0.60416
 Alpha  occ. eigenvalues --   -0.60005  -0.59825  -0.59256  -0.58156  -0.58069
 Alpha  occ. eigenvalues --   -0.57796  -0.57649  -0.57396  -0.57262  -0.56693
 Alpha  occ. eigenvalues --   -0.56514  -0.56002  -0.55906  -0.55819  -0.55271
 Alpha  occ. eigenvalues --   -0.54840  -0.54607  -0.53957  -0.53629  -0.53050
 Alpha  occ. eigenvalues --   -0.52905  -0.52600  -0.52085  -0.51367  -0.51303
 Alpha  occ. eigenvalues --   -0.50634  -0.50517  -0.50421  -0.50248  -0.49996
 Alpha  occ. eigenvalues --   -0.49641  -0.49279  -0.49063  -0.49013  -0.48848
 Alpha  occ. eigenvalues --   -0.48618  -0.48224  -0.48057  -0.47793  -0.47767
 Alpha  occ. eigenvalues --   -0.47713  -0.47385  -0.47122  -0.46443  -0.46381
 Alpha  occ. eigenvalues --   -0.46226  -0.45917  -0.45815  -0.45646  -0.45494
 Alpha  occ. eigenvalues --   -0.45436  -0.45282  -0.45072  -0.44945  -0.44535
 Alpha  occ. eigenvalues --   -0.43918  -0.43837  -0.42741  -0.42565  -0.42427
 Alpha  occ. eigenvalues --   -0.42208  -0.41095  -0.40998  -0.39176  -0.38894
 Alpha  occ. eigenvalues --   -0.38249  -0.37265  -0.36062  -0.35034  -0.34928
 Alpha  occ. eigenvalues --   -0.33405  -0.32931  -0.32421  -0.32377  -0.26671
 Alpha  occ. eigenvalues --   -0.21698
 Alpha virt. eigenvalues --   -0.08600  -0.02253  -0.00801   0.00621   0.01001
 Alpha virt. eigenvalues --    0.01695   0.02595   0.02814   0.04688   0.05403
 Alpha virt. eigenvalues --    0.06117   0.06540   0.06767   0.07358   0.08021

 Mulliken charges:
               1
     1  Mg   0.433414
     2  C   -0.062834
     3  C   -0.075691
     4  C   -0.059032
     5  C   -0.057793
     6  N   -0.280165
     7  C    0.131961
     8  C    0.004566
     9  C    0.002734
    10  C    0.109917
    11  C   -0.050057
    12  C   -0.014278
    13  C    0.008747
    14  C    0.464578
    15  O   -0.533194
    16  O   -0.254755
    17  N   -0.298808
    18  C    0.112116
    19  C   -0.000937
    20  C   -0.064983
    21  C    0.120449
    22  C   -0.049880
    23  C    0.332918
    24  O   -0.520577
    25  C   -0.028465
    26  N   -0.272056
    27  C    0.126573
    28  C    0.005623
    29  C   -0.004848
    30  C    0.143299
    31  C   -0.046241
    32  C   -0.032916
    33  C   -0.055340
    34  N   -0.340493
    35  C    0.092691
    36  C    0.049153
    37  C   -0.042220
    38  C    0.128769
    39  C   -0.040604
    40  C    0.343930
    41  O   -0.532513
    42  C    0.054914
    43  C    0.483019
    44  O   -0.534915
    45  O   -0.270626
    46  C    0.081194
    47  C    0.105257
    48  C   -0.082584
    49  C   -0.022470
    50  C   -0.042441
    51  C   -0.028616
    52  C   -0.033151
    53  C   -0.042115
    54  C   -0.018639
    55  C   -0.061850
    56  C   -0.031930
    57  C   -0.035892
    58  C   -0.044663
    59  C   -0.025344
    60  C   -0.065737
    61  C   -0.043611
    62  C   -0.047948
    63  C   -0.040447
    64  C   -0.014546
    65  C   -0.054031
    66  C   -0.070459
    67  H    0.022997
    68  H    0.043923
    69  H    0.027746
    70  H    0.039120
    71  H    0.019448
    72  H    0.020387
    73  H    0.029144
    74  H    0.024802
    75  H    0.036737
    76  H    0.028799
    77  H    0.044892
    78  H    0.031464
    79  H    0.035957
    80  H    0.015955
    81  H    0.021197
    82  H    0.047462
    83  H    0.040627
    84  H    0.029214
    85  H    0.035446
    86  H    0.029440
    87  H    0.023583
    88  H    0.018342
    89  H    0.029933
    90  H    0.015651
    91  H    0.024487
    92  H    0.015350
    93  H    0.023336
    94  H    0.023276
    95  H    0.033631
    96  H    0.036298
    97  H    0.044602
    98  H    0.050249
    99  H    0.029894
   100  H    0.039661
   101  H    0.054129
   102  H    0.054647
   103  H    0.059994
   104  H    0.024073
   105  H    0.031974
   106  H    0.029670
   107  H    0.028401
   108  H    0.017939
   109  H    0.021439
   110  H    0.023432
   111  H    0.016635
   112  H    0.023959
   113  H    0.017318
   114  H    0.029412
   115  H    0.022363
   116  H    0.008290
   117  H    0.015957
   118  H    0.028751
   119  H    0.024598
   120  H    0.022355
   121  H    0.014017
   122  H    0.021968
   123  H    0.006889
   124  H    0.030321
   125  H    0.019873
   126  H    0.009764
   127  H    0.023930
   128  H    0.021289
   129  H    0.031525
   130  H    0.016526
   131  H    0.028611
   132  H    0.024399
   133  H    0.028053
   134  H    0.018576
   135  H    0.019951
   136  H    0.007093
   137  H    0.031277
   138  H    0.025557
   139  H    0.008502
   140  H    0.018367
 Sum of Mulliken charges =  -0.00000

 Dipole moment (field-independent basis, Debye):
    X=             -3.2433    Y=              4.0455    Z=              1.5507  Tot=              5.4120
 N-N= 4.208045959961D+03 E-N= 0.000000000000D+00  KE=-9.089888064180D+03
 Leave Link  601 at Fri Apr 29 09:25:06 2022, MaxMem=  6710886400 cpu:               3.3 elap:               0.2
 (Enter /sw/apps/gaussian-16.0/g16/l9999.exe)
 1\1\GINC-BP1-COMPUTE150\SP\RZINDO CIS\STO-3G\C55H74Mg1N4O6\OF15641\29-
 Apr-2022\0\\#p ZINDO=(nstates=5)\\step_201_chromophore_25 ZINDO\\0,1\M
 g,0,-2.376,34.135,26.716\C,0,-3.497,32.389,29.716\C,0,-0.796,36.32,28.
 734\C,0,-2.222,36.124,24.06\C,0,-4.267,31.756,24.944\N,0,-2.259,34.363
 ,29.01\C,0,-2.59,33.466,29.98\C,0,-2.011,33.863,31.382\C,0,-1.358,35.2
 39,31.076\C,0,-1.397,35.299,29.514\C,0,-1.811,36.52,31.806\C,0,-1.067,
 32.799,32.038\C,0,-1.54,32.231,33.384\C,0,-0.624,32.418,34.603\O,0,0.4

 Normal termination of Gaussian 16 at Fri Apr 29 09:25:06 2022.
