 Gaussian 16, Revision A.03,
 Gaussian 16:  ES64L-G16RevA.03 25-Dec-2016

 ------------------------------
 #p blyp/Def2SVP td=(nstates=5)
 ------------------------------

 --------------------------------------------------
 step_1601_chromophore_9 TDDFT with blyp functional
 --------------------------------------------------
 Symbolic Z-matrix:
 Charge =  0 Multiplicity = 1

                         Standard orientation:
 ---------------------------------------------------------------------
 Center     Atomic      Atomic             Coordinates (Angstroms)
 Number     Number       Type             X           Y           Z
 ---------------------------------------------------------------------
      1         12           0       -5.213245    0.650502   -0.134527
      2          6           0       -3.584920   -2.499567   -0.243205
      3          6           0       -2.081350    2.110124   -0.236063
      4          6           0       -6.709900    3.705781    0.099502
      5          6           0       -8.203541   -0.933835    0.517541
      6          7           0       -3.117694   -0.188404   -0.301387
      7          6           0       -2.665578   -1.468314   -0.415035
      8          6           0       -1.161335   -1.547139   -0.434208
      9          6           0       -0.679044   -0.092382   -0.265678
     10          6           0       -2.028536    0.711455   -0.347926
     11          6           0        0.157968    0.200237    1.068488
     12          6           0       -0.655869   -2.341957   -1.713948
     13          6           0        0.404561   -3.532910   -1.526165
     14          6           0        1.461339   -3.502968   -0.489737
     15          8           0        1.301731   -3.784623    0.643270
     16          8           0        2.646669   -3.148255   -1.076218
     17          7           0       -4.531254    2.690974   -0.212325
     18          6           0       -3.197351    3.065357   -0.147014
     19          6           0       -3.054290    4.498067    0.081934
     20          6           0       -4.440042    4.981811    0.006227
     21          6           0       -5.326084    3.811164   -0.064181
     22          6           0       -1.751349    5.255108    0.316907
     23          6           0       -4.910841    6.483352    0.098515
     24          8           0       -6.116914    6.772009    0.058039
     25          6           0       -3.832062    7.531460    0.214170
     26          7           0       -7.166920    1.293652    0.260488
     27          6           0       -7.574968    2.594874    0.221107
     28          6           0       -9.065544    2.772063    0.473764
     29          6           0       -9.525701    1.240179    0.600523
     30          6           0       -8.209793    0.492794    0.455624
     31          6           0       -9.497148    3.771612    1.561372
     32          6           0      -10.578536    0.813121   -0.377549
     33          6           0      -10.239727    0.737176   -1.841843
     34          7           0       -5.774103   -1.245334    0.239332
     35          6           0       -7.070057   -1.749937    0.397143
     36          6           0       -7.067793   -3.148107    0.292861
     37          6           0       -5.683152   -3.513655    0.184909
     38          6           0       -4.955690   -2.305749    0.017752
     39          6           0       -8.251021   -4.082720    0.435321
     40          6           0       -4.761918   -4.597354    0.040269
     41          8           0       -5.077444   -5.802777   -0.062083
     42          6           0       -3.360450   -4.018765   -0.170991
     43          6           0       -2.499162   -4.382840    0.987520
     44          8           0       -2.487039   -3.783100    2.078523
     45          8           0       -1.888631   -5.560394    0.761316
     46          6           0       -0.922155   -6.086959    1.773426
     47          6           0        3.626854   -2.763390   -0.130126
     48          6           0        4.597216   -1.757139   -0.834468
     49          6           0        5.782577   -1.989689   -1.432507
     50          6           0        6.308498   -3.437073   -1.721971
     51          6           0        6.787196   -0.921129   -1.765797
     52          6           0        6.502629   -0.127801   -2.999615
     53          6           0        7.688681   -0.171253   -4.008783
     54          6           0        8.639905    1.060773   -3.925001
     55          6           0        9.001077    1.687810   -5.216340
     56          6           0        9.914309    0.657473   -3.041748
     57          6           0       10.285607    1.814378   -2.087354
     58          6           0       11.233936    1.414822   -1.063192
     59          6           0       11.296097    2.271120    0.192250
     60          6           0       12.127418    3.589320    0.002546
     61          6           0       11.819450    1.522026    1.403581
     62          6           0       10.631674    1.253679    2.400651
     63          6           0       11.160841    0.337830    3.505526
     64          6           0       10.638329    0.751032    4.859752
     65          6           0       11.574832    0.326172    5.969901
     66          6           0        9.193521    0.293791    5.036008
     67          1           0       -1.075575    2.524919   -0.140411
     68          1           0       -7.188970    4.684475    0.170762
     69          1           0       -9.163568   -1.447539    0.599836
     70          1           0       -0.875964   -2.148393    0.428484
     71          1           0       -0.015602    0.263991   -1.053503
     72          1           0       -0.103316   -0.554791    1.809591
     73          1           0       -0.065805    1.200291    1.439953
     74          1           0        1.219850    0.336077    0.862199
     75          1           0       -0.221569   -1.572235   -2.351535
     76          1           0       -1.482830   -2.823127   -2.236499
     77          1           0        0.864080   -3.682923   -2.502884
     78          1           0       -0.138208   -4.448517   -1.289152
     79          1           0       -0.946650    4.603842    0.659678
     80          1           0       -1.822024    5.928106    1.172427
     81          1           0       -1.438528    5.891028   -0.511051
     82          1           0       -3.531442    7.579639    1.260770
     83          1           0       -4.281784    8.467735   -0.116331
     84          1           0       -2.967712    7.448024   -0.444881
     85          1           0       -9.556954    3.173005   -0.413519
     86          1           0       -9.728020    1.032221    1.651771
     87          1           0       -9.946838    4.701367    1.212257
     88          1           0       -8.744857    4.196947    2.225781
     89          1           0      -10.186380    3.260856    2.234860
     90          1           0      -11.316845    1.606574   -0.265554
     91          1           0      -11.039285   -0.100778   -0.001850
     92          1           0       -9.223959    1.083870   -2.033640
     93          1           0      -10.955706    1.316880   -2.423330
     94          1           0      -10.214917   -0.306984   -2.150718
     95          1           0       -8.254407   -4.785153   -0.398576
     96          1           0       -9.151481   -3.471355    0.372927
     97          1           0       -8.303934   -4.663068    1.355583
     98          1           0       -2.923150   -4.454494   -1.068520
     99          1           0       -0.530713   -5.317814    2.439374
    100          1           0       -0.048530   -6.531258    1.297464
    101          1           0       -1.414424   -6.884071    2.330843
    102          1           0        4.213937   -3.660708    0.063195
    103          1           0        3.216825   -2.427950    0.822884
    104          1           0        4.287594   -0.716733   -0.933820
    105          1           0        5.865828   -4.364482   -1.360042
    106          1           0        7.384780   -3.457088   -1.553246
    107          1           0        6.211776   -3.510518   -2.805565
    108          1           0        7.766740   -1.395393   -1.714700
    109          1           0        6.722251   -0.238404   -0.918616
    110          1           0        6.365311    0.910612   -2.697521
    111          1           0        5.590444   -0.529682   -3.442428
    112          1           0        7.191213   -0.337001   -4.963836
    113          1           0        8.345927   -1.030804   -3.881967
    114          1           0        8.186859    1.813525   -3.279453
    115          1           0       10.088558    1.626828   -5.271290
    116          1           0        8.539190    2.674030   -5.213710
    117          1           0        8.572979    1.198800   -6.090817
    118          1           0       10.820842    0.537383   -3.635669
    119          1           0        9.778730   -0.185580   -2.364198
    120          1           0        9.412556    2.202068   -1.560833
    121          1           0       10.796408    2.552766   -2.705451
    122          1           0       12.208786    1.460085   -1.547886
    123          1           0       11.081525    0.396728   -0.704984
    124          1           0       10.305920    2.708532    0.314618
    125          1           0       11.458918    4.402850    0.284969
    126          1           0       12.508365    3.725010   -1.009431
    127          1           0       13.025777    3.564585    0.620655
    128          1           0       12.621995    2.036180    1.930922
    129          1           0       12.080519    0.522421    1.054428
    130          1           0        9.733591    0.820977    1.960116
    131          1           0       10.440194    2.227182    2.852547
    132          1           0       12.245094    0.286904    3.598706
    133          1           0       10.937400   -0.706666    3.287822
    134          1           0       10.639739    1.832662    4.993522
    135          1           0       12.417878   -0.276328    5.633264
    136          1           0       11.201159   -0.373496    6.716826
    137          1           0       12.034430    1.241814    6.341295
    138          1           0        9.044026   -0.381428    5.878179
    139          1           0        8.861786   -0.272843    4.165734
    140          1           0        8.494275    1.110718    5.214094
 ---------------------------------------------------------------------

 SCF Done:  E(RB-LYP) =  -3007.38457000     A.U. after   22 cycles

 Excitation energies and oscillator strengths:

 Excited State   1:      Singlet-A      1.7871 eV  693.75 nm  f=0.0806  <S**2>=0.000
     244 -> 247        0.59993
     245 -> 247       -0.10214
     246 -> 247        0.35031
 This state for optimization and/or second-order correction.
 Total Energy, E(TD-HF/TD-DFT) =  -3007.31889347
 Copying the excited state density for this state as the 1-particle RhoCI density.

 Excited State   2:      Singlet-A      1.8147 eV  683.23 nm  f=0.2353  <S**2>=0.000
     244 -> 247       -0.36166
     245 -> 248       -0.16155
     246 -> 247        0.59012
     246 <- 247       -0.12771

 Excited State   3:      Singlet-A      1.9861 eV  624.27 nm  f=0.0961  <S**2>=0.000
     245 -> 247        0.64944
     246 -> 248        0.20774
     246 -> 249       -0.10129

 Excited State   4:      Singlet-A      2.0537 eV  603.72 nm  f=0.0003  <S**2>=0.000
     243 -> 247        0.70586

 Excited State   5:      Singlet-A      2.3773 eV  521.54 nm  f=0.0001  <S**2>=0.000
     240 -> 247        0.70547

 The electronic state is 1-A.
 Alpha  occ. eigenvalues --  -46.26615 -18.82058 -18.81939 -18.77863 -18.75974
 Alpha  occ. eigenvalues --  -18.75545 -18.74771 -14.03247 -14.03002 -14.00912
 Alpha  occ. eigenvalues --  -14.00372 -10.03942 -10.03399 -10.00355  -9.98866
 Alpha  occ. eigenvalues --   -9.97888  -9.97103  -9.96531  -9.96347  -9.96316
 Alpha  occ. eigenvalues --   -9.96193  -9.96050  -9.95417  -9.95016  -9.94508
 Alpha  occ. eigenvalues --   -9.94482  -9.94332  -9.94263  -9.93986  -9.93921
 Alpha  occ. eigenvalues --   -9.93822  -9.93656  -9.93464  -9.93372  -9.93289
 Alpha  occ. eigenvalues --   -9.93264  -9.93185  -9.93162  -9.93012  -9.92714
 Alpha  occ. eigenvalues --   -9.92493  -9.92484  -9.92483  -9.92208  -9.92118
 Alpha  occ. eigenvalues --   -9.92058  -9.91998  -9.91954  -9.91926  -9.91858
 Alpha  occ. eigenvalues --   -9.91853  -9.91834  -9.91592  -9.91434  -9.91275
 Alpha  occ. eigenvalues --   -9.91249  -9.91216  -9.91140  -9.91017  -9.90800
 Alpha  occ. eigenvalues --   -9.90682  -9.90617  -9.90492  -9.90459  -9.90393
 Alpha  occ. eigenvalues --   -9.90269  -2.91257  -1.71694  -1.71127  -1.70974
 Alpha  occ. eigenvalues --   -1.00066  -0.96954  -0.92695  -0.90679  -0.89272
 Alpha  occ. eigenvalues --   -0.88019  -0.86792  -0.85405  -0.84445  -0.83778
 Alpha  occ. eigenvalues --   -0.75301  -0.74452  -0.73814  -0.72857  -0.72772
 Alpha  occ. eigenvalues --   -0.72166  -0.71536  -0.71336  -0.70265  -0.69771
 Alpha  occ. eigenvalues --   -0.69276  -0.69111  -0.68392  -0.67470  -0.67288
 Alpha  occ. eigenvalues --   -0.66740  -0.65672  -0.65182  -0.64931  -0.64486
 Alpha  occ. eigenvalues --   -0.63994  -0.62360  -0.62183  -0.61855  -0.60960
 Alpha  occ. eigenvalues --   -0.60676  -0.60498  -0.60053  -0.59738  -0.59011
 Alpha  occ. eigenvalues --   -0.58653  -0.57746  -0.56675  -0.55997  -0.55363
 Alpha  occ. eigenvalues --   -0.54004  -0.53631  -0.52621  -0.52041  -0.50937
 Alpha  occ. eigenvalues --   -0.50796  -0.50735  -0.50422  -0.50372  -0.50164
 Alpha  occ. eigenvalues --   -0.49974  -0.49798  -0.48803  -0.47897  -0.46441
 Alpha  occ. eigenvalues --   -0.46187  -0.45614  -0.45460  -0.44833  -0.44202
 Alpha  occ. eigenvalues --   -0.43980  -0.43626  -0.43382  -0.43215  -0.42978
 Alpha  occ. eigenvalues --   -0.42361  -0.42025  -0.41794  -0.41654  -0.41424
 Alpha  occ. eigenvalues --   -0.41121  -0.40848  -0.40750  -0.40420  -0.40127
 Alpha  occ. eigenvalues --   -0.39934  -0.39785  -0.39671  -0.39265  -0.39172
 Alpha  occ. eigenvalues --   -0.39043  -0.38920  -0.38322  -0.38222  -0.38143
 Alpha  occ. eigenvalues --   -0.37925  -0.37646  -0.37450  -0.37338  -0.37298
 Alpha  occ. eigenvalues --   -0.37074  -0.36835  -0.36615  -0.36601  -0.36369
 Alpha  occ. eigenvalues --   -0.36203  -0.35879  -0.35853  -0.35629  -0.35298
 Alpha  occ. eigenvalues --   -0.35237  -0.35141  -0.34970  -0.34733  -0.34681
 Alpha  occ. eigenvalues --   -0.34386  -0.34202  -0.34113  -0.34026  -0.33873
 Alpha  occ. eigenvalues --   -0.33723  -0.33660  -0.33324  -0.33164  -0.32926
 Alpha  occ. eigenvalues --   -0.32810  -0.32692  -0.32533  -0.32461  -0.32027
 Alpha  occ. eigenvalues --   -0.31794  -0.31644  -0.31593  -0.31442  -0.31384
 Alpha  occ. eigenvalues --   -0.30964  -0.30894  -0.30798  -0.30734  -0.30633
 Alpha  occ. eigenvalues --   -0.30496  -0.30233  -0.30066  -0.30063  -0.29832
 Alpha  occ. eigenvalues --   -0.29713  -0.29378  -0.29166  -0.29138  -0.28917
 Alpha  occ. eigenvalues --   -0.28660  -0.28427  -0.28345  -0.28296  -0.27826
 Alpha  occ. eigenvalues --   -0.27632  -0.27433  -0.27408  -0.26800  -0.26628
 Alpha  occ. eigenvalues --   -0.26536  -0.26196  -0.26077  -0.25820  -0.25521
 Alpha  occ. eigenvalues --   -0.25118  -0.24857  -0.24309  -0.23732  -0.23423
 Alpha  occ. eigenvalues --   -0.23411  -0.23201  -0.21638  -0.20822  -0.20222
 Alpha  occ. eigenvalues --   -0.20140  -0.19936  -0.18949  -0.17948  -0.16924
 Alpha  occ. eigenvalues --   -0.15781
 Alpha virt. eigenvalues --   -0.11486  -0.06773  -0.05999  -0.04559  -0.03268
 Alpha virt. eigenvalues --   -0.02416  -0.02067  -0.01685  -0.00968  -0.00004
 Alpha virt. eigenvalues --    0.01486   0.01629   0.01976   0.02311   0.02671

 Mulliken charges:
               1
     1  Mg   0.693221
     2  C    0.005665
     3  C   -0.049921
     4  C   -0.038353
     5  C   -0.100039
     6  N   -0.224020
     7  C   -0.091795
     8  C    0.021585
     9  C   -0.000518
    10  C    0.028274
    11  C    0.109288
    12  C    0.113089
    13  C    0.125555
    14  C    0.032866
    15  O   -0.153022
    16  O   -0.250232
    17  N   -0.282356
    18  C    0.126831
    19  C   -0.133077
    20  C    0.000733
    21  C    0.091361
    22  C    0.166455
    23  C   -0.048745
    24  O   -0.172506
    25  C    0.122886
    26  N   -0.197922
    27  C    0.020611
    28  C    0.031758
    29  C    0.046689
    30  C   -0.011810
    31  C    0.117888
    32  C    0.089857
    33  C    0.092294
    34  N   -0.299270
    35  C    0.174594
    36  C   -0.183449
    37  C    0.115030
    38  C    0.103184
    39  C    0.180074
    40  C   -0.075080
    41  O   -0.163519
    42  C    0.097330
    43  C    0.115394
    44  O   -0.211875
    45  O   -0.257959
    46  C    0.214076
    47  C    0.319916
    48  C   -0.085043
    49  C   -0.170796
    50  C    0.126381
    51  C    0.135549
    52  C    0.103876
    53  C    0.102406
    54  C   -0.069695
    55  C    0.160674
    56  C    0.064921
    57  C    0.056293
    58  C    0.109217
    59  C   -0.068657
    60  C    0.093282
    61  C    0.121977
    62  C    0.056979
    63  C    0.109631
    64  C   -0.096269
    65  C    0.113906
    66  C    0.119144
    67  H   -0.066163
    68  H   -0.050871
    69  H   -0.066105
    70  H    0.018071
    71  H   -0.028651
    72  H    0.022955
    73  H   -0.022333
    74  H   -0.012077
    75  H   -0.017683
    76  H   -0.003190
    77  H   -0.011412
    78  H   -0.002011
    79  H   -0.013553
    80  H   -0.012978
    81  H    0.012649
    82  H    0.024031
    83  H   -0.009930
    84  H    0.001024
    85  H   -0.019140
    86  H   -0.025761
    87  H   -0.007590
    88  H   -0.007488
    89  H   -0.016551
    90  H   -0.027310
    91  H   -0.017428
    92  H   -0.001697
    93  H   -0.002419
    94  H   -0.008232
    95  H    0.006227
    96  H   -0.033668
    97  H    0.016738
    98  H   -0.009421
    99  H    0.033909
   100  H    0.012985
   101  H    0.018990
   102  H   -0.027756
   103  H    0.004262
   104  H   -0.053469
   105  H   -0.002064
   106  H   -0.016932
   107  H   -0.008018
   108  H   -0.022222
   109  H   -0.025378
   110  H   -0.029486
   111  H   -0.019793
   112  H   -0.044578
   113  H   -0.029827
   114  H   -0.037338
   115  H   -0.016259
   116  H   -0.013338
   117  H   -0.023865
   118  H   -0.033300
   119  H   -0.031202
   120  H   -0.034411
   121  H   -0.031777
   122  H   -0.046485
   123  H   -0.049418
   124  H   -0.043329
   125  H   -0.011866
   126  H   -0.025010
   127  H   -0.024995
   128  H   -0.021644
   129  H   -0.032688
   130  H   -0.018423
   131  H   -0.030829
   132  H   -0.045427
   133  H   -0.039476
   134  H   -0.038346
   135  H   -0.038047
   136  H   -0.022859
   137  H   -0.014559
   138  H   -0.027243
   139  H   -0.023248
   140  H   -0.018085
 Sum of Mulliken charges =  -0.00000

 Dipole moment (field-independent basis, Debye):
    X=              4.2053    Y=              2.5989    Z=             -2.1482  Tot=              5.3902
 Quadrupole moment (field-independent basis, Debye-Ang):
   XX=           -371.8829   YY=           -431.5152   ZZ=           -407.1435
   XY=             -6.7424   XZ=             -2.2010   YZ=              7.5305

 Normal termination of Gaussian 16 at Thu Apr 28 16:28:00 2022.
