 Gaussian 16, Revision A.03,
 Gaussian 16:  ES64L-G16RevA.03 25-Dec-2016

 -----------------------------------
 #p cam-b3lyp/Def2SVP td=(nstates=5)
 -----------------------------------

 -------------------------------------------------------
 step_1601_chromophore_9 TDDFT with cam-b3lyp functional
 -------------------------------------------------------
 Symbolic Z-matrix:
 Charge =  0 Multiplicity = 1

                         Standard orientation:
 ---------------------------------------------------------------------
 Center     Atomic      Atomic             Coordinates (Angstroms)
 Number     Number       Type             X           Y           Z
 ---------------------------------------------------------------------
      1         12           0       -5.213245    0.650502   -0.134527
      2          6           0       -3.584920   -2.499567   -0.243205
      3          6           0       -2.081350    2.110124   -0.236063
      4          6           0       -6.709900    3.705781    0.099502
      5          6           0       -8.203541   -0.933835    0.517541
      6          7           0       -3.117694   -0.188404   -0.301387
      7          6           0       -2.665578   -1.468314   -0.415035
      8          6           0       -1.161335   -1.547139   -0.434208
      9          6           0       -0.679044   -0.092382   -0.265678
     10          6           0       -2.028536    0.711455   -0.347926
     11          6           0        0.157968    0.200237    1.068488
     12          6           0       -0.655869   -2.341957   -1.713948
     13          6           0        0.404561   -3.532910   -1.526165
     14          6           0        1.461339   -3.502968   -0.489737
     15          8           0        1.301731   -3.784623    0.643270
     16          8           0        2.646669   -3.148255   -1.076218
     17          7           0       -4.531254    2.690974   -0.212325
     18          6           0       -3.197351    3.065357   -0.147014
     19          6           0       -3.054290    4.498067    0.081934
     20          6           0       -4.440042    4.981811    0.006227
     21          6           0       -5.326084    3.811164   -0.064181
     22          6           0       -1.751349    5.255108    0.316907
     23          6           0       -4.910841    6.483352    0.098515
     24          8           0       -6.116914    6.772009    0.058039
     25          6           0       -3.832062    7.531460    0.214170
     26          7           0       -7.166920    1.293652    0.260488
     27          6           0       -7.574968    2.594874    0.221107
     28          6           0       -9.065544    2.772063    0.473764
     29          6           0       -9.525701    1.240179    0.600523
     30          6           0       -8.209793    0.492794    0.455624
     31          6           0       -9.497148    3.771612    1.561372
     32          6           0      -10.578536    0.813121   -0.377549
     33          6           0      -10.239727    0.737176   -1.841843
     34          7           0       -5.774103   -1.245334    0.239332
     35          6           0       -7.070057   -1.749937    0.397143
     36          6           0       -7.067793   -3.148107    0.292861
     37          6           0       -5.683152   -3.513655    0.184909
     38          6           0       -4.955690   -2.305749    0.017752
     39          6           0       -8.251021   -4.082720    0.435321
     40          6           0       -4.761918   -4.597354    0.040269
     41          8           0       -5.077444   -5.802777   -0.062083
     42          6           0       -3.360450   -4.018765   -0.170991
     43          6           0       -2.499162   -4.382840    0.987520
     44          8           0       -2.487039   -3.783100    2.078523
     45          8           0       -1.888631   -5.560394    0.761316
     46          6           0       -0.922155   -6.086959    1.773426
     47          6           0        3.626854   -2.763390   -0.130126
     48          6           0        4.597216   -1.757139   -0.834468
     49          6           0        5.782577   -1.989689   -1.432507
     50          6           0        6.308498   -3.437073   -1.721971
     51          6           0        6.787196   -0.921129   -1.765797
     52          6           0        6.502629   -0.127801   -2.999615
     53          6           0        7.688681   -0.171253   -4.008783
     54          6           0        8.639905    1.060773   -3.925001
     55          6           0        9.001077    1.687810   -5.216340
     56          6           0        9.914309    0.657473   -3.041748
     57          6           0       10.285607    1.814378   -2.087354
     58          6           0       11.233936    1.414822   -1.063192
     59          6           0       11.296097    2.271120    0.192250
     60          6           0       12.127418    3.589320    0.002546
     61          6           0       11.819450    1.522026    1.403581
     62          6           0       10.631674    1.253679    2.400651
     63          6           0       11.160841    0.337830    3.505526
     64          6           0       10.638329    0.751032    4.859752
     65          6           0       11.574832    0.326172    5.969901
     66          6           0        9.193521    0.293791    5.036008
     67          1           0       -1.075575    2.524919   -0.140411
     68          1           0       -7.188970    4.684475    0.170762
     69          1           0       -9.163568   -1.447539    0.599836
     70          1           0       -0.875964   -2.148393    0.428484
     71          1           0       -0.015602    0.263991   -1.053503
     72          1           0       -0.103316   -0.554791    1.809591
     73          1           0       -0.065805    1.200291    1.439953
     74          1           0        1.219850    0.336077    0.862199
     75          1           0       -0.221569   -1.572235   -2.351535
     76          1           0       -1.482830   -2.823127   -2.236499
     77          1           0        0.864080   -3.682923   -2.502884
     78          1           0       -0.138208   -4.448517   -1.289152
     79          1           0       -0.946650    4.603842    0.659678
     80          1           0       -1.822024    5.928106    1.172427
     81          1           0       -1.438528    5.891028   -0.511051
     82          1           0       -3.531442    7.579639    1.260770
     83          1           0       -4.281784    8.467735   -0.116331
     84          1           0       -2.967712    7.448024   -0.444881
     85          1           0       -9.556954    3.173005   -0.413519
     86          1           0       -9.728020    1.032221    1.651771
     87          1           0       -9.946838    4.701367    1.212257
     88          1           0       -8.744857    4.196947    2.225781
     89          1           0      -10.186380    3.260856    2.234860
     90          1           0      -11.316845    1.606574   -0.265554
     91          1           0      -11.039285   -0.100778   -0.001850
     92          1           0       -9.223959    1.083870   -2.033640
     93          1           0      -10.955706    1.316880   -2.423330
     94          1           0      -10.214917   -0.306984   -2.150718
     95          1           0       -8.254407   -4.785153   -0.398576
     96          1           0       -9.151481   -3.471355    0.372927
     97          1           0       -8.303934   -4.663068    1.355583
     98          1           0       -2.923150   -4.454494   -1.068520
     99          1           0       -0.530713   -5.317814    2.439374
    100          1           0       -0.048530   -6.531258    1.297464
    101          1           0       -1.414424   -6.884071    2.330843
    102          1           0        4.213937   -3.660708    0.063195
    103          1           0        3.216825   -2.427950    0.822884
    104          1           0        4.287594   -0.716733   -0.933820
    105          1           0        5.865828   -4.364482   -1.360042
    106          1           0        7.384780   -3.457088   -1.553246
    107          1           0        6.211776   -3.510518   -2.805565
    108          1           0        7.766740   -1.395393   -1.714700
    109          1           0        6.722251   -0.238404   -0.918616
    110          1           0        6.365311    0.910612   -2.697521
    111          1           0        5.590444   -0.529682   -3.442428
    112          1           0        7.191213   -0.337001   -4.963836
    113          1           0        8.345927   -1.030804   -3.881967
    114          1           0        8.186859    1.813525   -3.279453
    115          1           0       10.088558    1.626828   -5.271290
    116          1           0        8.539190    2.674030   -5.213710
    117          1           0        8.572979    1.198800   -6.090817
    118          1           0       10.820842    0.537383   -3.635669
    119          1           0        9.778730   -0.185580   -2.364198
    120          1           0        9.412556    2.202068   -1.560833
    121          1           0       10.796408    2.552766   -2.705451
    122          1           0       12.208786    1.460085   -1.547886
    123          1           0       11.081525    0.396728   -0.704984
    124          1           0       10.305920    2.708532    0.314618
    125          1           0       11.458918    4.402850    0.284969
    126          1           0       12.508365    3.725010   -1.009431
    127          1           0       13.025777    3.564585    0.620655
    128          1           0       12.621995    2.036180    1.930922
    129          1           0       12.080519    0.522421    1.054428
    130          1           0        9.733591    0.820977    1.960116
    131          1           0       10.440194    2.227182    2.852547
    132          1           0       12.245094    0.286904    3.598706
    133          1           0       10.937400   -0.706666    3.287822
    134          1           0       10.639739    1.832662    4.993522
    135          1           0       12.417878   -0.276328    5.633264
    136          1           0       11.201159   -0.373496    6.716826
    137          1           0       12.034430    1.241814    6.341295
    138          1           0        9.044026   -0.381428    5.878179
    139          1           0        8.861786   -0.272843    4.165734
    140          1           0        8.494275    1.110718    5.214094
 ---------------------------------------------------------------------

 SCF Done:  E(RCAM-B3LYP) =  -3007.17960245     A.U. after   19 cycles

 Excitation energies and oscillator strengths:

 Excited State   1:      Singlet-A      1.6997 eV  729.45 nm  f=0.3959  <S**2>=0.000
     245 -> 248       -0.18138
     246 -> 247        0.68433
     245 <- 248       -0.10794
 This state for optimization and/or second-order correction.
 Total Energy, E(TD-HF/TD-DFT) =  -3007.11713979
 Copying the excited state density for this state as the 1-particle RhoCI density.

 Excited State   2:      Singlet-A      2.1793 eV  568.92 nm  f=0.1452  <S**2>=0.000
     245 -> 247        0.65119
     246 -> 248        0.26145

 Excited State   3:      Singlet-A      3.2088 eV  386.39 nm  f=0.0021  <S**2>=0.000
     241 -> 247       -0.28670
     241 -> 249        0.19982
     241 -> 250       -0.12850
     243 -> 247        0.44897
     243 -> 249       -0.10285
     244 -> 247       -0.36573

 Excited State   4:      Singlet-A      3.3166 eV  373.83 nm  f=0.0012  <S**2>=0.000
     241 -> 247       -0.40816
     241 -> 249        0.19547
     241 -> 250       -0.10679
     244 -> 247        0.50265

 Excited State   5:      Singlet-A      3.4067 eV  363.95 nm  f=0.0062  <S**2>=0.000
     241 -> 247        0.31428
     241 -> 249       -0.11466
     243 -> 247        0.50213
     244 -> 247        0.28831
     246 -> 248       -0.17083

 The electronic state is 1-A.
 Alpha  occ. eigenvalues --  -46.88107 -19.24960 -19.24927 -19.20959 -19.19139
 Alpha  occ. eigenvalues --  -19.18689 -19.18078 -14.42210 -14.41781 -14.39292
 Alpha  occ. eigenvalues --  -14.38784 -10.39213 -10.38936 -10.35593 -10.34317
 Alpha  occ. eigenvalues --  -10.31962 -10.31184 -10.30971 -10.30927 -10.30696
 Alpha  occ. eigenvalues --  -10.30601 -10.30219 -10.29558 -10.29407 -10.28858
 Alpha  occ. eigenvalues --  -10.28636 -10.28570 -10.28468 -10.28347 -10.28051
 Alpha  occ. eigenvalues --  -10.27892 -10.27856 -10.27700 -10.27432 -10.27322
 Alpha  occ. eigenvalues --  -10.27294 -10.27293 -10.27272 -10.27170 -10.27022
 Alpha  occ. eigenvalues --  -10.26247 -10.26192 -10.26155 -10.26152 -10.25970
 Alpha  occ. eigenvalues --  -10.25942 -10.25850 -10.25806 -10.25664 -10.25562
 Alpha  occ. eigenvalues --  -10.25556 -10.25396 -10.25311 -10.25102 -10.24919
 Alpha  occ. eigenvalues --  -10.24913 -10.24895 -10.24854 -10.24817 -10.24538
 Alpha  occ. eigenvalues --  -10.24403 -10.24285 -10.24109 -10.24021 -10.23982
 Alpha  occ. eigenvalues --  -10.23839  -3.16656  -1.91569  -1.91099  -1.90967
 Alpha  occ. eigenvalues --   -1.18695  -1.15527  -1.10697  -1.08994  -1.07722
 Alpha  occ. eigenvalues --   -1.06012  -1.04544  -1.03119  -1.01996  -1.01110
 Alpha  occ. eigenvalues --   -0.92530  -0.91352  -0.90664  -0.89558  -0.89517
 Alpha  occ. eigenvalues --   -0.88899  -0.88160  -0.87968  -0.86797  -0.86352
 Alpha  occ. eigenvalues --   -0.85705  -0.85528  -0.84679  -0.83697  -0.83446
 Alpha  occ. eigenvalues --   -0.82833  -0.81746  -0.81166  -0.80827  -0.80230
 Alpha  occ. eigenvalues --   -0.79806  -0.78038  -0.77731  -0.77400  -0.76327
 Alpha  occ. eigenvalues --   -0.76169  -0.75893  -0.75330  -0.75026  -0.74241
 Alpha  occ. eigenvalues --   -0.73752  -0.72831  -0.71559  -0.70844  -0.70035
 Alpha  occ. eigenvalues --   -0.68588  -0.68291  -0.67012  -0.66386  -0.64955
 Alpha  occ. eigenvalues --   -0.64931  -0.64868  -0.64510  -0.64470  -0.64055
 Alpha  occ. eigenvalues --   -0.63902  -0.63793  -0.62676  -0.61615  -0.60011
 Alpha  occ. eigenvalues --   -0.59782  -0.59194  -0.58992  -0.58154  -0.57858
 Alpha  occ. eigenvalues --   -0.57390  -0.56986  -0.56730  -0.56167  -0.55979
 Alpha  occ. eigenvalues --   -0.55589  -0.55457  -0.54911  -0.54600  -0.54409
 Alpha  occ. eigenvalues --   -0.53920  -0.53772  -0.53389  -0.53118  -0.52981
 Alpha  occ. eigenvalues --   -0.52534  -0.52419  -0.52236  -0.52162  -0.51786
 Alpha  occ. eigenvalues --   -0.51690  -0.51381  -0.50757  -0.50603  -0.50512
 Alpha  occ. eigenvalues --   -0.50409  -0.50234  -0.49715  -0.49567  -0.49527
 Alpha  occ. eigenvalues --   -0.49264  -0.49174  -0.48986  -0.48907  -0.48616
 Alpha  occ. eigenvalues --   -0.48514  -0.48291  -0.48027  -0.47857  -0.47664
 Alpha  occ. eigenvalues --   -0.47546  -0.47073  -0.46889  -0.46778  -0.46572
 Alpha  occ. eigenvalues --   -0.46407  -0.45943  -0.45913  -0.45866  -0.45767
 Alpha  occ. eigenvalues --   -0.45608  -0.45373  -0.45074  -0.44902  -0.44748
 Alpha  occ. eigenvalues --   -0.44690  -0.44373  -0.44187  -0.44109  -0.43859
 Alpha  occ. eigenvalues --   -0.43311  -0.43234  -0.43032  -0.42925  -0.42764
 Alpha  occ. eigenvalues --   -0.42720  -0.42434  -0.42366  -0.42133  -0.42067
 Alpha  occ. eigenvalues --   -0.41862  -0.41707  -0.41427  -0.41294  -0.41133
 Alpha  occ. eigenvalues --   -0.41064  -0.40830  -0.40502  -0.40282  -0.40216
 Alpha  occ. eigenvalues --   -0.40030  -0.39531  -0.39374  -0.39238  -0.38720
 Alpha  occ. eigenvalues --   -0.38502  -0.38300  -0.38274  -0.37555  -0.37418
 Alpha  occ. eigenvalues --   -0.37360  -0.37280  -0.36904  -0.36567  -0.36407
 Alpha  occ. eigenvalues --   -0.36313  -0.35843  -0.35444  -0.35287  -0.34370
 Alpha  occ. eigenvalues --   -0.33791  -0.33354  -0.32851  -0.31068  -0.30713
 Alpha  occ. eigenvalues --   -0.30403  -0.30009  -0.29397  -0.29088  -0.23552
 Alpha  occ. eigenvalues --   -0.21099
 Alpha virt. eigenvalues --   -0.08708  -0.01452   0.00399   0.02375   0.03495
 Alpha virt. eigenvalues --    0.04250   0.04957   0.05511   0.05927   0.06852
 Alpha virt. eigenvalues --    0.08050   0.08088   0.08491   0.08913   0.09100

 Mulliken charges:
               1
     1  Mg   0.826135
     2  C   -0.025425
     3  C   -0.067712
     4  C   -0.052272
     5  C   -0.101351
     6  N   -0.294671
     7  C   -0.039051
     8  C   -0.039069
     9  C   -0.050008
    10  C    0.047316
    11  C    0.055618
    12  C    0.068200
    13  C    0.055832
    14  C    0.113976
    15  O   -0.193031
    16  O   -0.311953
    17  N   -0.366382
    18  C    0.135914
    19  C   -0.144584
    20  C   -0.062733
    21  C    0.108892
    22  C    0.109005
    23  C    0.033068
    24  O   -0.214767
    25  C    0.037991
    26  N   -0.270189
    27  C    0.037555
    28  C   -0.020451
    29  C   -0.010996
    30  C    0.007182
    31  C    0.055522
    32  C    0.031064
    33  C    0.027064
    34  N   -0.391395
    35  C    0.177693
    36  C   -0.181237
    37  C    0.041792
    38  C    0.141850
    39  C    0.133563
    40  C    0.018319
    41  O   -0.200772
    42  C    0.023615
    43  C    0.202233
    44  O   -0.248209
    45  O   -0.321497
    46  C    0.178883
    47  C    0.280588
    48  C   -0.102315
    49  C   -0.192262
    50  C    0.065270
    51  C    0.079099
    52  C    0.043980
    53  C    0.047565
    54  C   -0.123211
    55  C    0.098219
    56  C    0.015783
    57  C    0.006201
    58  C    0.057311
    59  C   -0.125377
    60  C    0.038575
    61  C    0.064400
    62  C    0.007048
    63  C    0.049764
    64  C   -0.157813
    65  C    0.052249
    66  C    0.058669
    67  H   -0.033892
    68  H   -0.009582
    69  H   -0.029532
    70  H    0.049603
    71  H    0.006067
    72  H    0.046298
    73  H    0.003037
    74  H    0.010307
    75  H    0.012849
    76  H    0.026197
    77  H    0.025147
    78  H    0.025637
    79  H    0.013474
    80  H    0.013045
    81  H    0.037179
    82  H    0.051239
    83  H    0.024781
    84  H    0.029906
    85  H    0.015258
    86  H    0.011271
    87  H    0.017734
    88  H    0.019261
    89  H    0.007779
    90  H    0.002671
    91  H    0.010190
    92  H    0.020422
    93  H    0.022588
    94  H    0.015747
    95  H    0.033911
    96  H   -0.009617
    97  H    0.043731
    98  H    0.033289
    99  H    0.058993
   100  H    0.034299
   101  H    0.041492
   102  H    0.001092
   103  H    0.034994
   104  H   -0.022338
   105  H    0.023547
   106  H    0.006873
   107  H    0.015618
   108  H    0.004064
   109  H    0.005948
   110  H   -0.000454
   111  H    0.010717
   112  H   -0.013288
   113  H   -0.002112
   114  H   -0.006383
   115  H    0.007256
   116  H    0.011057
   117  H    0.002001
   118  H   -0.005235
   119  H   -0.006531
   120  H   -0.008914
   121  H   -0.005560
   122  H   -0.017434
   123  H   -0.021344
   124  H   -0.011030
   125  H    0.011487
   126  H   -0.001002
   127  H   -0.000926
   128  H    0.007462
   129  H   -0.004034
   130  H    0.007346
   131  H   -0.003285
   132  H   -0.014609
   133  H   -0.009899
   134  H   -0.005001
   135  H   -0.012352
   136  H    0.002680
   137  H    0.009524
   138  H   -0.002018
   139  H    0.000552
   140  H    0.006482
 Sum of Mulliken charges =  -0.00000

 Dipole moment (field-independent basis, Debye):
    X=              4.3452    Y=              2.6368    Z=             -2.1294  Tot=              5.5107
 Quadrupole moment (field-independent basis, Debye-Ang):
   XX=           -369.5998   YY=           -427.5011   ZZ=           -407.4607
   XY=             -6.4202   XZ=             -1.8999   YZ=              7.8832

 Normal termination of Gaussian 16 at Thu Apr 28 15:22:47 2022.
