 Gaussian 16, Revision A.03,
 Gaussian 16:  ES64L-G16RevA.03 25-Dec-2016

 ---------------------------------
 #p PBE1PBE/Def2SVP td=(nstates=5)
 ---------------------------------

 -----------------------------------------------------
 step_1601_chromophore_9 TDDFT with PBE1PBE functional
 -----------------------------------------------------
 Symbolic Z-matrix:
 Charge =  0 Multiplicity = 1

                         Standard orientation:
 ---------------------------------------------------------------------
 Center     Atomic      Atomic             Coordinates (Angstroms)
 Number     Number       Type             X           Y           Z
 ---------------------------------------------------------------------
      1         12           0       -5.213245    0.650502   -0.134527
      2          6           0       -3.584920   -2.499567   -0.243205
      3          6           0       -2.081350    2.110124   -0.236063
      4          6           0       -6.709900    3.705781    0.099502
      5          6           0       -8.203541   -0.933835    0.517541
      6          7           0       -3.117694   -0.188404   -0.301387
      7          6           0       -2.665578   -1.468314   -0.415035
      8          6           0       -1.161335   -1.547139   -0.434208
      9          6           0       -0.679044   -0.092382   -0.265678
     10          6           0       -2.028536    0.711455   -0.347926
     11          6           0        0.157968    0.200237    1.068488
     12          6           0       -0.655869   -2.341957   -1.713948
     13          6           0        0.404561   -3.532910   -1.526165
     14          6           0        1.461339   -3.502968   -0.489737
     15          8           0        1.301731   -3.784623    0.643270
     16          8           0        2.646669   -3.148255   -1.076218
     17          7           0       -4.531254    2.690974   -0.212325
     18          6           0       -3.197351    3.065357   -0.147014
     19          6           0       -3.054290    4.498067    0.081934
     20          6           0       -4.440042    4.981811    0.006227
     21          6           0       -5.326084    3.811164   -0.064181
     22          6           0       -1.751349    5.255108    0.316907
     23          6           0       -4.910841    6.483352    0.098515
     24          8           0       -6.116914    6.772009    0.058039
     25          6           0       -3.832062    7.531460    0.214170
     26          7           0       -7.166920    1.293652    0.260488
     27          6           0       -7.574968    2.594874    0.221107
     28          6           0       -9.065544    2.772063    0.473764
     29          6           0       -9.525701    1.240179    0.600523
     30          6           0       -8.209793    0.492794    0.455624
     31          6           0       -9.497148    3.771612    1.561372
     32          6           0      -10.578536    0.813121   -0.377549
     33          6           0      -10.239727    0.737176   -1.841843
     34          7           0       -5.774103   -1.245334    0.239332
     35          6           0       -7.070057   -1.749937    0.397143
     36          6           0       -7.067793   -3.148107    0.292861
     37          6           0       -5.683152   -3.513655    0.184909
     38          6           0       -4.955690   -2.305749    0.017752
     39          6           0       -8.251021   -4.082720    0.435321
     40          6           0       -4.761918   -4.597354    0.040269
     41          8           0       -5.077444   -5.802777   -0.062083
     42          6           0       -3.360450   -4.018765   -0.170991
     43          6           0       -2.499162   -4.382840    0.987520
     44          8           0       -2.487039   -3.783100    2.078523
     45          8           0       -1.888631   -5.560394    0.761316
     46          6           0       -0.922155   -6.086959    1.773426
     47          6           0        3.626854   -2.763390   -0.130126
     48          6           0        4.597216   -1.757139   -0.834468
     49          6           0        5.782577   -1.989689   -1.432507
     50          6           0        6.308498   -3.437073   -1.721971
     51          6           0        6.787196   -0.921129   -1.765797
     52          6           0        6.502629   -0.127801   -2.999615
     53          6           0        7.688681   -0.171253   -4.008783
     54          6           0        8.639905    1.060773   -3.925001
     55          6           0        9.001077    1.687810   -5.216340
     56          6           0        9.914309    0.657473   -3.041748
     57          6           0       10.285607    1.814378   -2.087354
     58          6           0       11.233936    1.414822   -1.063192
     59          6           0       11.296097    2.271120    0.192250
     60          6           0       12.127418    3.589320    0.002546
     61          6           0       11.819450    1.522026    1.403581
     62          6           0       10.631674    1.253679    2.400651
     63          6           0       11.160841    0.337830    3.505526
     64          6           0       10.638329    0.751032    4.859752
     65          6           0       11.574832    0.326172    5.969901
     66          6           0        9.193521    0.293791    5.036008
     67          1           0       -1.075575    2.524919   -0.140411
     68          1           0       -7.188970    4.684475    0.170762
     69          1           0       -9.163568   -1.447539    0.599836
     70          1           0       -0.875964   -2.148393    0.428484
     71          1           0       -0.015602    0.263991   -1.053503
     72          1           0       -0.103316   -0.554791    1.809591
     73          1           0       -0.065805    1.200291    1.439953
     74          1           0        1.219850    0.336077    0.862199
     75          1           0       -0.221569   -1.572235   -2.351535
     76          1           0       -1.482830   -2.823127   -2.236499
     77          1           0        0.864080   -3.682923   -2.502884
     78          1           0       -0.138208   -4.448517   -1.289152
     79          1           0       -0.946650    4.603842    0.659678
     80          1           0       -1.822024    5.928106    1.172427
     81          1           0       -1.438528    5.891028   -0.511051
     82          1           0       -3.531442    7.579639    1.260770
     83          1           0       -4.281784    8.467735   -0.116331
     84          1           0       -2.967712    7.448024   -0.444881
     85          1           0       -9.556954    3.173005   -0.413519
     86          1           0       -9.728020    1.032221    1.651771
     87          1           0       -9.946838    4.701367    1.212257
     88          1           0       -8.744857    4.196947    2.225781
     89          1           0      -10.186380    3.260856    2.234860
     90          1           0      -11.316845    1.606574   -0.265554
     91          1           0      -11.039285   -0.100778   -0.001850
     92          1           0       -9.223959    1.083870   -2.033640
     93          1           0      -10.955706    1.316880   -2.423330
     94          1           0      -10.214917   -0.306984   -2.150718
     95          1           0       -8.254407   -4.785153   -0.398576
     96          1           0       -9.151481   -3.471355    0.372927
     97          1           0       -8.303934   -4.663068    1.355583
     98          1           0       -2.923150   -4.454494   -1.068520
     99          1           0       -0.530713   -5.317814    2.439374
    100          1           0       -0.048530   -6.531258    1.297464
    101          1           0       -1.414424   -6.884071    2.330843
    102          1           0        4.213937   -3.660708    0.063195
    103          1           0        3.216825   -2.427950    0.822884
    104          1           0        4.287594   -0.716733   -0.933820
    105          1           0        5.865828   -4.364482   -1.360042
    106          1           0        7.384780   -3.457088   -1.553246
    107          1           0        6.211776   -3.510518   -2.805565
    108          1           0        7.766740   -1.395393   -1.714700
    109          1           0        6.722251   -0.238404   -0.918616
    110          1           0        6.365311    0.910612   -2.697521
    111          1           0        5.590444   -0.529682   -3.442428
    112          1           0        7.191213   -0.337001   -4.963836
    113          1           0        8.345927   -1.030804   -3.881967
    114          1           0        8.186859    1.813525   -3.279453
    115          1           0       10.088558    1.626828   -5.271290
    116          1           0        8.539190    2.674030   -5.213710
    117          1           0        8.572979    1.198800   -6.090817
    118          1           0       10.820842    0.537383   -3.635669
    119          1           0        9.778730   -0.185580   -2.364198
    120          1           0        9.412556    2.202068   -1.560833
    121          1           0       10.796408    2.552766   -2.705451
    122          1           0       12.208786    1.460085   -1.547886
    123          1           0       11.081525    0.396728   -0.704984
    124          1           0       10.305920    2.708532    0.314618
    125          1           0       11.458918    4.402850    0.284969
    126          1           0       12.508365    3.725010   -1.009431
    127          1           0       13.025777    3.564585    0.620655
    128          1           0       12.621995    2.036180    1.930922
    129          1           0       12.080519    0.522421    1.054428
    130          1           0        9.733591    0.820977    1.960116
    131          1           0       10.440194    2.227182    2.852547
    132          1           0       12.245094    0.286904    3.598706
    133          1           0       10.937400   -0.706666    3.287822
    134          1           0       10.639739    1.832662    4.993522
    135          1           0       12.417878   -0.276328    5.633264
    136          1           0       11.201159   -0.373496    6.716826
    137          1           0       12.034430    1.241814    6.341295
    138          1           0        9.044026   -0.381428    5.878179
    139          1           0        8.861786   -0.272843    4.165734
    140          1           0        8.494275    1.110718    5.214094
 ---------------------------------------------------------------------

 SCF Done:  E(RPBE1PBE) =  -3005.36936878     A.U. after   16 cycles

 Excitation energies and oscillator strengths:

 Excited State   1:      Singlet-A      1.8562 eV  667.93 nm  f=0.3804  <S**2>=0.000
     245 -> 248       -0.17295
     246 -> 247        0.69104
     246 <- 247       -0.10578
 This state for optimization and/or second-order correction.
 Total Energy, E(TD-HF/TD-DFT) =  -3005.30115307
 Copying the excited state density for this state as the 1-particle RhoCI density.

 Excited State   2:      Singlet-A      2.1891 eV  566.38 nm  f=0.1359  <S**2>=0.000
     245 -> 247        0.65952
     246 -> 248        0.23459

 Excited State   3:      Singlet-A      2.7834 eV  445.43 nm  f=0.0019  <S**2>=0.000
     241 -> 247        0.29590
     241 -> 249       -0.11469
     243 -> 247       -0.22388
     244 -> 247        0.56757

 Excited State   4:      Singlet-A      2.9679 eV  417.75 nm  f=0.0026  <S**2>=0.000
     241 -> 247       -0.28317
     243 -> 247        0.51742
     244 -> 247        0.37323

 Excited State   5:      Singlet-A      3.0697 eV  403.89 nm  f=0.0165  <S**2>=0.000
     241 -> 247        0.54050
     243 -> 247        0.39947
     244 -> 247       -0.13912

 The electronic state is 1-A.
 Alpha  occ. eigenvalues --  -46.91518 -19.25580 -19.25547 -19.21128 -19.19428
 Alpha  occ. eigenvalues --  -19.18885 -19.18233 -14.41641 -14.41396 -14.39019
 Alpha  occ. eigenvalues --  -14.38438 -10.36138 -10.35890 -10.32816 -10.31371
 Alpha  occ. eigenvalues --  -10.29334 -10.28778 -10.28596 -10.28446 -10.28376
 Alpha  occ. eigenvalues --  -10.28362 -10.28098 -10.27399 -10.26978 -10.26532
 Alpha  occ. eigenvalues --  -10.26417 -10.26322 -10.26197 -10.25911 -10.25834
 Alpha  occ. eigenvalues --  -10.25557 -10.25540 -10.25383 -10.25291 -10.25213
 Alpha  occ. eigenvalues --  -10.25100 -10.24950 -10.24808 -10.24763 -10.24547
 Alpha  occ. eigenvalues --  -10.23742 -10.23726 -10.23597 -10.23584 -10.23578
 Alpha  occ. eigenvalues --  -10.23577 -10.23394 -10.23263 -10.23218 -10.23127
 Alpha  occ. eigenvalues --  -10.23082 -10.22937 -10.22767 -10.22708 -10.22631
 Alpha  occ. eigenvalues --  -10.22547 -10.22488 -10.22464 -10.22406 -10.21929
 Alpha  occ. eigenvalues --  -10.21917 -10.21709 -10.21662 -10.21516 -10.21391
 Alpha  occ. eigenvalues --  -10.21233  -3.13647  -1.86502  -1.86010  -1.85882
 Alpha  occ. eigenvalues --   -1.13468  -1.10244  -1.05540  -1.03781  -1.02353
 Alpha  occ. eigenvalues --   -1.00753  -0.99137  -0.97707  -0.96628  -0.95873
 Alpha  occ. eigenvalues --   -0.86841  -0.85474  -0.84802  -0.83810  -0.83644
 Alpha  occ. eigenvalues --   -0.83095  -0.82335  -0.82291  -0.81124  -0.80631
 Alpha  occ. eigenvalues --   -0.79978  -0.79789  -0.78873  -0.77949  -0.77724
 Alpha  occ. eigenvalues --   -0.77074  -0.75980  -0.75406  -0.75005  -0.74524
 Alpha  occ. eigenvalues --   -0.74126  -0.72286  -0.72059  -0.71736  -0.70504
 Alpha  occ. eigenvalues --   -0.70424  -0.69975  -0.69708  -0.69199  -0.68431
 Alpha  occ. eigenvalues --   -0.68071  -0.67240  -0.65997  -0.65178  -0.64372
 Alpha  occ. eigenvalues --   -0.62842  -0.62702  -0.61244  -0.60866  -0.59425
 Alpha  occ. eigenvalues --   -0.59391  -0.59157  -0.59012  -0.58627  -0.58583
 Alpha  occ. eigenvalues --   -0.58441  -0.57960  -0.56887  -0.56172  -0.54606
 Alpha  occ. eigenvalues --   -0.54156  -0.53752  -0.53494  -0.52808  -0.52196
 Alpha  occ. eigenvalues --   -0.51766  -0.51539  -0.51269  -0.50494  -0.50446
 Alpha  occ. eigenvalues --   -0.50155  -0.49971  -0.49414  -0.49218  -0.48798
 Alpha  occ. eigenvalues --   -0.48434  -0.48262  -0.47878  -0.47645  -0.47520
 Alpha  occ. eigenvalues --   -0.47085  -0.46900  -0.46732  -0.46657  -0.46421
 Alpha  occ. eigenvalues --   -0.46309  -0.45909  -0.45375  -0.45190  -0.45092
 Alpha  occ. eigenvalues --   -0.44861  -0.44785  -0.44337  -0.44175  -0.44084
 Alpha  occ. eigenvalues --   -0.43898  -0.43823  -0.43587  -0.43529  -0.43193
 Alpha  occ. eigenvalues --   -0.43115  -0.42973  -0.42602  -0.42478  -0.42324
 Alpha  occ. eigenvalues --   -0.42187  -0.41755  -0.41557  -0.41447  -0.41220
 Alpha  occ. eigenvalues --   -0.41026  -0.40736  -0.40645  -0.40531  -0.40436
 Alpha  occ. eigenvalues --   -0.40333  -0.39991  -0.39875  -0.39692  -0.39453
 Alpha  occ. eigenvalues --   -0.39400  -0.39105  -0.39006  -0.38811  -0.38646
 Alpha  occ. eigenvalues --   -0.38144  -0.38007  -0.37878  -0.37653  -0.37533
 Alpha  occ. eigenvalues --   -0.37447  -0.37208  -0.37158  -0.36990  -0.36813
 Alpha  occ. eigenvalues --   -0.36698  -0.36569  -0.36288  -0.36085  -0.36071
 Alpha  occ. eigenvalues --   -0.35815  -0.35594  -0.35378  -0.35164  -0.34974
 Alpha  occ. eigenvalues --   -0.34961  -0.34445  -0.34245  -0.33982  -0.33514
 Alpha  occ. eigenvalues --   -0.33488  -0.33090  -0.33065  -0.32413  -0.32382
 Alpha  occ. eigenvalues --   -0.32181  -0.32034  -0.31758  -0.31618  -0.31442
 Alpha  occ. eigenvalues --   -0.31296  -0.30739  -0.30279  -0.30230  -0.29578
 Alpha  occ. eigenvalues --   -0.28776  -0.28506  -0.28007  -0.26463  -0.25904
 Alpha  occ. eigenvalues --   -0.25316  -0.25279  -0.24887  -0.24696  -0.20545
 Alpha  occ. eigenvalues --   -0.18723
 Alpha virt. eigenvalues --   -0.11122  -0.05014  -0.03787  -0.02017  -0.00233
 Alpha virt. eigenvalues --    0.00606   0.00703   0.00974   0.01748   0.02954
 Alpha virt. eigenvalues --    0.04250   0.04628   0.04870   0.05213   0.05569

 Mulliken charges:
               1
     1  Mg   0.977056
     2  C   -0.029510
     3  C   -0.065445
     4  C   -0.052964
     5  C   -0.084801
     6  N   -0.393827
     7  C    0.034082
     8  C   -0.110779
     9  C   -0.123017
    10  C    0.083335
    11  C   -0.001688
    12  C    0.022090
    13  C   -0.024374
    14  C    0.185711
    15  O   -0.228810
    16  O   -0.342878
    17  N   -0.479312
    18  C    0.160186
    19  C   -0.169366
    20  C   -0.106454
    21  C    0.143450
    22  C    0.046331
    23  C    0.083463
    24  O   -0.251432
    25  C   -0.035257
    26  N   -0.384626
    27  C    0.073412
    28  C   -0.090934
    29  C   -0.090556
    30  C    0.050343
    31  C   -0.001826
    32  C   -0.036146
    33  C   -0.045436
    34  N   -0.520390
    35  C    0.191798
    36  C   -0.198287
    37  C   -0.000696
    38  C    0.186797
    39  C    0.080449
    40  C    0.106428
    41  O   -0.245600
    42  C   -0.083135
    43  C    0.292452
    44  O   -0.281898
    45  O   -0.355497
    46  C    0.126461
    47  C    0.234226
    48  C   -0.109904
    49  C   -0.235367
    50  C    0.002987
    51  C    0.017820
    52  C   -0.022686
    53  C   -0.007985
    54  C   -0.208537
    55  C    0.040844
    56  C   -0.040781
    57  C   -0.059352
    58  C    0.004916
    59  C   -0.209026
    60  C   -0.016304
    61  C    0.003659
    62  C   -0.055423
    63  C   -0.007559
    64  C   -0.255037
    65  C   -0.003929
    66  C    0.003474
    67  H   -0.000786
    68  H    0.023300
    69  H    0.001680
    70  H    0.091920
    71  H    0.042175
    72  H    0.072536
    73  H    0.030544
    74  H    0.038074
    75  H    0.044536
    76  H    0.058451
    77  H    0.057391
    78  H    0.059995
    79  H    0.040722
    80  H    0.042315
    81  H    0.064979
    82  H    0.078002
    83  H    0.052685
    84  H    0.056186
    85  H    0.053691
    86  H    0.049801
    87  H    0.044397
    88  H    0.046630
    89  H    0.036036
    90  H    0.037516
    91  H    0.042117
    92  H    0.050161
    93  H    0.049601
    94  H    0.044011
    95  H    0.060952
    96  H    0.017835
    97  H    0.069606
    98  H    0.069135
    99  H    0.078619
   100  H    0.055051
   101  H    0.063218
   102  H    0.029928
   103  H    0.060544
   104  H    0.008269
   105  H    0.048851
   106  H    0.033994
   107  H    0.045762
   108  H    0.034625
   109  H    0.039600
   110  H    0.031571
   111  H    0.043375
   112  H    0.019402
   113  H    0.031005
   114  H    0.032121
   115  H    0.033870
   116  H    0.038071
   117  H    0.029319
   118  H    0.028088
   119  H    0.027914
   120  H    0.022785
   121  H    0.028808
   122  H    0.017007
   123  H    0.010531
   124  H    0.026524
   125  H    0.038388
   126  H    0.025877
   127  H    0.026108
   128  H    0.038709
   129  H    0.030351
   130  H    0.038216
   131  H    0.031265
   132  H    0.017689
   133  H    0.023700
   134  H    0.032764
   135  H    0.014702
   136  H    0.029130
   137  H    0.036556
   138  H    0.025124
   139  H    0.027890
   140  H    0.033545
 Sum of Mulliken charges =  -0.00000

 Dipole moment (field-independent basis, Debye):
    X=              4.4236    Y=              2.8956    Z=             -2.1300  Tot=              5.6999
 Quadrupole moment (field-independent basis, Debye-Ang):
   XX=           -364.2766   YY=           -424.6170   ZZ=           -405.0518
   XY=             -7.6611   XZ=             -2.2522   YZ=              8.1336

 Normal termination of Gaussian 16 at Thu Apr 28 15:46:04 2022.
