 Gaussian 16, Revision A.03,
 Gaussian 16:  ES64L-G16RevA.03 25-Dec-2016

 --------------------------------
 #p wB97XD/Def2SVP td=(nstates=5)
 --------------------------------

 ----------------------------------------------------
 step_1601_chromophore_9 TDDFT with wB97XD functional
 ----------------------------------------------------
 Symbolic Z-matrix:
 Charge =  0 Multiplicity = 1

                         Standard orientation:
 ---------------------------------------------------------------------
 Center     Atomic      Atomic             Coordinates (Angstroms)
 Number     Number       Type             X           Y           Z
 ---------------------------------------------------------------------
      1         12           0       -5.213245    0.650502   -0.134527
      2          6           0       -3.584920   -2.499567   -0.243205
      3          6           0       -2.081350    2.110124   -0.236063
      4          6           0       -6.709900    3.705781    0.099502
      5          6           0       -8.203541   -0.933835    0.517541
      6          7           0       -3.117694   -0.188404   -0.301387
      7          6           0       -2.665578   -1.468314   -0.415035
      8          6           0       -1.161335   -1.547139   -0.434208
      9          6           0       -0.679044   -0.092382   -0.265678
     10          6           0       -2.028536    0.711455   -0.347926
     11          6           0        0.157968    0.200237    1.068488
     12          6           0       -0.655869   -2.341957   -1.713948
     13          6           0        0.404561   -3.532910   -1.526165
     14          6           0        1.461339   -3.502968   -0.489737
     15          8           0        1.301731   -3.784623    0.643270
     16          8           0        2.646669   -3.148255   -1.076218
     17          7           0       -4.531254    2.690974   -0.212325
     18          6           0       -3.197351    3.065357   -0.147014
     19          6           0       -3.054290    4.498067    0.081934
     20          6           0       -4.440042    4.981811    0.006227
     21          6           0       -5.326084    3.811164   -0.064181
     22          6           0       -1.751349    5.255108    0.316907
     23          6           0       -4.910841    6.483352    0.098515
     24          8           0       -6.116914    6.772009    0.058039
     25          6           0       -3.832062    7.531460    0.214170
     26          7           0       -7.166920    1.293652    0.260488
     27          6           0       -7.574968    2.594874    0.221107
     28          6           0       -9.065544    2.772063    0.473764
     29          6           0       -9.525701    1.240179    0.600523
     30          6           0       -8.209793    0.492794    0.455624
     31          6           0       -9.497148    3.771612    1.561372
     32          6           0      -10.578536    0.813121   -0.377549
     33          6           0      -10.239727    0.737176   -1.841843
     34          7           0       -5.774103   -1.245334    0.239332
     35          6           0       -7.070057   -1.749937    0.397143
     36          6           0       -7.067793   -3.148107    0.292861
     37          6           0       -5.683152   -3.513655    0.184909
     38          6           0       -4.955690   -2.305749    0.017752
     39          6           0       -8.251021   -4.082720    0.435321
     40          6           0       -4.761918   -4.597354    0.040269
     41          8           0       -5.077444   -5.802777   -0.062083
     42          6           0       -3.360450   -4.018765   -0.170991
     43          6           0       -2.499162   -4.382840    0.987520
     44          8           0       -2.487039   -3.783100    2.078523
     45          8           0       -1.888631   -5.560394    0.761316
     46          6           0       -0.922155   -6.086959    1.773426
     47          6           0        3.626854   -2.763390   -0.130126
     48          6           0        4.597216   -1.757139   -0.834468
     49          6           0        5.782577   -1.989689   -1.432507
     50          6           0        6.308498   -3.437073   -1.721971
     51          6           0        6.787196   -0.921129   -1.765797
     52          6           0        6.502629   -0.127801   -2.999615
     53          6           0        7.688681   -0.171253   -4.008783
     54          6           0        8.639905    1.060773   -3.925001
     55          6           0        9.001077    1.687810   -5.216340
     56          6           0        9.914309    0.657473   -3.041748
     57          6           0       10.285607    1.814378   -2.087354
     58          6           0       11.233936    1.414822   -1.063192
     59          6           0       11.296097    2.271120    0.192250
     60          6           0       12.127418    3.589320    0.002546
     61          6           0       11.819450    1.522026    1.403581
     62          6           0       10.631674    1.253679    2.400651
     63          6           0       11.160841    0.337830    3.505526
     64          6           0       10.638329    0.751032    4.859752
     65          6           0       11.574832    0.326172    5.969901
     66          6           0        9.193521    0.293791    5.036008
     67          1           0       -1.075575    2.524919   -0.140411
     68          1           0       -7.188970    4.684475    0.170762
     69          1           0       -9.163568   -1.447539    0.599836
     70          1           0       -0.875964   -2.148393    0.428484
     71          1           0       -0.015602    0.263991   -1.053503
     72          1           0       -0.103316   -0.554791    1.809591
     73          1           0       -0.065805    1.200291    1.439953
     74          1           0        1.219850    0.336077    0.862199
     75          1           0       -0.221569   -1.572235   -2.351535
     76          1           0       -1.482830   -2.823127   -2.236499
     77          1           0        0.864080   -3.682923   -2.502884
     78          1           0       -0.138208   -4.448517   -1.289152
     79          1           0       -0.946650    4.603842    0.659678
     80          1           0       -1.822024    5.928106    1.172427
     81          1           0       -1.438528    5.891028   -0.511051
     82          1           0       -3.531442    7.579639    1.260770
     83          1           0       -4.281784    8.467735   -0.116331
     84          1           0       -2.967712    7.448024   -0.444881
     85          1           0       -9.556954    3.173005   -0.413519
     86          1           0       -9.728020    1.032221    1.651771
     87          1           0       -9.946838    4.701367    1.212257
     88          1           0       -8.744857    4.196947    2.225781
     89          1           0      -10.186380    3.260856    2.234860
     90          1           0      -11.316845    1.606574   -0.265554
     91          1           0      -11.039285   -0.100778   -0.001850
     92          1           0       -9.223959    1.083870   -2.033640
     93          1           0      -10.955706    1.316880   -2.423330
     94          1           0      -10.214917   -0.306984   -2.150718
     95          1           0       -8.254407   -4.785153   -0.398576
     96          1           0       -9.151481   -3.471355    0.372927
     97          1           0       -8.303934   -4.663068    1.355583
     98          1           0       -2.923150   -4.454494   -1.068520
     99          1           0       -0.530713   -5.317814    2.439374
    100          1           0       -0.048530   -6.531258    1.297464
    101          1           0       -1.414424   -6.884071    2.330843
    102          1           0        4.213937   -3.660708    0.063195
    103          1           0        3.216825   -2.427950    0.822884
    104          1           0        4.287594   -0.716733   -0.933820
    105          1           0        5.865828   -4.364482   -1.360042
    106          1           0        7.384780   -3.457088   -1.553246
    107          1           0        6.211776   -3.510518   -2.805565
    108          1           0        7.766740   -1.395393   -1.714700
    109          1           0        6.722251   -0.238404   -0.918616
    110          1           0        6.365311    0.910612   -2.697521
    111          1           0        5.590444   -0.529682   -3.442428
    112          1           0        7.191213   -0.337001   -4.963836
    113          1           0        8.345927   -1.030804   -3.881967
    114          1           0        8.186859    1.813525   -3.279453
    115          1           0       10.088558    1.626828   -5.271290
    116          1           0        8.539190    2.674030   -5.213710
    117          1           0        8.572979    1.198800   -6.090817
    118          1           0       10.820842    0.537383   -3.635669
    119          1           0        9.778730   -0.185580   -2.364198
    120          1           0        9.412556    2.202068   -1.560833
    121          1           0       10.796408    2.552766   -2.705451
    122          1           0       12.208786    1.460085   -1.547886
    123          1           0       11.081525    0.396728   -0.704984
    124          1           0       10.305920    2.708532    0.314618
    125          1           0       11.458918    4.402850    0.284969
    126          1           0       12.508365    3.725010   -1.009431
    127          1           0       13.025777    3.564585    0.620655
    128          1           0       12.621995    2.036180    1.930922
    129          1           0       12.080519    0.522421    1.054428
    130          1           0        9.733591    0.820977    1.960116
    131          1           0       10.440194    2.227182    2.852547
    132          1           0       12.245094    0.286904    3.598706
    133          1           0       10.937400   -0.706666    3.287822
    134          1           0       10.639739    1.832662    4.993522
    135          1           0       12.417878   -0.276328    5.633264
    136          1           0       11.201159   -0.373496    6.716826
    137          1           0       12.034430    1.241814    6.341295
    138          1           0        9.044026   -0.381428    5.878179
    139          1           0        8.861786   -0.272843    4.165734
    140          1           0        8.494275    1.110718    5.214094
 ---------------------------------------------------------------------

 SCF Done:  E(RwB97XD) =  -3007.87739704     A.U. after   19 cycles

 Excitation energies and oscillator strengths:

 Excited State   1:      Singlet-A      1.6400 eV  756.00 nm  f=0.3946  <S**2>=0.000
     245 -> 248       -0.18716
     246 -> 247        0.68224
     245 <- 248       -0.11775
 This state for optimization and/or second-order correction.
 Total Energy, E(TD-HF/TD-DFT) =  -3007.81712826
 Copying the excited state density for this state as the 1-particle RhoCI density.

 Excited State   2:      Singlet-A      2.1232 eV  583.96 nm  f=0.1402  <S**2>=0.000
     245 -> 247        0.64870
     246 -> 248        0.26526

 Excited State   3:      Singlet-A      3.2202 eV  385.02 nm  f=0.0020  <S**2>=0.000
     241 -> 247       -0.21122
     241 -> 249        0.18847
     241 -> 250       -0.12487
     243 -> 247        0.49438
     243 -> 249       -0.13463
     244 -> 247       -0.35002

 Excited State   4:      Singlet-A      3.3407 eV  371.13 nm  f=0.0007  <S**2>=0.000
     241 -> 247        0.45965
     241 -> 249       -0.22662
     241 -> 250        0.11407
     244 -> 247       -0.43270

 Excited State   5:      Singlet-A      3.4362 eV  360.82 nm  f=0.0141  <S**2>=0.000
     241 -> 247        0.28795
     241 -> 249       -0.10054
     243 -> 247        0.43087
     244 -> 247        0.37612
     246 -> 248       -0.23438

 The electronic state is 1-A.
 Alpha  occ. eigenvalues --  -46.94453 -19.30180 -19.30154 -19.25836 -19.24148
 Alpha  occ. eigenvalues --  -19.23659 -19.23201 -14.46811 -14.46387 -14.43887
 Alpha  occ. eigenvalues --  -14.43424 -10.42970 -10.42798 -10.39556 -10.38381
 Alpha  occ. eigenvalues --  -10.35845 -10.35014 -10.34970 -10.34942 -10.34719
 Alpha  occ. eigenvalues --  -10.34594 -10.34242 -10.33550 -10.33472 -10.32912
 Alpha  occ. eigenvalues --  -10.32763 -10.32580 -10.32517 -10.32418 -10.32124
 Alpha  occ. eigenvalues --  -10.32091 -10.31869 -10.31738 -10.31559 -10.31410
 Alpha  occ. eigenvalues --  -10.31331 -10.31229 -10.31209 -10.31196 -10.31118
 Alpha  occ. eigenvalues --  -10.30099 -10.30079 -10.30054 -10.30020 -10.30002
 Alpha  occ. eigenvalues --  -10.29868 -10.29842 -10.29755 -10.29591 -10.29484
 Alpha  occ. eigenvalues --  -10.29409 -10.29276 -10.29206 -10.29046 -10.28952
 Alpha  occ. eigenvalues --  -10.28894 -10.28830 -10.28817 -10.28755 -10.28345
 Alpha  occ. eigenvalues --  -10.28305 -10.28113 -10.28015 -10.27885 -10.27811
 Alpha  occ. eigenvalues --  -10.27638  -3.20438  -1.94042  -1.93554  -1.93417
 Alpha  occ. eigenvalues --   -1.20848  -1.17715  -1.12885  -1.11186  -1.09998
 Alpha  occ. eigenvalues --   -1.08207  -1.06546  -1.05167  -1.04022  -1.03126
 Alpha  occ. eigenvalues --   -0.94552  -0.93125  -0.92450  -0.91407  -0.91287
 Alpha  occ. eigenvalues --   -0.90748  -0.89959  -0.89889  -0.88721  -0.88310
 Alpha  occ. eigenvalues --   -0.87620  -0.87415  -0.86514  -0.85630  -0.85331
 Alpha  occ. eigenvalues --   -0.84710  -0.83657  -0.83083  -0.82656  -0.82142
 Alpha  occ. eigenvalues --   -0.81757  -0.79964  -0.79648  -0.79317  -0.78183
 Alpha  occ. eigenvalues --   -0.78107  -0.77658  -0.77276  -0.76856  -0.76076
 Alpha  occ. eigenvalues --   -0.75669  -0.74831  -0.73521  -0.72781  -0.71949
 Alpha  occ. eigenvalues --   -0.70463  -0.70295  -0.68874  -0.68371  -0.66882
 Alpha  occ. eigenvalues --   -0.66876  -0.66786  -0.66473  -0.66313  -0.66039
 Alpha  occ. eigenvalues --   -0.65901  -0.65598  -0.64506  -0.63629  -0.61986
 Alpha  occ. eigenvalues --   -0.61685  -0.61189  -0.60969  -0.60169  -0.59806
 Alpha  occ. eigenvalues --   -0.59275  -0.58952  -0.58684  -0.57998  -0.57905
 Alpha  occ. eigenvalues --   -0.57565  -0.57383  -0.56849  -0.56587  -0.56257
 Alpha  occ. eigenvalues --   -0.55840  -0.55704  -0.55259  -0.55024  -0.54895
 Alpha  occ. eigenvalues --   -0.54428  -0.54331  -0.54131  -0.54054  -0.53715
 Alpha  occ. eigenvalues --   -0.53615  -0.53253  -0.52731  -0.52508  -0.52419
 Alpha  occ. eigenvalues --   -0.52352  -0.52137  -0.51637  -0.51491  -0.51397
 Alpha  occ. eigenvalues --   -0.51166  -0.51125  -0.50927  -0.50790  -0.50473
 Alpha  occ. eigenvalues --   -0.50424  -0.50215  -0.49961  -0.49782  -0.49591
 Alpha  occ. eigenvalues --   -0.49457  -0.48981  -0.48786  -0.48676  -0.48490
 Alpha  occ. eigenvalues --   -0.48328  -0.47866  -0.47846  -0.47759  -0.47698
 Alpha  occ. eigenvalues --   -0.47521  -0.47220  -0.46989  -0.46811  -0.46691
 Alpha  occ. eigenvalues --   -0.46609  -0.46291  -0.46093  -0.45972  -0.45797
 Alpha  occ. eigenvalues --   -0.45238  -0.45117  -0.44950  -0.44805  -0.44775
 Alpha  occ. eigenvalues --   -0.44610  -0.44317  -0.44271  -0.44068  -0.43952
 Alpha  occ. eigenvalues --   -0.43815  -0.43640  -0.43403  -0.43171  -0.43079
 Alpha  occ. eigenvalues --   -0.43032  -0.42690  -0.42408  -0.42152  -0.42105
 Alpha  occ. eigenvalues --   -0.41937  -0.41422  -0.41249  -0.41069  -0.40564
 Alpha  occ. eigenvalues --   -0.40418  -0.40156  -0.40101  -0.39411  -0.39296
 Alpha  occ. eigenvalues --   -0.39247  -0.39105  -0.38778  -0.38600  -0.38380
 Alpha  occ. eigenvalues --   -0.38333  -0.37869  -0.37357  -0.37138  -0.36378
 Alpha  occ. eigenvalues --   -0.35612  -0.35276  -0.35118  -0.33035  -0.32890
 Alpha  occ. eigenvalues --   -0.32432  -0.32026  -0.31584  -0.31249  -0.25471
 Alpha  occ. eigenvalues --   -0.22897
 Alpha virt. eigenvalues --   -0.07079   0.00468   0.02439   0.04473   0.06493
 Alpha virt. eigenvalues --    0.06590   0.07349   0.07645   0.08400   0.09491
 Alpha virt. eigenvalues --    0.10709   0.11443   0.11672   0.11954   0.12321

 Mulliken charges:
               1
     1  Mg   0.965900
     2  C   -0.036660
     3  C   -0.078403
     4  C   -0.061207
     5  C   -0.103039
     6  N   -0.363215
     7  C    0.007744
     8  C   -0.083960
     9  C   -0.099043
    10  C    0.069691
    11  C    0.010183
    12  C    0.031273
    13  C   -0.003786
    14  C    0.172714
    15  O   -0.224536
    16  O   -0.341917
    17  N   -0.446252
    18  C    0.151899
    19  C   -0.163962
    20  C   -0.101071
    21  C    0.131482
    22  C    0.061787
    23  C    0.079033
    24  O   -0.246262
    25  C   -0.024568
    26  N   -0.346126
    27  C    0.056035
    28  C   -0.068477
    29  C   -0.062424
    30  C    0.033843
    31  C    0.006788
    32  C   -0.019865
    33  C   -0.029578
    34  N   -0.484248
    35  C    0.189178
    36  C   -0.195480
    37  C    0.001285
    38  C    0.173940
    39  C    0.093099
    40  C    0.089356
    41  O   -0.234833
    42  C   -0.043466
    43  C    0.266464
    44  O   -0.275605
    45  O   -0.352529
    46  C    0.139600
    47  C    0.250207
    48  C   -0.121710
    49  C   -0.219679
    50  C    0.016566
    51  C    0.037042
    52  C   -0.005407
    53  C    0.008392
    54  C   -0.175576
    55  C    0.049732
    56  C   -0.022088
    57  C   -0.036894
    58  C    0.021366
    59  C   -0.180968
    60  C   -0.005914
    61  C    0.024259
    62  C   -0.038914
    63  C    0.009081
    64  C   -0.222849
    65  C    0.005897
    66  C    0.011918
    67  H   -0.010894
    68  H    0.017434
    69  H   -0.006493
    70  H    0.070749
    71  H    0.032848
    72  H    0.068070
    73  H    0.023165
    74  H    0.032587
    75  H    0.037915
    76  H    0.049850
    77  H    0.053325
    78  H    0.049687
    79  H    0.035948
    80  H    0.034737
    81  H    0.059371
    82  H    0.073537
    83  H    0.050710
    84  H    0.050685
    85  H    0.042130
    86  H    0.039447
    87  H    0.039856
    88  H    0.040766
    89  H    0.029521
    90  H    0.028301
    91  H    0.034981
    92  H    0.040279
    93  H    0.045973
    94  H    0.038146
    95  H    0.057487
    96  H    0.012069
    97  H    0.066647
    98  H    0.062553
    99  H    0.076304
   100  H    0.052133
   101  H    0.060049
   102  H    0.022519
   103  H    0.056860
   104  H    0.004549
   105  H    0.045209
   106  H    0.028170
   107  H    0.037665
   108  H    0.022095
   109  H    0.031920
   110  H    0.023829
   111  H    0.035149
   112  H    0.012524
   113  H    0.019690
   114  H    0.014684
   115  H    0.027239
   116  H    0.033437
   117  H    0.023930
   118  H    0.018555
   119  H    0.013029
   120  H    0.011159
   121  H    0.018393
   122  H    0.007073
   123  H   -0.001287
   124  H    0.011822
   125  H    0.033503
   126  H    0.019754
   127  H    0.019549
   128  H    0.030258
   129  H    0.018632
   130  H    0.030568
   131  H    0.019709
   132  H    0.006684
   133  H    0.015048
   134  H    0.021305
   135  H    0.007853
   136  H    0.023842
   137  H    0.031510
   138  H    0.019203
   139  H    0.020568
   140  H    0.028685
 Sum of Mulliken charges =  -0.00000

 Dipole moment (field-independent basis, Debye):
    X=              4.3556    Y=              2.6059    Z=             -2.1445  Tot=              5.5101
 Quadrupole moment (field-independent basis, Debye-Ang):
   XX=           -364.2364   YY=           -423.1516   ZZ=           -404.6066
   XY=             -5.8186   XZ=             -2.1150   YZ=              7.9883

 Normal termination of Gaussian 16 at Thu Apr 28 16:14:16 2022.
