 Gaussian 16, Revision A.03,
 Gaussian 16:  ES64L-G16RevA.03 25-Dec-2016

 --------------------
 #p ZINDO=(nstates=5)
 --------------------

 -----------------------------
 step_1601_chromophore_9 ZINDO
 -----------------------------
 Symbolic Z-matrix:
 Charge =  0 Multiplicity = 1

                         Standard orientation:
 ---------------------------------------------------------------------
 Center     Atomic      Atomic             Coordinates (Angstroms)
 Number     Number       Type             X           Y           Z
 ---------------------------------------------------------------------
      1         12           0       -5.213245    0.650502   -0.134527
      2          6           0       -3.584920   -2.499567   -0.243205
      3          6           0       -2.081350    2.110124   -0.236063
      4          6           0       -6.709900    3.705781    0.099502
      5          6           0       -8.203541   -0.933835    0.517541
      6          7           0       -3.117694   -0.188404   -0.301387
      7          6           0       -2.665578   -1.468314   -0.415035
      8          6           0       -1.161335   -1.547139   -0.434208
      9          6           0       -0.679044   -0.092382   -0.265678
     10          6           0       -2.028536    0.711455   -0.347926
     11          6           0        0.157968    0.200237    1.068488
     12          6           0       -0.655869   -2.341957   -1.713948
     13          6           0        0.404561   -3.532910   -1.526165
     14          6           0        1.461339   -3.502968   -0.489737
     15          8           0        1.301731   -3.784623    0.643270
     16          8           0        2.646669   -3.148255   -1.076218
     17          7           0       -4.531254    2.690974   -0.212325
     18          6           0       -3.197351    3.065357   -0.147014
     19          6           0       -3.054290    4.498067    0.081934
     20          6           0       -4.440042    4.981811    0.006227
     21          6           0       -5.326084    3.811164   -0.064181
     22          6           0       -1.751349    5.255108    0.316907
     23          6           0       -4.910841    6.483352    0.098515
     24          8           0       -6.116914    6.772009    0.058039
     25          6           0       -3.832062    7.531460    0.214170
     26          7           0       -7.166920    1.293652    0.260488
     27          6           0       -7.574968    2.594874    0.221107
     28          6           0       -9.065544    2.772063    0.473764
     29          6           0       -9.525701    1.240179    0.600523
     30          6           0       -8.209793    0.492794    0.455624
     31          6           0       -9.497148    3.771612    1.561372
     32          6           0      -10.578536    0.813121   -0.377549
     33          6           0      -10.239727    0.737176   -1.841843
     34          7           0       -5.774103   -1.245334    0.239332
     35          6           0       -7.070057   -1.749937    0.397143
     36          6           0       -7.067793   -3.148107    0.292861
     37          6           0       -5.683152   -3.513655    0.184909
     38          6           0       -4.955690   -2.305749    0.017752
     39          6           0       -8.251021   -4.082720    0.435321
     40          6           0       -4.761918   -4.597354    0.040269
     41          8           0       -5.077444   -5.802777   -0.062083
     42          6           0       -3.360450   -4.018765   -0.170991
     43          6           0       -2.499162   -4.382840    0.987520
     44          8           0       -2.487039   -3.783100    2.078523
     45          8           0       -1.888631   -5.560394    0.761316
     46          6           0       -0.922155   -6.086959    1.773426
     47          6           0        3.626854   -2.763390   -0.130126
     48          6           0        4.597216   -1.757139   -0.834468
     49          6           0        5.782577   -1.989689   -1.432507
     50          6           0        6.308498   -3.437073   -1.721971
     51          6           0        6.787196   -0.921129   -1.765797
     52          6           0        6.502629   -0.127801   -2.999615
     53          6           0        7.688681   -0.171253   -4.008783
     54          6           0        8.639905    1.060773   -3.925001
     55          6           0        9.001077    1.687810   -5.216340
     56          6           0        9.914309    0.657473   -3.041748
     57          6           0       10.285607    1.814378   -2.087354
     58          6           0       11.233936    1.414822   -1.063192
     59          6           0       11.296097    2.271120    0.192250
     60          6           0       12.127418    3.589320    0.002546
     61          6           0       11.819450    1.522026    1.403581
     62          6           0       10.631674    1.253679    2.400651
     63          6           0       11.160841    0.337830    3.505526
     64          6           0       10.638329    0.751032    4.859752
     65          6           0       11.574832    0.326172    5.969901
     66          6           0        9.193521    0.293791    5.036008
     67          1           0       -1.075575    2.524919   -0.140411
     68          1           0       -7.188970    4.684475    0.170762
     69          1           0       -9.163568   -1.447539    0.599836
     70          1           0       -0.875964   -2.148393    0.428484
     71          1           0       -0.015602    0.263991   -1.053503
     72          1           0       -0.103316   -0.554791    1.809591
     73          1           0       -0.065805    1.200291    1.439953
     74          1           0        1.219850    0.336077    0.862199
     75          1           0       -0.221569   -1.572235   -2.351535
     76          1           0       -1.482830   -2.823127   -2.236499
     77          1           0        0.864080   -3.682923   -2.502884
     78          1           0       -0.138208   -4.448517   -1.289152
     79          1           0       -0.946650    4.603842    0.659678
     80          1           0       -1.822024    5.928106    1.172427
     81          1           0       -1.438528    5.891028   -0.511051
     82          1           0       -3.531442    7.579639    1.260770
     83          1           0       -4.281784    8.467735   -0.116331
     84          1           0       -2.967712    7.448024   -0.444881
     85          1           0       -9.556954    3.173005   -0.413519
     86          1           0       -9.728020    1.032221    1.651771
     87          1           0       -9.946838    4.701367    1.212257
     88          1           0       -8.744857    4.196947    2.225781
     89          1           0      -10.186380    3.260856    2.234860
     90          1           0      -11.316845    1.606574   -0.265554
     91          1           0      -11.039285   -0.100778   -0.001850
     92          1           0       -9.223959    1.083870   -2.033640
     93          1           0      -10.955706    1.316880   -2.423330
     94          1           0      -10.214917   -0.306984   -2.150718
     95          1           0       -8.254407   -4.785153   -0.398576
     96          1           0       -9.151481   -3.471355    0.372927
     97          1           0       -8.303934   -4.663068    1.355583
     98          1           0       -2.923150   -4.454494   -1.068520
     99          1           0       -0.530713   -5.317814    2.439374
    100          1           0       -0.048530   -6.531258    1.297464
    101          1           0       -1.414424   -6.884071    2.330843
    102          1           0        4.213937   -3.660708    0.063195
    103          1           0        3.216825   -2.427950    0.822884
    104          1           0        4.287594   -0.716733   -0.933820
    105          1           0        5.865828   -4.364482   -1.360042
    106          1           0        7.384780   -3.457088   -1.553246
    107          1           0        6.211776   -3.510518   -2.805565
    108          1           0        7.766740   -1.395393   -1.714700
    109          1           0        6.722251   -0.238404   -0.918616
    110          1           0        6.365311    0.910612   -2.697521
    111          1           0        5.590444   -0.529682   -3.442428
    112          1           0        7.191213   -0.337001   -4.963836
    113          1           0        8.345927   -1.030804   -3.881967
    114          1           0        8.186859    1.813525   -3.279453
    115          1           0       10.088558    1.626828   -5.271290
    116          1           0        8.539190    2.674030   -5.213710
    117          1           0        8.572979    1.198800   -6.090817
    118          1           0       10.820842    0.537383   -3.635669
    119          1           0        9.778730   -0.185580   -2.364198
    120          1           0        9.412556    2.202068   -1.560833
    121          1           0       10.796408    2.552766   -2.705451
    122          1           0       12.208786    1.460085   -1.547886
    123          1           0       11.081525    0.396728   -0.704984
    124          1           0       10.305920    2.708532    0.314618
    125          1           0       11.458918    4.402850    0.284969
    126          1           0       12.508365    3.725010   -1.009431
    127          1           0       13.025777    3.564585    0.620655
    128          1           0       12.621995    2.036180    1.930922
    129          1           0       12.080519    0.522421    1.054428
    130          1           0        9.733591    0.820977    1.960116
    131          1           0       10.440194    2.227182    2.852547
    132          1           0       12.245094    0.286904    3.598706
    133          1           0       10.937400   -0.706666    3.287822
    134          1           0       10.639739    1.832662    4.993522
    135          1           0       12.417878   -0.276328    5.633264
    136          1           0       11.201159   -0.373496    6.716826
    137          1           0       12.034430    1.241814    6.341295
    138          1           0        9.044026   -0.381428    5.878179
    139          1           0        8.861786   -0.272843    4.165734
    140          1           0        8.494275    1.110718    5.214094
 ---------------------------------------------------------------------

 SCF Done:  E(RZINDO/S) =  -474.400598637     A.U. after   19 cycles

 Excitation energies and oscillator strengths:

 Excited State   1:      Singlet-A      1.2395 eV 1000.31 nm  f=0.6110  <S**2>=0.000
     175 ->178         0.19162
     176 ->177         0.66266
 This state for optimization and/or second-order correction.
 Total Energy, E(CIS/TDA) =  -474.355049199
 Copying the excited state density for this state as the 1-particle RhoCI density.

 Excited State   2:      Singlet-A      1.9064 eV  650.35 nm  f=0.0879  <S**2>=0.000
     175 ->177         0.57447
     176 ->178        -0.38402

 Excited State   3:      Singlet-A      2.8186 eV  439.87 nm  f=0.0018  <S**2>=0.000
     168 ->177         0.31526
     168 ->179        -0.35262
     168 ->180         0.13877
     168 ->186        -0.15426
     169 ->177         0.15140
     169 ->179        -0.15433
     171 ->177         0.24226
     171 ->179        -0.13173

 Excited State   4:      Singlet-A      3.0248 eV  409.89 nm  f=1.1170  <S**2>=0.000
     171 ->177        -0.12874
     175 ->177         0.35347
     176 ->178         0.55539

 Excited State   5:      Singlet-A      3.0566 eV  405.62 nm  f=0.0191  <S**2>=0.000
     168 ->177         0.10181
     169 ->179        -0.10268
     171 ->177        -0.11359
     176 ->179         0.59429
     176 ->180         0.15552

 The electronic state is 1-A.
 Alpha  occ. eigenvalues --   -1.84810  -1.81229  -1.77583  -1.75776  -1.71321
 Alpha  occ. eigenvalues --   -1.69125  -1.68089  -1.63187  -1.58265  -1.58058
 Alpha  occ. eigenvalues --   -1.55734  -1.53092  -1.49987  -1.48363  -1.48198
 Alpha  occ. eigenvalues --   -1.43347  -1.41727  -1.40288  -1.39586  -1.37516
 Alpha  occ. eigenvalues --   -1.35475  -1.33676  -1.32847  -1.30170  -1.28850
 Alpha  occ. eigenvalues --   -1.28221  -1.24595  -1.21447  -1.20267  -1.17861
 Alpha  occ. eigenvalues --   -1.17469  -1.17396  -1.15993  -1.14661  -1.13415
 Alpha  occ. eigenvalues --   -1.12968  -1.10551  -1.09505  -1.05528  -1.03953
 Alpha  occ. eigenvalues --   -1.02325  -1.01427  -0.98932  -0.98067  -0.97782
 Alpha  occ. eigenvalues --   -0.96088  -0.94713  -0.94280  -0.93698  -0.92201
 Alpha  occ. eigenvalues --   -0.91040  -0.89716  -0.88386  -0.87797  -0.87151
 Alpha  occ. eigenvalues --   -0.84713  -0.84116  -0.83454  -0.81079  -0.80713
 Alpha  occ. eigenvalues --   -0.80001  -0.78983  -0.78182  -0.76606  -0.76323
 Alpha  occ. eigenvalues --   -0.76036  -0.75486  -0.75308  -0.75010  -0.74304
 Alpha  occ. eigenvalues --   -0.73811  -0.73085  -0.72639  -0.71466  -0.70845
 Alpha  occ. eigenvalues --   -0.69965  -0.69814  -0.69082  -0.68297  -0.67899
 Alpha  occ. eigenvalues --   -0.67575  -0.66394  -0.66237  -0.65739  -0.65618
 Alpha  occ. eigenvalues --   -0.65365  -0.64938  -0.64145  -0.63771  -0.63682
 Alpha  occ. eigenvalues --   -0.63157  -0.63104  -0.62540  -0.62143  -0.62048
 Alpha  occ. eigenvalues --   -0.61149  -0.60912  -0.60467  -0.59687  -0.59644
 Alpha  occ. eigenvalues --   -0.59438  -0.58832  -0.58378  -0.58206  -0.57682
 Alpha  occ. eigenvalues --   -0.57578  -0.57001  -0.56759  -0.56554  -0.56353
 Alpha  occ. eigenvalues --   -0.56261  -0.56180  -0.55015  -0.54858  -0.54465
 Alpha  occ. eigenvalues --   -0.53889  -0.53764  -0.53083  -0.52586  -0.52540
 Alpha  occ. eigenvalues --   -0.52431  -0.52099  -0.51560  -0.51342  -0.51235
 Alpha  occ. eigenvalues --   -0.50948  -0.50692  -0.50429  -0.50188  -0.50019
 Alpha  occ. eigenvalues --   -0.49636  -0.49178  -0.49060  -0.49007  -0.48709
 Alpha  occ. eigenvalues --   -0.48521  -0.47942  -0.47748  -0.47650  -0.47148
 Alpha  occ. eigenvalues --   -0.47092  -0.46861  -0.46487  -0.46456  -0.46307
 Alpha  occ. eigenvalues --   -0.46264  -0.45933  -0.45591  -0.45347  -0.45109
 Alpha  occ. eigenvalues --   -0.44927  -0.44789  -0.44586  -0.44417  -0.44144
 Alpha  occ. eigenvalues --   -0.44070  -0.44040  -0.42764  -0.42720  -0.42302
 Alpha  occ. eigenvalues --   -0.42224  -0.40874  -0.40865  -0.39129  -0.38489
 Alpha  occ. eigenvalues --   -0.38121  -0.37278  -0.35273  -0.35085  -0.34663
 Alpha  occ. eigenvalues --   -0.32863  -0.32207  -0.32186  -0.31697  -0.26268
 Alpha  occ. eigenvalues --   -0.21860
 Alpha virt. eigenvalues --   -0.08685  -0.01862  -0.00774   0.01346   0.02392
 Alpha virt. eigenvalues --    0.02719   0.02877   0.03307   0.04545   0.04907
 Alpha virt. eigenvalues --    0.06169   0.06849   0.07426   0.07679   0.08124

 Mulliken charges:
               1
     1  Mg   0.426714
     2  C   -0.060796
     3  C   -0.077878
     4  C   -0.039514
     5  C   -0.068846
     6  N   -0.303376
     7  C    0.163151
     8  C    0.014874
     9  C    0.003197
    10  C    0.097043
    11  C   -0.057050
    12  C   -0.023396
    13  C   -0.005058
    14  C    0.481816
    15  O   -0.502024
    16  O   -0.268886
    17  N   -0.323808
    18  C    0.098433
    19  C   -0.017917
    20  C   -0.059548
    21  C    0.120890
    22  C   -0.037681
    23  C    0.326204
    24  O   -0.526143
    25  C   -0.030571
    26  N   -0.239212
    27  C    0.106859
    28  C    0.003697
    29  C    0.002655
    30  C    0.144645
    31  C   -0.051068
    32  C   -0.014961
    33  C   -0.048839
    34  N   -0.337557
    35  C    0.111954
    36  C    0.050757
    37  C   -0.055680
    38  C    0.140325
    39  C   -0.037447
    40  C    0.338953
    41  O   -0.538161
    42  C    0.064276
    43  C    0.492316
    44  O   -0.537457
    45  O   -0.259981
    46  C    0.075966
    47  C    0.105910
    48  C   -0.106701
    49  C    0.007588
    50  C   -0.056817
    51  C   -0.012703
    52  C   -0.025446
    53  C   -0.038444
    54  C   -0.011555
    55  C   -0.052490
    56  C   -0.049703
    57  C   -0.034931
    58  C   -0.026725
    59  C   -0.020350
    60  C   -0.067497
    61  C   -0.036080
    62  C   -0.041790
    63  C   -0.030306
    64  C   -0.002769
    65  C   -0.063208
    66  C   -0.056016
    67  H    0.022136
    68  H    0.042108
    69  H    0.035038
    70  H    0.049484
    71  H    0.025786
    72  H    0.038846
    73  H    0.019077
    74  H    0.021238
    75  H    0.025879
    76  H    0.026226
    77  H    0.029199
    78  H    0.037119
    79  H    0.022880
    80  H    0.020105
    81  H    0.034051
    82  H    0.046676
    83  H    0.029148
    84  H    0.036238
    85  H    0.030205
    86  H    0.033841
    87  H    0.025000
    88  H    0.024988
    89  H    0.013037
    90  H    0.009827
    91  H    0.018915
    92  H    0.022928
    93  H    0.025300
    94  H    0.018161
    95  H    0.035629
    96  H    0.016213
    97  H    0.043855
    98  H    0.053392
    99  H    0.055923
   100  H    0.034359
   101  H    0.041622
   102  H    0.034795
   103  H    0.058171
   104  H    0.023001
   105  H    0.035011
   106  H    0.018662
   107  H    0.020506
   108  H    0.027172
   109  H    0.015625
   110  H    0.022530
   111  H    0.023838
   112  H    0.012844
   113  H    0.019650
   114  H    0.019327
   115  H    0.027465
   116  H    0.020801
   117  H    0.016581
   118  H    0.022570
   119  H    0.023358
   120  H    0.019508
   121  H    0.017600
   122  H    0.011185
   123  H    0.012677
   124  H    0.017973
   125  H    0.018837
   126  H    0.016308
   127  H    0.017327
   128  H    0.032786
   129  H    0.019058
   130  H    0.030306
   131  H    0.018375
   132  H    0.012329
   133  H    0.015128
   134  H    0.018085
   135  H    0.007044
   136  H    0.023014
   137  H    0.018371
   138  H    0.014823
   139  H    0.015144
   140  H    0.015945
 Sum of Mulliken charges =  -0.00000

 Dipole moment (field-independent basis, Debye):
    X=              4.7838    Y=              1.9474    Z=             -3.6453  Tot=              6.3218
 N-N= 4.351154331493D+03 E-N= 0.000000000000D+00  KE=-9.377039459298D+03
 Leave Link  601 at Thu Apr 28 16:28:08 2022, MaxMem=  6710886400 cpu:               1.4 elap:               0.1
 (Enter /sw/apps/gaussian-16.0/g16/l9999.exe)
 1\1\GINC-BP1-COMPUTE150\SP\RZINDO CIS\STO-3G\C55H74Mg1N4O6\OF15641\28-
 Apr-2022\0\\#p ZINDO=(nstates=5)\\step_1601_chromophore_9 ZINDO\\0,1\M
 g,0,35.836,0.839,29.889\C,0,33.794,2.089,32.507\C,0,38.454,0.799,32.14
 6\C,0,37.883,-0.24,27.384\C,0,33.301,1.455,27.637\N,0,35.99,1.335,32.0
 92\C,0,35.052,1.742,32.992\C,0,35.64,2.014,34.352\C,0,37.153,1.762,34.
 195\C,0,37.238,1.178,32.737\C,0,38.087,3.043,34.425\C,0,34.873,1.188,3
 5.472\C,0,34.35,1.95,36.785\C,0,35.083,3.083,37.394\O,0,35.034,4.198,3

 Normal termination of Gaussian 16 at Thu Apr 28 16:28:08 2022.
