 Gaussian 16, Revision A.03,
 Gaussian 16:  ES64L-G16RevA.03 25-Dec-2016

 ------------------------------
 #p blyp/Def2SVP td=(nstates=5)
 ------------------------------

 --------------------------------------------------
 step_951_chromophore_12 TDDFT with blyp functional
 --------------------------------------------------
 Symbolic Z-matrix:
 Charge =  0 Multiplicity = 1

                         Standard orientation:
 ---------------------------------------------------------------------
 Center     Atomic      Atomic             Coordinates (Angstroms)
 Number     Number       Type             X           Y           Z
 ---------------------------------------------------------------------
      1         12           0       -4.288300    0.437554   -0.448632
      2          6           0       -3.105896   -2.772817    0.593208
      3          6           0       -0.962884    1.235639   -1.041264
      4          6           0       -5.143654    3.598444   -0.950488
      5          6           0       -7.424924   -0.399377    0.780631
      6          7           0       -2.250270   -0.607768   -0.104392
      7          6           0       -2.048448   -1.944933    0.148774
      8          6           0       -0.532124   -2.313144    0.127132
      9          6           0        0.146823   -0.873299   -0.198263
     10          6           0       -1.113719   -0.065422   -0.502932
     11          6           0        0.897809   -0.312439    1.085954
     12          6           0       -0.198387   -3.382083   -0.949592
     13          6           0        1.102043   -4.155677   -0.704064
     14          6           0        2.151301   -4.353467   -1.900970
     15          8           0        1.857897   -4.852369   -2.958334
     16          8           0        3.441213   -3.997009   -1.589601
     17          7           0       -3.234434    2.126179   -1.071390
     18          6           0       -1.940632    2.247834   -1.371452
     19          6           0       -1.606758    3.587119   -1.872627
     20          6           0       -2.857532    4.207613   -1.847142
     21          6           0       -3.841137    3.259285   -1.321575
     22          6           0       -0.134401    3.899512   -2.402900
     23          6           0       -3.107848    5.623743   -2.195795
     24          8           0       -4.224888    6.142983   -2.199170
     25          6           0       -2.007414    6.502598   -2.738637
     26          7           0       -5.993111    1.440914   -0.150930
     27          6           0       -6.116572    2.807418   -0.429705
     28          6           0       -7.565055    3.286378   -0.127361
     29          6           0       -8.321453    1.999249    0.181060
     30          6           0       -7.205467    0.916179    0.333304
     31          6           0       -7.504630    4.365041    0.931605
     32          6           0       -9.389535    1.588503   -0.857877
     33          6           0       -9.037692    1.192037   -2.298335
     34          7           0       -5.144540   -1.243003    0.465896
     35          6           0       -6.467687   -1.501147    0.783616
     36          6           0       -6.690641   -2.870897    0.996799
     37          6           0       -5.390629   -3.486172    0.946068
     38          6           0       -4.456568   -2.394484    0.615773
     39          6           0       -8.122506   -3.449590    1.238499
     40          6           0       -4.670776   -4.740737    1.065908
     41          8           0       -5.057373   -5.906577    1.354897
     42          6           0       -3.199230   -4.266362    1.004770
     43          6           0       -2.566830   -4.477267    2.327326
     44          8           0       -2.429434   -3.606169    3.224343
     45          8           0       -1.959475   -5.691930    2.260402
     46          6           0       -1.119608   -6.083512    3.343721
     47          6           0        4.506658   -4.262442   -2.585720
     48          6           0        5.747968   -4.136462   -1.763130
     49          6           0        6.987387   -3.751540   -2.225546
     50          6           0        7.380515   -3.674257   -3.704924
     51          6           0        8.032972   -3.487929   -1.186637
     52          6           0        8.946492   -2.263550   -1.317919
     53          6           0        9.468999   -1.637487   -0.081222
     54          6           0       10.268383   -0.306190   -0.237651
     55          6           0       11.812764   -0.526224   -0.490588
     56          6           0        9.963045    0.775627    0.849155
     57          6           0        9.469409    2.151014    0.421227
     58          6           0        8.812543    2.925340    1.626844
     59          6           0        8.000067    4.135226    1.209334
     60          6           0        8.939337    5.295986    0.831387
     61          6           0        7.075198    4.521298    2.353257
     62          6           0        5.757684    3.679673    2.381181
     63          6           0        4.491555    4.541575    2.432769
     64          6           0        3.246764    3.837546    3.068363
     65          6           0        2.512094    3.040446    1.936188
     66          6           0        2.352154    4.829811    3.659350
     67          1           0        0.069912    1.462050   -1.315215
     68          1           0       -5.509406    4.626133   -0.915639
     69          1           0       -8.475317   -0.517705    1.055757
     70          1           0       -0.271921   -2.734004    1.098962
     71          1           0        0.765756   -0.946878   -1.092746
     72          1           0        0.411575    0.573350    1.491841
     73          1           0        1.891773   -0.147878    0.669607
     74          1           0        0.894096   -1.033636    1.903921
     75          1           0       -0.130966   -2.914955   -1.932033
     76          1           0       -1.015345   -4.093715   -1.062640
     77          1           0        0.795420   -5.135513   -0.339750
     78          1           0        1.691287   -3.693818    0.089226
     79          1           0        0.431974    2.980598   -2.555508
     80          1           0        0.310621    4.600572   -1.696863
     81          1           0       -0.444093    4.425082   -3.305105
     82          1           0       -2.300369    7.551299   -2.792355
     83          1           0       -1.800353    6.099349   -3.730193
     84          1           0       -1.054260    6.433519   -2.215049
     85          1           0       -8.072585    3.676571   -1.009554
     86          1           0       -8.809534    2.075281    1.152539
     87          1           0       -7.996130    5.242694    0.512324
     88          1           0       -6.488359    4.652749    1.200771
     89          1           0       -8.107638    3.979823    1.754097
     90          1           0       -9.972894    2.507058   -0.931809
     91          1           0      -10.117793    0.880993   -0.462521
     92          1           0       -9.458282    1.894266   -3.017909
     93          1           0       -9.424664    0.221982   -2.611654
     94          1           0       -7.955321    1.217867   -2.418433
     95          1           0       -8.889289   -2.943433    0.653470
     96          1           0       -8.338139   -3.334185    2.300902
     97          1           0       -8.107616   -4.531575    1.111147
     98          1           0       -2.757296   -4.921614    0.255336
     99          1           0       -0.270799   -5.403302    3.265856
    100          1           0       -0.901105   -7.133472    3.147951
    101          1           0       -1.699446   -5.870631    4.242249
    102          1           0        4.675018   -3.529146   -3.374093
    103          1           0        4.569538   -5.216449   -3.108710
    104          1           0        5.537061   -4.070049   -0.695300
    105          1           0        7.390647   -2.641369   -4.052594
    106          1           0        6.692074   -4.221366   -4.349643
    107          1           0        8.340255   -4.162570   -3.875035
    108          1           0        8.584959   -4.428249   -1.183105
    109          1           0        7.576510   -3.523942   -0.197605
    110          1           0        8.511694   -1.499251   -1.962296
    111          1           0        9.789821   -2.745556   -1.813276
    112          1           0       10.180907   -2.361948    0.312553
    113          1           0        8.690157   -1.463622    0.661584
    114          1           0        9.808148    0.099537   -1.139102
    115          1           0       12.009288   -1.594612   -0.398679
    116          1           0       12.574644    0.088077   -0.010107
    117          1           0       12.063780   -0.400506   -1.544169
    118          1           0       10.773892    1.065249    1.516856
    119          1           0        9.251867    0.389532    1.579921
    120          1           0        8.695021    2.028260   -0.335871
    121          1           0       10.284838    2.822852    0.150525
    122          1           0        9.572869    3.205977    2.355091
    123          1           0        8.124646    2.186577    2.037697
    124          1           0        7.494262    3.777663    0.312727
    125          1           0        8.665792    6.133129    1.473458
    126          1           0        9.029322    5.574235   -0.218541
    127          1           0        9.960978    5.044129    1.115337
    128          1           0        6.795840    5.545131    2.600175
    129          1           0        7.577445    4.254295    3.283413
    130          1           0        5.744824    3.090422    3.298584
    131          1           0        5.792837    3.086126    1.468740
    132          1           0        4.341410    4.855212    1.400270
    133          1           0        4.759439    5.319176    3.148213
    134          1           0        3.577618    3.030526    3.722366
    135          1           0        2.777172    1.987621    1.837637
    136          1           0        2.819423    3.363080    0.941807
    137          1           0        1.425865    2.950908    1.921591
    138          1           0        1.458502    5.054976    3.076759
    139          1           0        2.774916    5.815818    3.848904
    140          1           0        1.889841    4.401509    4.548615
 ---------------------------------------------------------------------

 SCF Done:  E(RB-LYP) =  -3007.35710768     A.U. after   22 cycles

 Excitation energies and oscillator strengths:

 Excited State   1:      Singlet-A      1.7548 eV  706.52 nm  f=0.0360  <S**2>=0.000
     244 -> 247        0.61000
     245 -> 247       -0.24055
     246 -> 247        0.25282
 This state for optimization and/or second-order correction.
 Total Energy, E(TD-HF/TD-DFT) =  -3007.29261827
 Copying the excited state density for this state as the 1-particle RhoCI density.

 Excited State   2:      Singlet-A      1.8053 eV  686.79 nm  f=0.2877  <S**2>=0.000
     244 -> 247       -0.26458
     245 -> 248        0.16006
     246 -> 247        0.64268
     246 <- 247       -0.14481

 Excited State   3:      Singlet-A      1.8591 eV  666.91 nm  f=0.0062  <S**2>=0.000
     243 -> 247        0.69035
     245 -> 247       -0.10665

 Excited State   4:      Singlet-A      2.0292 eV  610.99 nm  f=0.1018  <S**2>=0.000
     243 -> 247        0.13250
     244 -> 247        0.21881
     245 -> 247        0.60593
     246 -> 248       -0.19887
     246 -> 249        0.10040

 Excited State   5:      Singlet-A      2.0944 eV  591.99 nm  f=0.0000  <S**2>=0.000
     242 -> 247        0.70710

 The electronic state is 1-A.
 Alpha  occ. eigenvalues --  -46.26975 -18.83067 -18.82010 -18.76984 -18.76761
 Alpha  occ. eigenvalues --  -18.75457 -18.75031 -14.03607 -14.02791 -14.01584
 Alpha  occ. eigenvalues --  -14.00708 -10.04633 -10.03960  -9.99484  -9.99394
 Alpha  occ. eigenvalues --   -9.98352  -9.97689  -9.97007  -9.96519  -9.96485
 Alpha  occ. eigenvalues --   -9.96068  -9.95879  -9.95866  -9.95387  -9.94785
 Alpha  occ. eigenvalues --   -9.94733  -9.94601  -9.94579  -9.94486  -9.94309
 Alpha  occ. eigenvalues --   -9.93947  -9.93763  -9.93750  -9.93532  -9.93503
 Alpha  occ. eigenvalues --   -9.93292  -9.93213  -9.93150  -9.93104  -9.93033
 Alpha  occ. eigenvalues --   -9.92885  -9.92862  -9.92775  -9.92675  -9.92402
 Alpha  occ. eigenvalues --   -9.92261  -9.91964  -9.91919  -9.91911  -9.91908
 Alpha  occ. eigenvalues --   -9.91831  -9.91807  -9.91585  -9.91540  -9.91498
 Alpha  occ. eigenvalues --   -9.91462  -9.91409  -9.91396  -9.91167  -9.91139
 Alpha  occ. eigenvalues --   -9.91046  -9.90926  -9.90902  -9.90776  -9.90723
 Alpha  occ. eigenvalues --   -9.90504  -2.91736  -1.72144  -1.71604  -1.71468
 Alpha  occ. eigenvalues --   -0.98256  -0.98098  -0.90959  -0.90460  -0.89124
 Alpha  occ. eigenvalues --   -0.88810  -0.88206  -0.86693  -0.85232  -0.83843
 Alpha  occ. eigenvalues --   -0.75175  -0.74047  -0.73684  -0.72641  -0.72487
 Alpha  occ. eigenvalues --   -0.72337  -0.71992  -0.71657  -0.70894  -0.70572
 Alpha  occ. eigenvalues --   -0.69296  -0.69210  -0.68429  -0.67678  -0.67523
 Alpha  occ. eigenvalues --   -0.66996  -0.65961  -0.65477  -0.65369  -0.64504
 Alpha  occ. eigenvalues --   -0.64348  -0.63051  -0.62167  -0.61910  -0.61381
 Alpha  occ. eigenvalues --   -0.60620  -0.60424  -0.60068  -0.59811  -0.59193
 Alpha  occ. eigenvalues --   -0.58259  -0.57713  -0.56597  -0.55775  -0.54893
 Alpha  occ. eigenvalues --   -0.54005  -0.53752  -0.53298  -0.52135  -0.51834
 Alpha  occ. eigenvalues --   -0.51086  -0.50952  -0.50662  -0.50204  -0.50159
 Alpha  occ. eigenvalues --   -0.50135  -0.49699  -0.49325  -0.48392  -0.47210
 Alpha  occ. eigenvalues --   -0.46366  -0.46143  -0.45797  -0.45416  -0.44804
 Alpha  occ. eigenvalues --   -0.43797  -0.43444  -0.42843  -0.42814  -0.42708
 Alpha  occ. eigenvalues --   -0.42344  -0.42265  -0.42044  -0.41868  -0.41637
 Alpha  occ. eigenvalues --   -0.41285  -0.40745  -0.40667  -0.40194  -0.40101
 Alpha  occ. eigenvalues --   -0.40063  -0.39802  -0.39665  -0.39498  -0.39230
 Alpha  occ. eigenvalues --   -0.39027  -0.38860  -0.38548  -0.38379  -0.38062
 Alpha  occ. eigenvalues --   -0.37946  -0.37789  -0.37678  -0.37616  -0.37319
 Alpha  occ. eigenvalues --   -0.37228  -0.37174  -0.36923  -0.36788  -0.36645
 Alpha  occ. eigenvalues --   -0.36551  -0.36446  -0.36415  -0.36274  -0.36039
 Alpha  occ. eigenvalues --   -0.35726  -0.35569  -0.35372  -0.34865  -0.34654
 Alpha  occ. eigenvalues --   -0.34435  -0.34307  -0.34261  -0.34130  -0.33896
 Alpha  occ. eigenvalues --   -0.33812  -0.33707  -0.33521  -0.33352  -0.33203
 Alpha  occ. eigenvalues --   -0.32930  -0.32549  -0.32321  -0.32257  -0.32223
 Alpha  occ. eigenvalues --   -0.32073  -0.31829  -0.31774  -0.31595  -0.31332
 Alpha  occ. eigenvalues --   -0.31249  -0.31082  -0.31033  -0.30839  -0.30553
 Alpha  occ. eigenvalues --   -0.30439  -0.30338  -0.30152  -0.29986  -0.29727
 Alpha  occ. eigenvalues --   -0.29595  -0.29505  -0.29381  -0.29103  -0.28749
 Alpha  occ. eigenvalues --   -0.28652  -0.28515  -0.28454  -0.27948  -0.27925
 Alpha  occ. eigenvalues --   -0.27696  -0.27384  -0.27304  -0.26657  -0.26523
 Alpha  occ. eigenvalues --   -0.26337  -0.26137  -0.26066  -0.25999  -0.25681
 Alpha  occ. eigenvalues --   -0.25647  -0.25564  -0.24828  -0.24553  -0.23680
 Alpha  occ. eigenvalues --   -0.23335  -0.22448  -0.21883  -0.21761  -0.21640
 Alpha  occ. eigenvalues --   -0.20190  -0.19484  -0.18491  -0.18237  -0.17331
 Alpha  occ. eigenvalues --   -0.15981
 Alpha virt. eigenvalues --   -0.11787  -0.06729  -0.06351  -0.04605  -0.03223
 Alpha virt. eigenvalues --   -0.02991  -0.02585  -0.02202  -0.01462   0.00532
 Alpha virt. eigenvalues --    0.01286   0.01364   0.02087   0.02410   0.02610

 Mulliken charges:
               1
     1  Mg   0.710788
     2  C    0.073606
     3  C   -0.049148
     4  C   -0.050253
     5  C   -0.051631
     6  N   -0.154898
     7  C   -0.081521
     8  C   -0.008643
     9  C   -0.010086
    10  C   -0.017002
    11  C    0.122416
    12  C    0.115568
    13  C    0.108170
    14  C    0.071884
    15  O   -0.175874
    16  O   -0.268433
    17  N   -0.213714
    18  C    0.081510
    19  C   -0.165242
    20  C    0.048953
    21  C    0.150567
    22  C    0.173291
    23  C   -0.098776
    24  O   -0.178748
    25  C    0.128320
    26  N   -0.321938
    27  C    0.006313
    28  C    0.008263
    29  C    0.059282
    30  C    0.017171
    31  C    0.149146
    32  C    0.067154
    33  C    0.075154
    34  N   -0.255618
    35  C    0.128828
    36  C   -0.165213
    37  C    0.049032
    38  C    0.060868
    39  C    0.176994
    40  C   -0.022177
    41  O   -0.169164
    42  C    0.002478
    43  C    0.147484
    44  O   -0.216173
    45  O   -0.253337
    46  C    0.229999
    47  C    0.339989
    48  C   -0.158658
    49  C   -0.153887
    50  C    0.139808
    51  C    0.135246
    52  C    0.086435
    53  C    0.091680
    54  C   -0.005451
    55  C    0.113045
    56  C    0.099846
    57  C    0.074056
    58  C    0.012401
    59  C   -0.038815
    60  C    0.128941
    61  C    0.131672
    62  C    0.050040
    63  C    0.074381
    64  C   -0.045344
    65  C    0.058706
    66  C    0.144107
    67  H   -0.076426
    68  H   -0.046094
    69  H   -0.066855
    70  H   -0.005641
    71  H   -0.018732
    72  H    0.013256
    73  H    0.016531
    74  H   -0.000001
    75  H   -0.023469
    76  H   -0.016871
    77  H    0.012919
    78  H   -0.015230
    79  H    0.015274
    80  H    0.023337
    81  H    0.005203
    82  H   -0.001481
    83  H    0.013291
    84  H   -0.016084
    85  H   -0.022010
    86  H   -0.041692
    87  H   -0.007451
    88  H    0.012306
    89  H   -0.015764
    90  H   -0.030301
    91  H   -0.024465
    92  H   -0.012573
    93  H   -0.004732
    94  H    0.001770
    95  H    0.002129
    96  H   -0.001101
    97  H    0.003768
    98  H    0.003074
    99  H    0.003648
   100  H    0.025567
   101  H    0.019219
   102  H   -0.000086
   103  H    0.013312
   104  H   -0.024949
   105  H    0.010317
   106  H   -0.016255
   107  H   -0.002586
   108  H   -0.022879
   109  H   -0.048250
   110  H   -0.026601
   111  H   -0.033645
   112  H   -0.036540
   113  H   -0.032635
   114  H   -0.040025
   115  H   -0.028208
   116  H   -0.004214
   117  H   -0.030914
   118  H   -0.048718
   119  H   -0.049832
   120  H   -0.033884
   121  H   -0.027816
   122  H   -0.025937
   123  H   -0.034725
   124  H   -0.044716
   125  H   -0.025233
   126  H   -0.010947
   127  H   -0.032370
   128  H   -0.040926
   129  H   -0.049202
   130  H   -0.035378
   131  H   -0.029707
   132  H   -0.018541
   133  H   -0.030649
   134  H   -0.028277
   135  H   -0.032133
   136  H   -0.034810
   137  H   -0.009349
   138  H   -0.028180
   139  H   -0.020469
   140  H   -0.022208
 Sum of Mulliken charges =  -0.00000

 Dipole moment (field-independent basis, Debye):
    X=              4.2508    Y=              2.4515    Z=             -1.3131  Tot=              5.0797
 Quadrupole moment (field-independent basis, Debye-Ang):
   XX=           -370.7191   YY=           -439.8159   ZZ=           -409.3562
   XY=            -19.9686   XZ=             -1.2913   YZ=              1.3879

 Normal termination of Gaussian 16 at Sat Apr 30 23:15:38 2022.
