 Gaussian 16, Revision A.03,
 Gaussian 16:  ES64L-G16RevA.03 25-Dec-2016

 -----------------------------------
 #p cam-b3lyp/Def2SVP td=(nstates=5)
 -----------------------------------

 -------------------------------------------------------
 step_951_chromophore_12 TDDFT with cam-b3lyp functional
 -------------------------------------------------------
 Symbolic Z-matrix:
 Charge =  0 Multiplicity = 1

                         Standard orientation:
 ---------------------------------------------------------------------
 Center     Atomic      Atomic             Coordinates (Angstroms)
 Number     Number       Type             X           Y           Z
 ---------------------------------------------------------------------
      1         12           0       -4.288300    0.437554   -0.448632
      2          6           0       -3.105896   -2.772817    0.593208
      3          6           0       -0.962884    1.235639   -1.041264
      4          6           0       -5.143654    3.598444   -0.950488
      5          6           0       -7.424924   -0.399377    0.780631
      6          7           0       -2.250270   -0.607768   -0.104392
      7          6           0       -2.048448   -1.944933    0.148774
      8          6           0       -0.532124   -2.313144    0.127132
      9          6           0        0.146823   -0.873299   -0.198263
     10          6           0       -1.113719   -0.065422   -0.502932
     11          6           0        0.897809   -0.312439    1.085954
     12          6           0       -0.198387   -3.382083   -0.949592
     13          6           0        1.102043   -4.155677   -0.704064
     14          6           0        2.151301   -4.353467   -1.900970
     15          8           0        1.857897   -4.852369   -2.958334
     16          8           0        3.441213   -3.997009   -1.589601
     17          7           0       -3.234434    2.126179   -1.071390
     18          6           0       -1.940632    2.247834   -1.371452
     19          6           0       -1.606758    3.587119   -1.872627
     20          6           0       -2.857532    4.207613   -1.847142
     21          6           0       -3.841137    3.259285   -1.321575
     22          6           0       -0.134401    3.899512   -2.402900
     23          6           0       -3.107848    5.623743   -2.195795
     24          8           0       -4.224888    6.142983   -2.199170
     25          6           0       -2.007414    6.502598   -2.738637
     26          7           0       -5.993111    1.440914   -0.150930
     27          6           0       -6.116572    2.807418   -0.429705
     28          6           0       -7.565055    3.286378   -0.127361
     29          6           0       -8.321453    1.999249    0.181060
     30          6           0       -7.205467    0.916179    0.333304
     31          6           0       -7.504630    4.365041    0.931605
     32          6           0       -9.389535    1.588503   -0.857877
     33          6           0       -9.037692    1.192037   -2.298335
     34          7           0       -5.144540   -1.243003    0.465896
     35          6           0       -6.467687   -1.501147    0.783616
     36          6           0       -6.690641   -2.870897    0.996799
     37          6           0       -5.390629   -3.486172    0.946068
     38          6           0       -4.456568   -2.394484    0.615773
     39          6           0       -8.122506   -3.449590    1.238499
     40          6           0       -4.670776   -4.740737    1.065908
     41          8           0       -5.057373   -5.906577    1.354897
     42          6           0       -3.199230   -4.266362    1.004770
     43          6           0       -2.566830   -4.477267    2.327326
     44          8           0       -2.429434   -3.606169    3.224343
     45          8           0       -1.959475   -5.691930    2.260402
     46          6           0       -1.119608   -6.083512    3.343721
     47          6           0        4.506658   -4.262442   -2.585720
     48          6           0        5.747968   -4.136462   -1.763130
     49          6           0        6.987387   -3.751540   -2.225546
     50          6           0        7.380515   -3.674257   -3.704924
     51          6           0        8.032972   -3.487929   -1.186637
     52          6           0        8.946492   -2.263550   -1.317919
     53          6           0        9.468999   -1.637487   -0.081222
     54          6           0       10.268383   -0.306190   -0.237651
     55          6           0       11.812764   -0.526224   -0.490588
     56          6           0        9.963045    0.775627    0.849155
     57          6           0        9.469409    2.151014    0.421227
     58          6           0        8.812543    2.925340    1.626844
     59          6           0        8.000067    4.135226    1.209334
     60          6           0        8.939337    5.295986    0.831387
     61          6           0        7.075198    4.521298    2.353257
     62          6           0        5.757684    3.679673    2.381181
     63          6           0        4.491555    4.541575    2.432769
     64          6           0        3.246764    3.837546    3.068363
     65          6           0        2.512094    3.040446    1.936188
     66          6           0        2.352154    4.829811    3.659350
     67          1           0        0.069912    1.462050   -1.315215
     68          1           0       -5.509406    4.626133   -0.915639
     69          1           0       -8.475317   -0.517705    1.055757
     70          1           0       -0.271921   -2.734004    1.098962
     71          1           0        0.765756   -0.946878   -1.092746
     72          1           0        0.411575    0.573350    1.491841
     73          1           0        1.891773   -0.147878    0.669607
     74          1           0        0.894096   -1.033636    1.903921
     75          1           0       -0.130966   -2.914955   -1.932033
     76          1           0       -1.015345   -4.093715   -1.062640
     77          1           0        0.795420   -5.135513   -0.339750
     78          1           0        1.691287   -3.693818    0.089226
     79          1           0        0.431974    2.980598   -2.555508
     80          1           0        0.310621    4.600572   -1.696863
     81          1           0       -0.444093    4.425082   -3.305105
     82          1           0       -2.300369    7.551299   -2.792355
     83          1           0       -1.800353    6.099349   -3.730193
     84          1           0       -1.054260    6.433519   -2.215049
     85          1           0       -8.072585    3.676571   -1.009554
     86          1           0       -8.809534    2.075281    1.152539
     87          1           0       -7.996130    5.242694    0.512324
     88          1           0       -6.488359    4.652749    1.200771
     89          1           0       -8.107638    3.979823    1.754097
     90          1           0       -9.972894    2.507058   -0.931809
     91          1           0      -10.117793    0.880993   -0.462521
     92          1           0       -9.458282    1.894266   -3.017909
     93          1           0       -9.424664    0.221982   -2.611654
     94          1           0       -7.955321    1.217867   -2.418433
     95          1           0       -8.889289   -2.943433    0.653470
     96          1           0       -8.338139   -3.334185    2.300902
     97          1           0       -8.107616   -4.531575    1.111147
     98          1           0       -2.757296   -4.921614    0.255336
     99          1           0       -0.270799   -5.403302    3.265856
    100          1           0       -0.901105   -7.133472    3.147951
    101          1           0       -1.699446   -5.870631    4.242249
    102          1           0        4.675018   -3.529146   -3.374093
    103          1           0        4.569538   -5.216449   -3.108710
    104          1           0        5.537061   -4.070049   -0.695300
    105          1           0        7.390647   -2.641369   -4.052594
    106          1           0        6.692074   -4.221366   -4.349643
    107          1           0        8.340255   -4.162570   -3.875035
    108          1           0        8.584959   -4.428249   -1.183105
    109          1           0        7.576510   -3.523942   -0.197605
    110          1           0        8.511694   -1.499251   -1.962296
    111          1           0        9.789821   -2.745556   -1.813276
    112          1           0       10.180907   -2.361948    0.312553
    113          1           0        8.690157   -1.463622    0.661584
    114          1           0        9.808148    0.099537   -1.139102
    115          1           0       12.009288   -1.594612   -0.398679
    116          1           0       12.574644    0.088077   -0.010107
    117          1           0       12.063780   -0.400506   -1.544169
    118          1           0       10.773892    1.065249    1.516856
    119          1           0        9.251867    0.389532    1.579921
    120          1           0        8.695021    2.028260   -0.335871
    121          1           0       10.284838    2.822852    0.150525
    122          1           0        9.572869    3.205977    2.355091
    123          1           0        8.124646    2.186577    2.037697
    124          1           0        7.494262    3.777663    0.312727
    125          1           0        8.665792    6.133129    1.473458
    126          1           0        9.029322    5.574235   -0.218541
    127          1           0        9.960978    5.044129    1.115337
    128          1           0        6.795840    5.545131    2.600175
    129          1           0        7.577445    4.254295    3.283413
    130          1           0        5.744824    3.090422    3.298584
    131          1           0        5.792837    3.086126    1.468740
    132          1           0        4.341410    4.855212    1.400270
    133          1           0        4.759439    5.319176    3.148213
    134          1           0        3.577618    3.030526    3.722366
    135          1           0        2.777172    1.987621    1.837637
    136          1           0        2.819423    3.363080    0.941807
    137          1           0        1.425865    2.950908    1.921591
    138          1           0        1.458502    5.054976    3.076759
    139          1           0        2.774916    5.815818    3.848904
    140          1           0        1.889841    4.401509    4.548615
 ---------------------------------------------------------------------

 SCF Done:  E(RCAM-B3LYP) =  -3007.14779938     A.U. after   17 cycles

 Excitation energies and oscillator strengths:

 Excited State   1:      Singlet-A      1.6958 eV  731.13 nm  f=0.4023  <S**2>=0.000
     245 -> 248        0.16585
     246 -> 247        0.68903
     245 <- 248        0.10303
 This state for optimization and/or second-order correction.
 Total Energy, E(TD-HF/TD-DFT) =  -3007.08548060
 Copying the excited state density for this state as the 1-particle RhoCI density.

 Excited State   2:      Singlet-A      2.2246 eV  557.34 nm  f=0.1504  <S**2>=0.000
     245 -> 247        0.65478
     246 -> 248       -0.25098

 Excited State   3:      Singlet-A      3.3096 eV  374.62 nm  f=0.0056  <S**2>=0.000
     242 -> 247        0.10315
     243 -> 247        0.65724

 Excited State   4:      Singlet-A      3.3967 eV  365.02 nm  f=0.0002  <S**2>=0.000
     242 -> 247        0.55631
     242 -> 248       -0.15855
     242 -> 249       -0.26634
     242 -> 250        0.16614
     243 -> 247       -0.16871

 Excited State   5:      Singlet-A      3.4999 eV  354.25 nm  f=0.0134  <S**2>=0.000
     240 -> 247        0.20030
     240 -> 249        0.14419
     240 -> 250        0.10787
     241 -> 247        0.51126
     241 -> 249        0.26786
     241 -> 250        0.20359
     246 -> 248       -0.13918

 The electronic state is 1-A.
 Alpha  occ. eigenvalues --  -46.88499 -19.25975 -19.24926 -19.19998 -19.19805
 Alpha  occ. eigenvalues --  -19.18492 -19.18421 -14.42697 -14.41419 -14.40256
 Alpha  occ. eigenvalues --  -14.38971 -10.39952 -10.39476 -10.34815 -10.34763
 Alpha  occ. eigenvalues --  -10.32428 -10.31607 -10.31380 -10.31196 -10.30725
 Alpha  occ. eigenvalues --  -10.30676 -10.30655 -10.30611 -10.29647 -10.29210
 Alpha  occ. eigenvalues --  -10.28968 -10.28935 -10.28872 -10.28646 -10.28388
 Alpha  occ. eigenvalues --  -10.28348 -10.28088 -10.27673 -10.27559 -10.27533
 Alpha  occ. eigenvalues --  -10.27435 -10.27427 -10.27377 -10.27158 -10.26841
 Alpha  occ. eigenvalues --  -10.26805 -10.26721 -10.26684 -10.26353 -10.26210
 Alpha  occ. eigenvalues --  -10.26002 -10.25887 -10.25650 -10.25649 -10.25579
 Alpha  occ. eigenvalues --  -10.25542 -10.25501 -10.25487 -10.25382 -10.25299
 Alpha  occ. eigenvalues --  -10.25153 -10.25136 -10.25038 -10.24900 -10.24863
 Alpha  occ. eigenvalues --  -10.24787 -10.24652 -10.24638 -10.24502 -10.24367
 Alpha  occ. eigenvalues --  -10.24088  -3.17169  -1.92051  -1.91615  -1.91490
 Alpha  occ. eigenvalues --   -1.16743  -1.16582  -1.09597  -1.08355  -1.07177
 Alpha  occ. eigenvalues --   -1.06809  -1.06242  -1.04508  -1.02556  -1.01247
 Alpha  occ. eigenvalues --   -0.92236  -0.90978  -0.90590  -0.89446  -0.89220
 Alpha  occ. eigenvalues --   -0.89105  -0.88698  -0.88329  -0.87906  -0.87177
 Alpha  occ. eigenvalues --   -0.85650  -0.85494  -0.84745  -0.83756  -0.83570
 Alpha  occ. eigenvalues --   -0.83095  -0.82008  -0.81691  -0.81152  -0.80559
 Alpha  occ. eigenvalues --   -0.80216  -0.79030  -0.77740  -0.77334  -0.76835
 Alpha  occ. eigenvalues --   -0.76076  -0.75771  -0.75377  -0.75171  -0.74482
 Alpha  occ. eigenvalues --   -0.73252  -0.72705  -0.71537  -0.70601  -0.69486
 Alpha  occ. eigenvalues --   -0.68722  -0.68311  -0.67926  -0.66438  -0.66122
 Alpha  occ. eigenvalues --   -0.65106  -0.65025  -0.64725  -0.64271  -0.64162
 Alpha  occ. eigenvalues --   -0.63967  -0.63762  -0.63300  -0.62129  -0.61044
 Alpha  occ. eigenvalues --   -0.59917  -0.59588  -0.59354  -0.58876  -0.58339
 Alpha  occ. eigenvalues --   -0.57106  -0.56858  -0.56090  -0.56031  -0.55732
 Alpha  occ. eigenvalues --   -0.55478  -0.55038  -0.54973  -0.54849  -0.54697
 Alpha  occ. eigenvalues --   -0.54326  -0.54131  -0.53434  -0.53209  -0.52867
 Alpha  occ. eigenvalues --   -0.52781  -0.52561  -0.52374  -0.51981  -0.51654
 Alpha  occ. eigenvalues --   -0.51530  -0.51389  -0.51186  -0.50699  -0.50640
 Alpha  occ. eigenvalues --   -0.50447  -0.50312  -0.50101  -0.49965  -0.49890
 Alpha  occ. eigenvalues --   -0.49519  -0.49402  -0.49281  -0.49171  -0.48912
 Alpha  occ. eigenvalues --   -0.48744  -0.48617  -0.48529  -0.48506  -0.48321
 Alpha  occ. eigenvalues --   -0.48242  -0.47864  -0.47604  -0.46856  -0.46482
 Alpha  occ. eigenvalues --   -0.46369  -0.46087  -0.46026  -0.45948  -0.45886
 Alpha  occ. eigenvalues --   -0.45534  -0.45476  -0.45392  -0.45020  -0.44834
 Alpha  occ. eigenvalues --   -0.44541  -0.44259  -0.44217  -0.43930  -0.43839
 Alpha  occ. eigenvalues --   -0.43746  -0.43593  -0.43485  -0.43416  -0.43077
 Alpha  occ. eigenvalues --   -0.42576  -0.42537  -0.42191  -0.42121  -0.42010
 Alpha  occ. eigenvalues --   -0.41889  -0.41741  -0.41647  -0.41566  -0.41358
 Alpha  occ. eigenvalues --   -0.40997  -0.40803  -0.40629  -0.40306  -0.40176
 Alpha  occ. eigenvalues --   -0.39761  -0.39444  -0.39361  -0.38994  -0.38824
 Alpha  occ. eigenvalues --   -0.38629  -0.38293  -0.38212  -0.37834  -0.37597
 Alpha  occ. eigenvalues --   -0.37328  -0.37127  -0.36836  -0.36743  -0.36577
 Alpha  occ. eigenvalues --   -0.36317  -0.36262  -0.36224  -0.35008  -0.34433
 Alpha  occ. eigenvalues --   -0.34108  -0.33893  -0.32834  -0.32060  -0.31191
 Alpha  occ. eigenvalues --   -0.30737  -0.30420  -0.29128  -0.29083  -0.24116
 Alpha  occ. eigenvalues --   -0.21343
 Alpha virt. eigenvalues --   -0.08996  -0.01376   0.00067   0.02227   0.02314
 Alpha virt. eigenvalues --    0.04438   0.04753   0.05194   0.05619   0.06660
 Alpha virt. eigenvalues --    0.07805   0.08259   0.08570   0.08772   0.09044

 Mulliken charges:
               1
     1  Mg   0.844155
     2  C    0.054437
     3  C   -0.058159
     4  C   -0.072389
     5  C   -0.061024
     6  N   -0.218085
     7  C   -0.046115
     8  C   -0.053102
     9  C   -0.063446
    10  C   -0.000330
    11  C    0.068278
    12  C    0.064512
    13  C    0.044241
    14  C    0.151726
    15  O   -0.215873
    16  O   -0.336496
    17  N   -0.304528
    18  C    0.091169
    19  C   -0.159028
    20  C   -0.028591
    21  C    0.178350
    22  C    0.124081
    23  C   -0.020274
    24  O   -0.217814
    25  C    0.048739
    26  N   -0.400527
    27  C    0.029349
    28  C   -0.043342
    29  C    0.003306
    30  C    0.034580
    31  C    0.086512
    32  C    0.012559
    33  C    0.013610
    34  N   -0.342266
    35  C    0.127944
    36  C   -0.164929
    37  C   -0.025977
    38  C    0.090022
    39  C    0.128852
    40  C    0.073962
    41  O   -0.210221
    42  C   -0.076683
    43  C    0.238793
    44  O   -0.253424
    45  O   -0.315865
    46  C    0.186997
    47  C    0.306742
    48  C   -0.174356
    49  C   -0.173349
    50  C    0.076296
    51  C    0.079165
    52  C    0.026535
    53  C    0.040253
    54  C   -0.066937
    55  C    0.054349
    56  C    0.048579
    57  C    0.024777
    58  C   -0.034069
    59  C   -0.099266
    60  C    0.068333
    61  C    0.070472
    62  C    0.004385
    63  C    0.019109
    64  C   -0.107111
    65  C    0.009564
    66  C    0.075675
    67  H   -0.041825
    68  H   -0.005931
    69  H   -0.032138
    70  H    0.024824
    71  H    0.014638
    72  H    0.036135
    73  H    0.036993
    74  H    0.025565
    75  H    0.007782
    76  H    0.013297
    77  H    0.043347
    78  H    0.017397
    79  H    0.042484
    80  H    0.049420
    81  H    0.030113
    82  H    0.034829
    83  H    0.039470
    84  H    0.012599
    85  H    0.014087
    86  H   -0.004204
    87  H    0.017381
    88  H    0.037489
    89  H    0.009956
    90  H   -0.002365
    91  H    0.004198
    92  H    0.011177
    93  H    0.019848
    94  H    0.021568
    95  H    0.024546
    96  H    0.024392
    97  H    0.029875
    98  H    0.045986
    99  H    0.025055
   100  H    0.049258
   101  H    0.044244
   102  H    0.025814
   103  H    0.041975
   104  H    0.010094
   105  H    0.034255
   106  H    0.008651
   107  H    0.022875
   108  H    0.006587
   109  H   -0.016794
   110  H   -0.000125
   111  H   -0.006070
   112  H   -0.008803
   113  H   -0.003605
   114  H   -0.008336
   115  H   -0.004442
   116  H    0.020283
   117  H   -0.005717
   118  H   -0.019105
   119  H   -0.020209
   120  H   -0.008243
   121  H   -0.001607
   122  H    0.001036
   123  H   -0.007852
   124  H   -0.012547
   125  H    0.000587
   126  H    0.014125
   127  H   -0.007854
   128  H   -0.009995
   129  H   -0.017285
   130  H   -0.007155
   131  H   -0.004821
   132  H    0.007947
   133  H   -0.003088
   134  H    0.004628
   135  H   -0.009920
   136  H   -0.013273
   137  H    0.011994
   138  H   -0.002152
   139  H    0.005428
   140  H    0.004401
 Sum of Mulliken charges =  -0.00000

 Dipole moment (field-independent basis, Debye):
    X=              5.0635    Y=              3.2960    Z=             -1.7016  Tot=              6.2768
 Quadrupole moment (field-independent basis, Debye-Ang):
   XX=           -373.4748   YY=           -436.9475   ZZ=           -408.9598
   XY=            -22.4372   XZ=             -0.5435   YZ=             -0.4241

 Normal termination of Gaussian 16 at Sat Apr 30 22:20:14 2022.
