 Gaussian 16, Revision A.03,
 Gaussian 16:  ES64L-G16RevA.03 25-Dec-2016

 ---------------------------------
 #p PBE1PBE/Def2SVP td=(nstates=5)
 ---------------------------------

 -----------------------------------------------------
 step_951_chromophore_12 TDDFT with PBE1PBE functional
 -----------------------------------------------------
 Symbolic Z-matrix:
 Charge =  0 Multiplicity = 1

                         Standard orientation:
 ---------------------------------------------------------------------
 Center     Atomic      Atomic             Coordinates (Angstroms)
 Number     Number       Type             X           Y           Z
 ---------------------------------------------------------------------
      1         12           0       -4.288300    0.437554   -0.448632
      2          6           0       -3.105896   -2.772817    0.593208
      3          6           0       -0.962884    1.235639   -1.041264
      4          6           0       -5.143654    3.598444   -0.950488
      5          6           0       -7.424924   -0.399377    0.780631
      6          7           0       -2.250270   -0.607768   -0.104392
      7          6           0       -2.048448   -1.944933    0.148774
      8          6           0       -0.532124   -2.313144    0.127132
      9          6           0        0.146823   -0.873299   -0.198263
     10          6           0       -1.113719   -0.065422   -0.502932
     11          6           0        0.897809   -0.312439    1.085954
     12          6           0       -0.198387   -3.382083   -0.949592
     13          6           0        1.102043   -4.155677   -0.704064
     14          6           0        2.151301   -4.353467   -1.900970
     15          8           0        1.857897   -4.852369   -2.958334
     16          8           0        3.441213   -3.997009   -1.589601
     17          7           0       -3.234434    2.126179   -1.071390
     18          6           0       -1.940632    2.247834   -1.371452
     19          6           0       -1.606758    3.587119   -1.872627
     20          6           0       -2.857532    4.207613   -1.847142
     21          6           0       -3.841137    3.259285   -1.321575
     22          6           0       -0.134401    3.899512   -2.402900
     23          6           0       -3.107848    5.623743   -2.195795
     24          8           0       -4.224888    6.142983   -2.199170
     25          6           0       -2.007414    6.502598   -2.738637
     26          7           0       -5.993111    1.440914   -0.150930
     27          6           0       -6.116572    2.807418   -0.429705
     28          6           0       -7.565055    3.286378   -0.127361
     29          6           0       -8.321453    1.999249    0.181060
     30          6           0       -7.205467    0.916179    0.333304
     31          6           0       -7.504630    4.365041    0.931605
     32          6           0       -9.389535    1.588503   -0.857877
     33          6           0       -9.037692    1.192037   -2.298335
     34          7           0       -5.144540   -1.243003    0.465896
     35          6           0       -6.467687   -1.501147    0.783616
     36          6           0       -6.690641   -2.870897    0.996799
     37          6           0       -5.390629   -3.486172    0.946068
     38          6           0       -4.456568   -2.394484    0.615773
     39          6           0       -8.122506   -3.449590    1.238499
     40          6           0       -4.670776   -4.740737    1.065908
     41          8           0       -5.057373   -5.906577    1.354897
     42          6           0       -3.199230   -4.266362    1.004770
     43          6           0       -2.566830   -4.477267    2.327326
     44          8           0       -2.429434   -3.606169    3.224343
     45          8           0       -1.959475   -5.691930    2.260402
     46          6           0       -1.119608   -6.083512    3.343721
     47          6           0        4.506658   -4.262442   -2.585720
     48          6           0        5.747968   -4.136462   -1.763130
     49          6           0        6.987387   -3.751540   -2.225546
     50          6           0        7.380515   -3.674257   -3.704924
     51          6           0        8.032972   -3.487929   -1.186637
     52          6           0        8.946492   -2.263550   -1.317919
     53          6           0        9.468999   -1.637487   -0.081222
     54          6           0       10.268383   -0.306190   -0.237651
     55          6           0       11.812764   -0.526224   -0.490588
     56          6           0        9.963045    0.775627    0.849155
     57          6           0        9.469409    2.151014    0.421227
     58          6           0        8.812543    2.925340    1.626844
     59          6           0        8.000067    4.135226    1.209334
     60          6           0        8.939337    5.295986    0.831387
     61          6           0        7.075198    4.521298    2.353257
     62          6           0        5.757684    3.679673    2.381181
     63          6           0        4.491555    4.541575    2.432769
     64          6           0        3.246764    3.837546    3.068363
     65          6           0        2.512094    3.040446    1.936188
     66          6           0        2.352154    4.829811    3.659350
     67          1           0        0.069912    1.462050   -1.315215
     68          1           0       -5.509406    4.626133   -0.915639
     69          1           0       -8.475317   -0.517705    1.055757
     70          1           0       -0.271921   -2.734004    1.098962
     71          1           0        0.765756   -0.946878   -1.092746
     72          1           0        0.411575    0.573350    1.491841
     73          1           0        1.891773   -0.147878    0.669607
     74          1           0        0.894096   -1.033636    1.903921
     75          1           0       -0.130966   -2.914955   -1.932033
     76          1           0       -1.015345   -4.093715   -1.062640
     77          1           0        0.795420   -5.135513   -0.339750
     78          1           0        1.691287   -3.693818    0.089226
     79          1           0        0.431974    2.980598   -2.555508
     80          1           0        0.310621    4.600572   -1.696863
     81          1           0       -0.444093    4.425082   -3.305105
     82          1           0       -2.300369    7.551299   -2.792355
     83          1           0       -1.800353    6.099349   -3.730193
     84          1           0       -1.054260    6.433519   -2.215049
     85          1           0       -8.072585    3.676571   -1.009554
     86          1           0       -8.809534    2.075281    1.152539
     87          1           0       -7.996130    5.242694    0.512324
     88          1           0       -6.488359    4.652749    1.200771
     89          1           0       -8.107638    3.979823    1.754097
     90          1           0       -9.972894    2.507058   -0.931809
     91          1           0      -10.117793    0.880993   -0.462521
     92          1           0       -9.458282    1.894266   -3.017909
     93          1           0       -9.424664    0.221982   -2.611654
     94          1           0       -7.955321    1.217867   -2.418433
     95          1           0       -8.889289   -2.943433    0.653470
     96          1           0       -8.338139   -3.334185    2.300902
     97          1           0       -8.107616   -4.531575    1.111147
     98          1           0       -2.757296   -4.921614    0.255336
     99          1           0       -0.270799   -5.403302    3.265856
    100          1           0       -0.901105   -7.133472    3.147951
    101          1           0       -1.699446   -5.870631    4.242249
    102          1           0        4.675018   -3.529146   -3.374093
    103          1           0        4.569538   -5.216449   -3.108710
    104          1           0        5.537061   -4.070049   -0.695300
    105          1           0        7.390647   -2.641369   -4.052594
    106          1           0        6.692074   -4.221366   -4.349643
    107          1           0        8.340255   -4.162570   -3.875035
    108          1           0        8.584959   -4.428249   -1.183105
    109          1           0        7.576510   -3.523942   -0.197605
    110          1           0        8.511694   -1.499251   -1.962296
    111          1           0        9.789821   -2.745556   -1.813276
    112          1           0       10.180907   -2.361948    0.312553
    113          1           0        8.690157   -1.463622    0.661584
    114          1           0        9.808148    0.099537   -1.139102
    115          1           0       12.009288   -1.594612   -0.398679
    116          1           0       12.574644    0.088077   -0.010107
    117          1           0       12.063780   -0.400506   -1.544169
    118          1           0       10.773892    1.065249    1.516856
    119          1           0        9.251867    0.389532    1.579921
    120          1           0        8.695021    2.028260   -0.335871
    121          1           0       10.284838    2.822852    0.150525
    122          1           0        9.572869    3.205977    2.355091
    123          1           0        8.124646    2.186577    2.037697
    124          1           0        7.494262    3.777663    0.312727
    125          1           0        8.665792    6.133129    1.473458
    126          1           0        9.029322    5.574235   -0.218541
    127          1           0        9.960978    5.044129    1.115337
    128          1           0        6.795840    5.545131    2.600175
    129          1           0        7.577445    4.254295    3.283413
    130          1           0        5.744824    3.090422    3.298584
    131          1           0        5.792837    3.086126    1.468740
    132          1           0        4.341410    4.855212    1.400270
    133          1           0        4.759439    5.319176    3.148213
    134          1           0        3.577618    3.030526    3.722366
    135          1           0        2.777172    1.987621    1.837637
    136          1           0        2.819423    3.363080    0.941807
    137          1           0        1.425865    2.950908    1.921591
    138          1           0        1.458502    5.054976    3.076759
    139          1           0        2.774916    5.815818    3.848904
    140          1           0        1.889841    4.401509    4.548615
 ---------------------------------------------------------------------

 SCF Done:  E(RPBE1PBE) =  -3005.33777072     A.U. after   15 cycles

 Excitation energies and oscillator strengths:

 Excited State   1:      Singlet-A      1.8404 eV  673.67 nm  f=0.3860  <S**2>=0.000
     245 -> 248        0.16094
     246 -> 247        0.69581
     246 <- 247       -0.11231
 This state for optimization and/or second-order correction.
 Total Energy, E(TD-HF/TD-DFT) =  -3005.27013648
 Copying the excited state density for this state as the 1-particle RhoCI density.

 Excited State   2:      Singlet-A      2.2229 eV  557.76 nm  f=0.1430  <S**2>=0.000
     245 -> 247        0.66285
     246 -> 248       -0.22419

 Excited State   3:      Singlet-A      2.8692 eV  432.11 nm  f=0.0020  <S**2>=0.000
     241 -> 247        0.44541
     241 -> 249       -0.12123
     242 -> 247       -0.13880
     243 -> 247        0.48886

 Excited State   4:      Singlet-A      2.9239 eV  424.03 nm  f=0.0005  <S**2>=0.000
     242 -> 247        0.65941
     242 -> 249        0.13607
     243 -> 247        0.15615

 Excited State   5:      Singlet-A      2.9905 eV  414.59 nm  f=0.0093  <S**2>=0.000
     241 -> 247        0.50276
     243 -> 247       -0.46553

 The electronic state is 1-A.
 Alpha  occ. eigenvalues --  -46.91921 -19.26709 -19.25612 -19.20277 -19.20103
 Alpha  occ. eigenvalues --  -19.18860 -19.18559 -14.42053 -14.41146 -14.39727
 Alpha  occ. eigenvalues --  -14.38750 -10.37036 -10.36514 -10.32053 -10.31776
 Alpha  occ. eigenvalues --  -10.29848 -10.29292 -10.28818 -10.28729 -10.28652
 Alpha  occ. eigenvalues --  -10.28335 -10.28042 -10.28021 -10.27228 -10.27046
 Alpha  occ. eigenvalues --  -10.26728 -10.26722 -10.26585 -10.26177 -10.26127
 Alpha  occ. eigenvalues --  -10.25888 -10.25783 -10.25568 -10.25452 -10.25125
 Alpha  occ. eigenvalues --  -10.25115 -10.25045 -10.24956 -10.24834 -10.24689
 Alpha  occ. eigenvalues --  -10.24400 -10.24226 -10.24149 -10.24078 -10.23615
 Alpha  occ. eigenvalues --  -10.23517 -10.23406 -10.23344 -10.23316 -10.23201
 Alpha  occ. eigenvalues --  -10.23191 -10.23124 -10.23067 -10.22995 -10.22754
 Alpha  occ. eigenvalues --  -10.22694 -10.22653 -10.22439 -10.22435 -10.22413
 Alpha  occ. eigenvalues --  -10.22345 -10.22212 -10.22148 -10.21856 -10.21738
 Alpha  occ. eigenvalues --  -10.21399  -3.14167  -1.86990  -1.86534  -1.86410
 Alpha  occ. eigenvalues --   -1.11587  -1.11403  -1.04161  -1.03258  -1.02025
 Alpha  occ. eigenvalues --   -1.01650  -1.00765  -0.99076  -0.97410  -0.95907
 Alpha  occ. eigenvalues --   -0.86668  -0.85093  -0.84684  -0.83630  -0.83482
 Alpha  occ. eigenvalues --   -0.83199  -0.83014  -0.82449  -0.82028  -0.81470
 Alpha  occ. eigenvalues --   -0.80034  -0.79760  -0.78994  -0.78087  -0.77872
 Alpha  occ. eigenvalues --   -0.77302  -0.76176  -0.75824  -0.75549  -0.74753
 Alpha  occ. eigenvalues --   -0.74388  -0.73159  -0.72035  -0.71685  -0.70995
 Alpha  occ. eigenvalues --   -0.70202  -0.70078  -0.69740  -0.69274  -0.68635
 Alpha  occ. eigenvalues --   -0.67730  -0.67066  -0.65901  -0.64938  -0.63855
 Alpha  occ. eigenvalues --   -0.63137  -0.62651  -0.62340  -0.60780  -0.60440
 Alpha  occ. eigenvalues --   -0.59589  -0.59453  -0.59056  -0.58735  -0.58479
 Alpha  occ. eigenvalues --   -0.58346  -0.57865  -0.57467  -0.56723  -0.55507
 Alpha  occ. eigenvalues --   -0.54393  -0.54198  -0.53881  -0.53450  -0.52814
 Alpha  occ. eigenvalues --   -0.51756  -0.51293  -0.50596  -0.50476  -0.50047
 Alpha  occ. eigenvalues --   -0.49930  -0.49589  -0.49449  -0.49311  -0.49097
 Alpha  occ. eigenvalues --   -0.48944  -0.48717  -0.47972  -0.47530  -0.47462
 Alpha  occ. eigenvalues --   -0.47272  -0.47072  -0.46936  -0.46473  -0.46261
 Alpha  occ. eigenvalues --   -0.46106  -0.45931  -0.45762  -0.45251  -0.45179
 Alpha  occ. eigenvalues --   -0.45036  -0.44862  -0.44606  -0.44535  -0.44457
 Alpha  occ. eigenvalues --   -0.44063  -0.44005  -0.43853  -0.43738  -0.43474
 Alpha  occ. eigenvalues --   -0.43331  -0.43262  -0.43198  -0.43141  -0.42948
 Alpha  occ. eigenvalues --   -0.42801  -0.42594  -0.42236  -0.41517  -0.41113
 Alpha  occ. eigenvalues --   -0.41013  -0.40873  -0.40848  -0.40667  -0.40591
 Alpha  occ. eigenvalues --   -0.40308  -0.40173  -0.39960  -0.39814  -0.39630
 Alpha  occ. eigenvalues --   -0.39198  -0.39061  -0.38940  -0.38775  -0.38546
 Alpha  occ. eigenvalues --   -0.38475  -0.38347  -0.38308  -0.38205  -0.37858
 Alpha  occ. eigenvalues --   -0.37524  -0.37326  -0.37068  -0.36985  -0.36792
 Alpha  occ. eigenvalues --   -0.36621  -0.36550  -0.36379  -0.36330  -0.36199
 Alpha  occ. eigenvalues --   -0.35777  -0.35728  -0.35535  -0.35093  -0.34966
 Alpha  occ. eigenvalues --   -0.34559  -0.34346  -0.34202  -0.33910  -0.33632
 Alpha  occ. eigenvalues --   -0.33501  -0.33118  -0.33000  -0.32766  -0.32613
 Alpha  occ. eigenvalues --   -0.32077  -0.31949  -0.31891  -0.31658  -0.31603
 Alpha  occ. eigenvalues --   -0.31227  -0.31148  -0.31036  -0.29976  -0.29645
 Alpha  occ. eigenvalues --   -0.28921  -0.28779  -0.28485  -0.27539  -0.26701
 Alpha  occ. eigenvalues --   -0.25500  -0.25374  -0.24939  -0.24397  -0.21044
 Alpha  occ. eigenvalues --   -0.18954
 Alpha virt. eigenvalues --   -0.11445  -0.04989  -0.04132  -0.02117  -0.00497
 Alpha virt. eigenvalues --   -0.00037   0.00190   0.00783   0.01321   0.03361
 Alpha virt. eigenvalues --    0.04109   0.04323   0.04950   0.05451   0.05534

 Mulliken charges:
               1
     1  Mg   0.992472
     2  C    0.048054
     3  C   -0.048131
     4  C   -0.052829
     5  C   -0.053757
     6  N   -0.320826
     7  C    0.020383
     8  C   -0.124793
     9  C   -0.137869
    10  C    0.035212
    11  C    0.013748
    12  C    0.017997
    13  C   -0.031422
    14  C    0.220266
    15  O   -0.247722
    16  O   -0.369587
    17  N   -0.428054
    18  C    0.115073
    19  C   -0.167718
    20  C   -0.091514
    21  C    0.209120
    22  C    0.056875
    23  C    0.032086
    24  O   -0.255414
    25  C   -0.025080
    26  N   -0.503313
    27  C    0.051346
    28  C   -0.113855
    29  C   -0.073739
    30  C    0.073132
    31  C    0.028478
    32  C   -0.049901
    33  C   -0.059460
    34  N   -0.466035
    35  C    0.146031
    36  C   -0.174146
    37  C   -0.068954
    38  C    0.140041
    39  C    0.075212
    40  C    0.154705
    41  O   -0.253029
    42  C   -0.184360
    43  C    0.330592
    44  O   -0.286450
    45  O   -0.348782
    46  C    0.132887
    47  C    0.264282
    48  C   -0.183438
    49  C   -0.217111
    50  C    0.013288
    51  C    0.020975
    52  C   -0.043558
    53  C   -0.014693
    54  C   -0.156945
    55  C   -0.003444
    56  C    0.002761
    57  C   -0.042037
    58  C   -0.087419
    59  C   -0.194858
    60  C    0.013554
    61  C    0.018407
    62  C   -0.053722
    63  C   -0.041978
    64  C   -0.204048
    65  C   -0.045787
    66  C    0.016502
    67  H   -0.010293
    68  H    0.026029
    69  H    0.001027
    70  H    0.062866
    71  H    0.049341
    72  H    0.064215
    73  H    0.062400
    74  H    0.051467
    75  H    0.040612
    76  H    0.047834
    77  H    0.074724
    78  H    0.049560
    79  H    0.067340
    80  H    0.075644
    81  H    0.058816
    82  H    0.061263
    83  H    0.066271
    84  H    0.040501
    85  H    0.050962
    86  H    0.033081
    87  H    0.045038
    88  H    0.064874
    89  H    0.037698
    90  H    0.032998
    91  H    0.035991
    92  H    0.039028
    93  H    0.047126
    94  H    0.053069
    95  H    0.050910
    96  H    0.054066
    97  H    0.058827
    98  H    0.083426
    99  H    0.047844
   100  H    0.070532
   101  H    0.065659
   102  H    0.053767
   103  H    0.068169
   104  H    0.039891
   105  H    0.061213
   106  H    0.035931
   107  H    0.050031
   108  H    0.040461
   109  H    0.014663
   110  H    0.031832
   111  H    0.028240
   112  H    0.024735
   113  H    0.028398
   114  H    0.031557
   115  H    0.022454
   116  H    0.046079
   117  H    0.022217
   118  H    0.014089
   119  H    0.011132
   120  H    0.024328
   121  H    0.032493
   122  H    0.033071
   123  H    0.027270
   124  H    0.025634
   125  H    0.028693
   126  H    0.041096
   127  H    0.019231
   128  H    0.020109
   129  H    0.016995
   130  H    0.024968
   131  H    0.027791
   132  H    0.040639
   133  H    0.030870
   134  H    0.040673
   135  H    0.019817
   136  H    0.013713
   137  H    0.039343
   138  H    0.025772
   139  H    0.031680
   140  H    0.032507
 Sum of Mulliken charges =  -0.00000

 Dipole moment (field-independent basis, Debye):
    X=              4.6681    Y=              2.9673    Z=             -1.5302  Tot=              5.7391
 Quadrupole moment (field-independent basis, Debye-Ang):
   XX=           -364.3988   YY=           -434.9031   ZZ=           -406.6323
   XY=            -21.8567   XZ=             -1.4650   YZ=              0.1360

 Normal termination of Gaussian 16 at Sat Apr 30 22:37:12 2022.
