 Gaussian 16, Revision A.03,
 Gaussian 16:  ES64L-G16RevA.03 25-Dec-2016

 --------------------------------
 #p wB97XD/Def2SVP td=(nstates=5)
 --------------------------------

 ----------------------------------------------------
 step_951_chromophore_12 TDDFT with wB97XD functional
 ----------------------------------------------------
 Symbolic Z-matrix:
 Charge =  0 Multiplicity = 1

                         Standard orientation:
 ---------------------------------------------------------------------
 Center     Atomic      Atomic             Coordinates (Angstroms)
 Number     Number       Type             X           Y           Z
 ---------------------------------------------------------------------
      1         12           0       -4.288300    0.437554   -0.448632
      2          6           0       -3.105896   -2.772817    0.593208
      3          6           0       -0.962884    1.235639   -1.041264
      4          6           0       -5.143654    3.598444   -0.950488
      5          6           0       -7.424924   -0.399377    0.780631
      6          7           0       -2.250270   -0.607768   -0.104392
      7          6           0       -2.048448   -1.944933    0.148774
      8          6           0       -0.532124   -2.313144    0.127132
      9          6           0        0.146823   -0.873299   -0.198263
     10          6           0       -1.113719   -0.065422   -0.502932
     11          6           0        0.897809   -0.312439    1.085954
     12          6           0       -0.198387   -3.382083   -0.949592
     13          6           0        1.102043   -4.155677   -0.704064
     14          6           0        2.151301   -4.353467   -1.900970
     15          8           0        1.857897   -4.852369   -2.958334
     16          8           0        3.441213   -3.997009   -1.589601
     17          7           0       -3.234434    2.126179   -1.071390
     18          6           0       -1.940632    2.247834   -1.371452
     19          6           0       -1.606758    3.587119   -1.872627
     20          6           0       -2.857532    4.207613   -1.847142
     21          6           0       -3.841137    3.259285   -1.321575
     22          6           0       -0.134401    3.899512   -2.402900
     23          6           0       -3.107848    5.623743   -2.195795
     24          8           0       -4.224888    6.142983   -2.199170
     25          6           0       -2.007414    6.502598   -2.738637
     26          7           0       -5.993111    1.440914   -0.150930
     27          6           0       -6.116572    2.807418   -0.429705
     28          6           0       -7.565055    3.286378   -0.127361
     29          6           0       -8.321453    1.999249    0.181060
     30          6           0       -7.205467    0.916179    0.333304
     31          6           0       -7.504630    4.365041    0.931605
     32          6           0       -9.389535    1.588503   -0.857877
     33          6           0       -9.037692    1.192037   -2.298335
     34          7           0       -5.144540   -1.243003    0.465896
     35          6           0       -6.467687   -1.501147    0.783616
     36          6           0       -6.690641   -2.870897    0.996799
     37          6           0       -5.390629   -3.486172    0.946068
     38          6           0       -4.456568   -2.394484    0.615773
     39          6           0       -8.122506   -3.449590    1.238499
     40          6           0       -4.670776   -4.740737    1.065908
     41          8           0       -5.057373   -5.906577    1.354897
     42          6           0       -3.199230   -4.266362    1.004770
     43          6           0       -2.566830   -4.477267    2.327326
     44          8           0       -2.429434   -3.606169    3.224343
     45          8           0       -1.959475   -5.691930    2.260402
     46          6           0       -1.119608   -6.083512    3.343721
     47          6           0        4.506658   -4.262442   -2.585720
     48          6           0        5.747968   -4.136462   -1.763130
     49          6           0        6.987387   -3.751540   -2.225546
     50          6           0        7.380515   -3.674257   -3.704924
     51          6           0        8.032972   -3.487929   -1.186637
     52          6           0        8.946492   -2.263550   -1.317919
     53          6           0        9.468999   -1.637487   -0.081222
     54          6           0       10.268383   -0.306190   -0.237651
     55          6           0       11.812764   -0.526224   -0.490588
     56          6           0        9.963045    0.775627    0.849155
     57          6           0        9.469409    2.151014    0.421227
     58          6           0        8.812543    2.925340    1.626844
     59          6           0        8.000067    4.135226    1.209334
     60          6           0        8.939337    5.295986    0.831387
     61          6           0        7.075198    4.521298    2.353257
     62          6           0        5.757684    3.679673    2.381181
     63          6           0        4.491555    4.541575    2.432769
     64          6           0        3.246764    3.837546    3.068363
     65          6           0        2.512094    3.040446    1.936188
     66          6           0        2.352154    4.829811    3.659350
     67          1           0        0.069912    1.462050   -1.315215
     68          1           0       -5.509406    4.626133   -0.915639
     69          1           0       -8.475317   -0.517705    1.055757
     70          1           0       -0.271921   -2.734004    1.098962
     71          1           0        0.765756   -0.946878   -1.092746
     72          1           0        0.411575    0.573350    1.491841
     73          1           0        1.891773   -0.147878    0.669607
     74          1           0        0.894096   -1.033636    1.903921
     75          1           0       -0.130966   -2.914955   -1.932033
     76          1           0       -1.015345   -4.093715   -1.062640
     77          1           0        0.795420   -5.135513   -0.339750
     78          1           0        1.691287   -3.693818    0.089226
     79          1           0        0.431974    2.980598   -2.555508
     80          1           0        0.310621    4.600572   -1.696863
     81          1           0       -0.444093    4.425082   -3.305105
     82          1           0       -2.300369    7.551299   -2.792355
     83          1           0       -1.800353    6.099349   -3.730193
     84          1           0       -1.054260    6.433519   -2.215049
     85          1           0       -8.072585    3.676571   -1.009554
     86          1           0       -8.809534    2.075281    1.152539
     87          1           0       -7.996130    5.242694    0.512324
     88          1           0       -6.488359    4.652749    1.200771
     89          1           0       -8.107638    3.979823    1.754097
     90          1           0       -9.972894    2.507058   -0.931809
     91          1           0      -10.117793    0.880993   -0.462521
     92          1           0       -9.458282    1.894266   -3.017909
     93          1           0       -9.424664    0.221982   -2.611654
     94          1           0       -7.955321    1.217867   -2.418433
     95          1           0       -8.889289   -2.943433    0.653470
     96          1           0       -8.338139   -3.334185    2.300902
     97          1           0       -8.107616   -4.531575    1.111147
     98          1           0       -2.757296   -4.921614    0.255336
     99          1           0       -0.270799   -5.403302    3.265856
    100          1           0       -0.901105   -7.133472    3.147951
    101          1           0       -1.699446   -5.870631    4.242249
    102          1           0        4.675018   -3.529146   -3.374093
    103          1           0        4.569538   -5.216449   -3.108710
    104          1           0        5.537061   -4.070049   -0.695300
    105          1           0        7.390647   -2.641369   -4.052594
    106          1           0        6.692074   -4.221366   -4.349643
    107          1           0        8.340255   -4.162570   -3.875035
    108          1           0        8.584959   -4.428249   -1.183105
    109          1           0        7.576510   -3.523942   -0.197605
    110          1           0        8.511694   -1.499251   -1.962296
    111          1           0        9.789821   -2.745556   -1.813276
    112          1           0       10.180907   -2.361948    0.312553
    113          1           0        8.690157   -1.463622    0.661584
    114          1           0        9.808148    0.099537   -1.139102
    115          1           0       12.009288   -1.594612   -0.398679
    116          1           0       12.574644    0.088077   -0.010107
    117          1           0       12.063780   -0.400506   -1.544169
    118          1           0       10.773892    1.065249    1.516856
    119          1           0        9.251867    0.389532    1.579921
    120          1           0        8.695021    2.028260   -0.335871
    121          1           0       10.284838    2.822852    0.150525
    122          1           0        9.572869    3.205977    2.355091
    123          1           0        8.124646    2.186577    2.037697
    124          1           0        7.494262    3.777663    0.312727
    125          1           0        8.665792    6.133129    1.473458
    126          1           0        9.029322    5.574235   -0.218541
    127          1           0        9.960978    5.044129    1.115337
    128          1           0        6.795840    5.545131    2.600175
    129          1           0        7.577445    4.254295    3.283413
    130          1           0        5.744824    3.090422    3.298584
    131          1           0        5.792837    3.086126    1.468740
    132          1           0        4.341410    4.855212    1.400270
    133          1           0        4.759439    5.319176    3.148213
    134          1           0        3.577618    3.030526    3.722366
    135          1           0        2.777172    1.987621    1.837637
    136          1           0        2.819423    3.363080    0.941807
    137          1           0        1.425865    2.950908    1.921591
    138          1           0        1.458502    5.054976    3.076759
    139          1           0        2.774916    5.815818    3.848904
    140          1           0        1.889841    4.401509    4.548615
 ---------------------------------------------------------------------

 SCF Done:  E(RwB97XD) =  -3007.84457440     A.U. after   17 cycles

 Excitation energies and oscillator strengths:

 Excited State   1:      Singlet-A      1.6455 eV  753.47 nm  f=0.4019  <S**2>=0.000
     245 -> 248        0.17065
     246 -> 247        0.68676
     245 <- 248        0.11122
 This state for optimization and/or second-order correction.
 Total Energy, E(TD-HF/TD-DFT) =  -3007.78410325
 Copying the excited state density for this state as the 1-particle RhoCI density.

 Excited State   2:      Singlet-A      2.1732 eV  570.51 nm  f=0.1462  <S**2>=0.000
     245 -> 247        0.65257
     246 -> 248       -0.25427

 Excited State   3:      Singlet-A      3.3493 eV  370.18 nm  f=0.0038  <S**2>=0.000
     240 -> 247       -0.11167
     243 -> 247        0.65008

 Excited State   4:      Singlet-A      3.4422 eV  360.19 nm  f=0.0006  <S**2>=0.000
     242 -> 247        0.54354
     242 -> 248       -0.16753
     242 -> 249       -0.29262
     242 -> 250        0.18924
     243 -> 247       -0.13720

 Excited State   5:      Singlet-A      3.5140 eV  352.83 nm  f=0.0146  <S**2>=0.000
     240 -> 247        0.10884
     240 -> 249        0.10067
     241 -> 247        0.52297
     241 -> 249        0.31159
     241 -> 250        0.22821
     246 -> 248       -0.14181

 The electronic state is 1-A.
 Alpha  occ. eigenvalues --  -46.94846 -19.31252 -19.30146 -19.24952 -19.24757
 Alpha  occ. eigenvalues --  -19.23563 -19.23476 -14.47308 -14.46023 -14.44858
 Alpha  occ. eigenvalues --  -14.43547 -10.43794 -10.43317 -10.38813 -10.38781
 Alpha  occ. eigenvalues --  -10.36343 -10.35388 -10.35304 -10.35244 -10.34805
 Alpha  occ. eigenvalues --  -10.34746 -10.34725 -10.34680 -10.33898 -10.33176
 Alpha  occ. eigenvalues --  -10.33046 -10.32954 -10.32946 -10.32614 -10.32495
 Alpha  occ. eigenvalues --  -10.32311 -10.32130 -10.31805 -10.31631 -10.31558
 Alpha  occ. eigenvalues --  -10.31520 -10.31475 -10.31394 -10.31181 -10.30802
 Alpha  occ. eigenvalues --  -10.30708 -10.30697 -10.30619 -10.30280 -10.30108
 Alpha  occ. eigenvalues --  -10.29961 -10.29736 -10.29635 -10.29598 -10.29524
 Alpha  occ. eigenvalues --  -10.29509 -10.29437 -10.29417 -10.29414 -10.29095
 Alpha  occ. eigenvalues --  -10.29092 -10.29062 -10.28885 -10.28845 -10.28813
 Alpha  occ. eigenvalues --  -10.28735 -10.28597 -10.28561 -10.28357 -10.28203
 Alpha  occ. eigenvalues --  -10.27889  -3.20946  -1.94519  -1.94059  -1.93937
 Alpha  occ. eigenvalues --   -1.18950  -1.18764  -1.11841  -1.10585  -1.09371
 Alpha  occ. eigenvalues --   -1.08994  -1.08349  -1.06529  -1.04548  -1.03233
 Alpha  occ. eigenvalues --   -0.94204  -0.92781  -0.92377  -0.91288  -0.91143
 Alpha  occ. eigenvalues --   -0.90897  -0.90607  -0.90138  -0.89908  -0.89109
 Alpha  occ. eigenvalues --   -0.87543  -0.87381  -0.86626  -0.85667  -0.85447
 Alpha  occ. eigenvalues --   -0.84955  -0.83923  -0.83596  -0.83091  -0.82515
 Alpha  occ. eigenvalues --   -0.82076  -0.81026  -0.79643  -0.79232  -0.78687
 Alpha  occ. eigenvalues --   -0.77874  -0.77709  -0.77326  -0.76993  -0.76331
 Alpha  occ. eigenvalues --   -0.75203  -0.74650  -0.73501  -0.72546  -0.71405
 Alpha  occ. eigenvalues --   -0.70722  -0.70237  -0.69936  -0.68363  -0.68044
 Alpha  occ. eigenvalues --   -0.67051  -0.67012  -0.66647  -0.66150  -0.66079
 Alpha  occ. eigenvalues --   -0.65911  -0.65585  -0.65143  -0.64095  -0.63076
 Alpha  occ. eigenvalues --   -0.61867  -0.61554  -0.61332  -0.60848  -0.60284
 Alpha  occ. eigenvalues --   -0.59101  -0.58791  -0.58082  -0.57885  -0.57578
 Alpha  occ. eigenvalues --   -0.57397  -0.56945  -0.56856  -0.56802  -0.56569
 Alpha  occ. eigenvalues --   -0.56270  -0.56098  -0.55373  -0.55178  -0.54807
 Alpha  occ. eigenvalues --   -0.54726  -0.54485  -0.54321  -0.53872  -0.53544
 Alpha  occ. eigenvalues --   -0.53452  -0.53306  -0.53124  -0.52605  -0.52552
 Alpha  occ. eigenvalues --   -0.52419  -0.52268  -0.52049  -0.51881  -0.51801
 Alpha  occ. eigenvalues --   -0.51399  -0.51324  -0.51213  -0.51092  -0.50870
 Alpha  occ. eigenvalues --   -0.50692  -0.50536  -0.50474  -0.50404  -0.50253
 Alpha  occ. eigenvalues --   -0.50141  -0.49818  -0.49508  -0.48788  -0.48380
 Alpha  occ. eigenvalues --   -0.48305  -0.47985  -0.47935  -0.47838  -0.47812
 Alpha  occ. eigenvalues --   -0.47468  -0.47382  -0.47239  -0.46913  -0.46733
 Alpha  occ. eigenvalues --   -0.46417  -0.46178  -0.46134  -0.45860  -0.45721
 Alpha  occ. eigenvalues --   -0.45662  -0.45506  -0.45428  -0.45344  -0.45034
 Alpha  occ. eigenvalues --   -0.44497  -0.44452  -0.44105  -0.44050  -0.43956
 Alpha  occ. eigenvalues --   -0.43778  -0.43700  -0.43629  -0.43445  -0.43315
 Alpha  occ. eigenvalues --   -0.42889  -0.42717  -0.42548  -0.42160  -0.42073
 Alpha  occ. eigenvalues --   -0.41625  -0.41297  -0.41240  -0.40884  -0.40678
 Alpha  occ. eigenvalues --   -0.40514  -0.40181  -0.40090  -0.39841  -0.39524
 Alpha  occ. eigenvalues --   -0.39185  -0.39018  -0.38887  -0.38635  -0.38590
 Alpha  occ. eigenvalues --   -0.38265  -0.38179  -0.38073  -0.36853  -0.36405
 Alpha  occ. eigenvalues --   -0.36018  -0.35833  -0.35101  -0.34299  -0.33380
 Alpha  occ. eigenvalues --   -0.32738  -0.32383  -0.31255  -0.31149  -0.26045
 Alpha  occ. eigenvalues --   -0.23160
 Alpha virt. eigenvalues --   -0.07349   0.00556   0.02118   0.04324   0.05432
 Alpha virt. eigenvalues --    0.06763   0.07008   0.07501   0.08023   0.09680
 Alpha virt. eigenvalues --    0.10782   0.11105   0.11683   0.12256   0.12325

 Mulliken charges:
               1
     1  Mg   0.981544
     2  C    0.047930
     3  C   -0.063357
     4  C   -0.080855
     5  C   -0.071048
     6  N   -0.283606
     7  C   -0.010991
     8  C   -0.096212
     9  C   -0.114396
    10  C    0.022539
    11  C    0.023373
    12  C    0.027494
    13  C   -0.014557
    14  C    0.209730
    15  O   -0.246033
    16  O   -0.367977
    17  N   -0.392034
    18  C    0.108456
    19  C   -0.164483
    20  C   -0.080962
    21  C    0.203301
    22  C    0.075718
    23  C    0.026620
    24  O   -0.248306
    25  C   -0.011877
    26  N   -0.475145
    27  C    0.052364
    28  C   -0.093034
    29  C   -0.045717
    30  C    0.058525
    31  C    0.037798
    32  C   -0.035308
    33  C   -0.041375
    34  N   -0.428568
    35  C    0.137842
    36  C   -0.176057
    37  C   -0.068582
    38  C    0.119104
    39  C    0.086380
    40  C    0.141283
    41  O   -0.244887
    42  C   -0.144570
    43  C    0.304927
    44  O   -0.280869
    45  O   -0.347542
    46  C    0.146868
    47  C    0.276455
    48  C   -0.189379
    49  C   -0.204553
    50  C    0.024434
    51  C    0.037314
    52  C   -0.022828
    53  C    0.002242
    54  C   -0.126377
    55  C    0.007893
    56  C    0.015879
    57  C   -0.022215
    58  C   -0.068590
    59  C   -0.159970
    60  C    0.022111
    61  C    0.032759
    62  C   -0.038208
    63  C   -0.021386
    64  C   -0.171501
    65  C   -0.031225
    66  C    0.025204
    67  H   -0.018032
    68  H    0.020705
    69  H   -0.005370
    70  H    0.048994
    71  H    0.040384
    72  H    0.055994
    73  H    0.056959
    74  H    0.047640
    75  H    0.032468
    76  H    0.038081
    77  H    0.070214
    78  H    0.042110
    79  H    0.065154
    80  H    0.072342
    81  H    0.051248
    82  H    0.061476
    83  H    0.060515
    84  H    0.033715
    85  H    0.040559
    86  H    0.023208
    87  H    0.040125
    88  H    0.058352
    89  H    0.032127
    90  H    0.022376
    91  H    0.029395
    92  H    0.033479
    93  H    0.042511
    94  H    0.040932
    95  H    0.044965
    96  H    0.047591
    97  H    0.054209
    98  H    0.075909
    99  H    0.043043
   100  H    0.068069
   101  H    0.061738
   102  H    0.047050
   103  H    0.064212
   104  H    0.035535
   105  H    0.056155
   106  H    0.030890
   107  H    0.045329
   108  H    0.032288
   109  H    0.006489
   110  H    0.022228
   111  H    0.018310
   112  H    0.014392
   113  H    0.019553
   114  H    0.015648
   115  H    0.015122
   116  H    0.041939
   117  H    0.016194
   118  H    0.005149
   119  H    0.000341
   120  H    0.014142
   121  H    0.022502
   122  H    0.023168
   123  H    0.013320
   124  H    0.011535
   125  H    0.022841
   126  H    0.036972
   127  H    0.011882
   128  H    0.011366
   129  H    0.007116
   130  H    0.016016
   131  H    0.016770
   132  H    0.031267
   133  H    0.018302
   134  H    0.030774
   135  H    0.009589
   136  H    0.005497
   137  H    0.031804
   138  H    0.019308
   139  H    0.026630
   140  H    0.027677
 Sum of Mulliken charges =  -0.00000

 Dipole moment (field-independent basis, Debye):
    X=              5.2008    Y=              3.4644    Z=             -1.7751  Tot=              6.4963
 Quadrupole moment (field-independent basis, Debye-Ang):
   XX=           -368.5690   YY=           -433.0518   ZZ=           -406.0179
   XY=            -22.9732   XZ=             -0.6136   YZ=             -0.8189

 Normal termination of Gaussian 16 at Sat Apr 30 23:02:20 2022.
