 Gaussian 16, Revision A.03,
 Gaussian 16:  ES64L-G16RevA.03 25-Dec-2016

 --------------------
 #p ZINDO=(nstates=5)
 --------------------

 -----------------------------
 step_951_chromophore_12 ZINDO
 -----------------------------
 Symbolic Z-matrix:
 Charge =  0 Multiplicity = 1

                         Standard orientation:
 ---------------------------------------------------------------------
 Center     Atomic      Atomic             Coordinates (Angstroms)
 Number     Number       Type             X           Y           Z
 ---------------------------------------------------------------------
      1         12           0       -4.288300    0.437554   -0.448632
      2          6           0       -3.105896   -2.772817    0.593208
      3          6           0       -0.962884    1.235639   -1.041264
      4          6           0       -5.143654    3.598444   -0.950488
      5          6           0       -7.424924   -0.399377    0.780631
      6          7           0       -2.250270   -0.607768   -0.104392
      7          6           0       -2.048448   -1.944933    0.148774
      8          6           0       -0.532124   -2.313144    0.127132
      9          6           0        0.146823   -0.873299   -0.198263
     10          6           0       -1.113719   -0.065422   -0.502932
     11          6           0        0.897809   -0.312439    1.085954
     12          6           0       -0.198387   -3.382083   -0.949592
     13          6           0        1.102043   -4.155677   -0.704064
     14          6           0        2.151301   -4.353467   -1.900970
     15          8           0        1.857897   -4.852369   -2.958334
     16          8           0        3.441213   -3.997009   -1.589601
     17          7           0       -3.234434    2.126179   -1.071390
     18          6           0       -1.940632    2.247834   -1.371452
     19          6           0       -1.606758    3.587119   -1.872627
     20          6           0       -2.857532    4.207613   -1.847142
     21          6           0       -3.841137    3.259285   -1.321575
     22          6           0       -0.134401    3.899512   -2.402900
     23          6           0       -3.107848    5.623743   -2.195795
     24          8           0       -4.224888    6.142983   -2.199170
     25          6           0       -2.007414    6.502598   -2.738637
     26          7           0       -5.993111    1.440914   -0.150930
     27          6           0       -6.116572    2.807418   -0.429705
     28          6           0       -7.565055    3.286378   -0.127361
     29          6           0       -8.321453    1.999249    0.181060
     30          6           0       -7.205467    0.916179    0.333304
     31          6           0       -7.504630    4.365041    0.931605
     32          6           0       -9.389535    1.588503   -0.857877
     33          6           0       -9.037692    1.192037   -2.298335
     34          7           0       -5.144540   -1.243003    0.465896
     35          6           0       -6.467687   -1.501147    0.783616
     36          6           0       -6.690641   -2.870897    0.996799
     37          6           0       -5.390629   -3.486172    0.946068
     38          6           0       -4.456568   -2.394484    0.615773
     39          6           0       -8.122506   -3.449590    1.238499
     40          6           0       -4.670776   -4.740737    1.065908
     41          8           0       -5.057373   -5.906577    1.354897
     42          6           0       -3.199230   -4.266362    1.004770
     43          6           0       -2.566830   -4.477267    2.327326
     44          8           0       -2.429434   -3.606169    3.224343
     45          8           0       -1.959475   -5.691930    2.260402
     46          6           0       -1.119608   -6.083512    3.343721
     47          6           0        4.506658   -4.262442   -2.585720
     48          6           0        5.747968   -4.136462   -1.763130
     49          6           0        6.987387   -3.751540   -2.225546
     50          6           0        7.380515   -3.674257   -3.704924
     51          6           0        8.032972   -3.487929   -1.186637
     52          6           0        8.946492   -2.263550   -1.317919
     53          6           0        9.468999   -1.637487   -0.081222
     54          6           0       10.268383   -0.306190   -0.237651
     55          6           0       11.812764   -0.526224   -0.490588
     56          6           0        9.963045    0.775627    0.849155
     57          6           0        9.469409    2.151014    0.421227
     58          6           0        8.812543    2.925340    1.626844
     59          6           0        8.000067    4.135226    1.209334
     60          6           0        8.939337    5.295986    0.831387
     61          6           0        7.075198    4.521298    2.353257
     62          6           0        5.757684    3.679673    2.381181
     63          6           0        4.491555    4.541575    2.432769
     64          6           0        3.246764    3.837546    3.068363
     65          6           0        2.512094    3.040446    1.936188
     66          6           0        2.352154    4.829811    3.659350
     67          1           0        0.069912    1.462050   -1.315215
     68          1           0       -5.509406    4.626133   -0.915639
     69          1           0       -8.475317   -0.517705    1.055757
     70          1           0       -0.271921   -2.734004    1.098962
     71          1           0        0.765756   -0.946878   -1.092746
     72          1           0        0.411575    0.573350    1.491841
     73          1           0        1.891773   -0.147878    0.669607
     74          1           0        0.894096   -1.033636    1.903921
     75          1           0       -0.130966   -2.914955   -1.932033
     76          1           0       -1.015345   -4.093715   -1.062640
     77          1           0        0.795420   -5.135513   -0.339750
     78          1           0        1.691287   -3.693818    0.089226
     79          1           0        0.431974    2.980598   -2.555508
     80          1           0        0.310621    4.600572   -1.696863
     81          1           0       -0.444093    4.425082   -3.305105
     82          1           0       -2.300369    7.551299   -2.792355
     83          1           0       -1.800353    6.099349   -3.730193
     84          1           0       -1.054260    6.433519   -2.215049
     85          1           0       -8.072585    3.676571   -1.009554
     86          1           0       -8.809534    2.075281    1.152539
     87          1           0       -7.996130    5.242694    0.512324
     88          1           0       -6.488359    4.652749    1.200771
     89          1           0       -8.107638    3.979823    1.754097
     90          1           0       -9.972894    2.507058   -0.931809
     91          1           0      -10.117793    0.880993   -0.462521
     92          1           0       -9.458282    1.894266   -3.017909
     93          1           0       -9.424664    0.221982   -2.611654
     94          1           0       -7.955321    1.217867   -2.418433
     95          1           0       -8.889289   -2.943433    0.653470
     96          1           0       -8.338139   -3.334185    2.300902
     97          1           0       -8.107616   -4.531575    1.111147
     98          1           0       -2.757296   -4.921614    0.255336
     99          1           0       -0.270799   -5.403302    3.265856
    100          1           0       -0.901105   -7.133472    3.147951
    101          1           0       -1.699446   -5.870631    4.242249
    102          1           0        4.675018   -3.529146   -3.374093
    103          1           0        4.569538   -5.216449   -3.108710
    104          1           0        5.537061   -4.070049   -0.695300
    105          1           0        7.390647   -2.641369   -4.052594
    106          1           0        6.692074   -4.221366   -4.349643
    107          1           0        8.340255   -4.162570   -3.875035
    108          1           0        8.584959   -4.428249   -1.183105
    109          1           0        7.576510   -3.523942   -0.197605
    110          1           0        8.511694   -1.499251   -1.962296
    111          1           0        9.789821   -2.745556   -1.813276
    112          1           0       10.180907   -2.361948    0.312553
    113          1           0        8.690157   -1.463622    0.661584
    114          1           0        9.808148    0.099537   -1.139102
    115          1           0       12.009288   -1.594612   -0.398679
    116          1           0       12.574644    0.088077   -0.010107
    117          1           0       12.063780   -0.400506   -1.544169
    118          1           0       10.773892    1.065249    1.516856
    119          1           0        9.251867    0.389532    1.579921
    120          1           0        8.695021    2.028260   -0.335871
    121          1           0       10.284838    2.822852    0.150525
    122          1           0        9.572869    3.205977    2.355091
    123          1           0        8.124646    2.186577    2.037697
    124          1           0        7.494262    3.777663    0.312727
    125          1           0        8.665792    6.133129    1.473458
    126          1           0        9.029322    5.574235   -0.218541
    127          1           0        9.960978    5.044129    1.115337
    128          1           0        6.795840    5.545131    2.600175
    129          1           0        7.577445    4.254295    3.283413
    130          1           0        5.744824    3.090422    3.298584
    131          1           0        5.792837    3.086126    1.468740
    132          1           0        4.341410    4.855212    1.400270
    133          1           0        4.759439    5.319176    3.148213
    134          1           0        3.577618    3.030526    3.722366
    135          1           0        2.777172    1.987621    1.837637
    136          1           0        2.819423    3.363080    0.941807
    137          1           0        1.425865    2.950908    1.921591
    138          1           0        1.458502    5.054976    3.076759
    139          1           0        2.774916    5.815818    3.848904
    140          1           0        1.889841    4.401509    4.548615
 ---------------------------------------------------------------------

 SCF Done:  E(RZINDO/S) =  -474.276497210     A.U. after   19 cycles

 Excitation energies and oscillator strengths:

 Excited State   1:      Singlet-A      1.2465 eV  994.63 nm  f=0.6153  <S**2>=0.000
     175 ->178        -0.15463
     176 ->177         0.66991
 This state for optimization and/or second-order correction.
 Total Energy, E(CIS/TDA) =  -474.230687832
 Copying the excited state density for this state as the 1-particle RhoCI density.

 Excited State   2:      Singlet-A      1.9252 eV  644.00 nm  f=0.0869  <S**2>=0.000
     175 ->177         0.56906
     176 ->178         0.36892

 Excited State   3:      Singlet-A      2.8371 eV  437.02 nm  f=0.4171  <S**2>=0.000
     175 ->177        -0.26908
     176 ->178         0.52845
     176 ->179         0.26213
     176 ->180        -0.16863
     176 ->183         0.11738

 Excited State   4:      Singlet-A      2.8632 eV  433.03 nm  f=0.0009  <S**2>=0.000
     167 ->179        -0.10356
     168 ->177         0.31578
     168 ->179        -0.43619
     168 ->180        -0.25231
     168 ->186        -0.19679

 Excited State   5:      Singlet-A      2.9872 eV  415.05 nm  f=0.0070  <S**2>=0.000
     170 ->177         0.30187
     170 ->178         0.30145
     170 ->179         0.21673
     170 ->180        -0.25789
     170 ->183         0.15123
     170 ->186         0.17336
     170 ->187         0.13064
     171 ->177         0.13157
     171 ->178         0.11925
     171 ->180        -0.10116

 The electronic state is 1-A.
 Alpha  occ. eigenvalues --   -1.85050  -1.81737  -1.79137  -1.73808  -1.71674
 Alpha  occ. eigenvalues --   -1.70569  -1.66820  -1.61422  -1.60047  -1.57542
 Alpha  occ. eigenvalues --   -1.56763  -1.52479  -1.48508  -1.47071  -1.46399
 Alpha  occ. eigenvalues --   -1.44413  -1.42108  -1.40810  -1.39661  -1.39155
 Alpha  occ. eigenvalues --   -1.35808  -1.34232  -1.32026  -1.30763  -1.29334
 Alpha  occ. eigenvalues --   -1.28722  -1.24073  -1.21686  -1.20726  -1.18241
 Alpha  occ. eigenvalues --   -1.17998  -1.17066  -1.16520  -1.14945  -1.14233
 Alpha  occ. eigenvalues --   -1.13571  -1.12332  -1.11175  -1.04725  -1.03826
 Alpha  occ. eigenvalues --   -1.01849  -1.00756  -0.99354  -0.97837  -0.96000
 Alpha  occ. eigenvalues --   -0.95080  -0.94330  -0.93796  -0.93179  -0.92009
 Alpha  occ. eigenvalues --   -0.90769  -0.89496  -0.88593  -0.88423  -0.87876
 Alpha  occ. eigenvalues --   -0.86613  -0.86139  -0.83241  -0.81670  -0.81117
 Alpha  occ. eigenvalues --   -0.79425  -0.78725  -0.78156  -0.77271  -0.76710
 Alpha  occ. eigenvalues --   -0.76572  -0.76173  -0.74981  -0.74571  -0.73943
 Alpha  occ. eigenvalues --   -0.73514  -0.72748  -0.72344  -0.71813  -0.70560
 Alpha  occ. eigenvalues --   -0.70236  -0.69643  -0.68787  -0.67850  -0.67693
 Alpha  occ. eigenvalues --   -0.67569  -0.67096  -0.66994  -0.66649  -0.65880
 Alpha  occ. eigenvalues --   -0.65346  -0.65168  -0.64718  -0.64152  -0.63179
 Alpha  occ. eigenvalues --   -0.62971  -0.62507  -0.62412  -0.62317  -0.62120
 Alpha  occ. eigenvalues --   -0.61666  -0.61074  -0.60747  -0.60663  -0.60011
 Alpha  occ. eigenvalues --   -0.59539  -0.59464  -0.59159  -0.58922  -0.58561
 Alpha  occ. eigenvalues --   -0.58259  -0.57971  -0.57587  -0.56899  -0.56731
 Alpha  occ. eigenvalues --   -0.56291  -0.55872  -0.55476  -0.55066  -0.54675
 Alpha  occ. eigenvalues --   -0.54604  -0.53602  -0.53131  -0.53069  -0.52648
 Alpha  occ. eigenvalues --   -0.52308  -0.52114  -0.51758  -0.51728  -0.51563
 Alpha  occ. eigenvalues --   -0.51496  -0.51040  -0.50755  -0.50475  -0.50140
 Alpha  occ. eigenvalues --   -0.49961  -0.49703  -0.49403  -0.49195  -0.49150
 Alpha  occ. eigenvalues --   -0.48962  -0.48361  -0.48262  -0.47803  -0.47781
 Alpha  occ. eigenvalues --   -0.47653  -0.47023  -0.46997  -0.46509  -0.46248
 Alpha  occ. eigenvalues --   -0.46171  -0.45891  -0.45761  -0.45392  -0.45155
 Alpha  occ. eigenvalues --   -0.45031  -0.44894  -0.44480  -0.44428  -0.44233
 Alpha  occ. eigenvalues --   -0.43915  -0.43837  -0.43704  -0.42752  -0.42630
 Alpha  occ. eigenvalues --   -0.42378  -0.41720  -0.41024  -0.39068  -0.38662
 Alpha  occ. eigenvalues --   -0.38429  -0.36870  -0.35600  -0.34893  -0.34470
 Alpha  occ. eigenvalues --   -0.34170  -0.32581  -0.31550  -0.31476  -0.26750
 Alpha  occ. eigenvalues --   -0.21936
 Alpha virt. eigenvalues --   -0.08812  -0.02021  -0.00769   0.00871   0.02000
 Alpha virt. eigenvalues --    0.02152   0.02402   0.03227   0.03989   0.04915
 Alpha virt. eigenvalues --    0.06360   0.06684   0.06993   0.07204   0.08195

 Mulliken charges:
               1
     1  Mg   0.426151
     2  C   -0.020684
     3  C   -0.096721
     4  C   -0.076044
     5  C   -0.076663
     6  N   -0.262187
     7  C    0.089931
     8  C   -0.003931
     9  C   -0.005135
    10  C    0.166322
    11  C   -0.050489
    12  C   -0.018900
    13  C    0.004619
    14  C    0.454141
    15  O   -0.504972
    16  O   -0.263209
    17  N   -0.293002
    18  C    0.117639
    19  C    0.007397
    20  C   -0.033000
    21  C    0.177785
    22  C   -0.043049
    23  C    0.323423
    24  O   -0.530562
    25  C   -0.028601
    26  N   -0.302316
    27  C    0.159725
    28  C    0.009414
    29  C    0.012771
    30  C    0.091749
    31  C   -0.048463
    32  C   -0.024504
    33  C   -0.051047
    34  N   -0.310509
    35  C    0.086004
    36  C    0.010356
    37  C   -0.071156
    38  C    0.097221
    39  C   -0.043099
    40  C    0.327432
    41  O   -0.546081
    42  C    0.066906
    43  C    0.494020
    44  O   -0.538384
    45  O   -0.262882
    46  C    0.073301
    47  C    0.102911
    48  C   -0.103509
    49  C   -0.014674
    50  C   -0.039996
    51  C   -0.020108
    52  C   -0.022883
    53  C   -0.025003
    54  C   -0.009977
    55  C   -0.063476
    56  C   -0.038096
    57  C   -0.041160
    58  C   -0.037506
    59  C    0.001131
    60  C   -0.063560
    61  C   -0.041223
    62  C   -0.049168
    63  C   -0.039650
    64  C    0.003198
    65  C   -0.069149
    66  C   -0.045860
    67  H    0.020387
    68  H    0.046610
    69  H    0.027383
    70  H    0.041980
    71  H    0.038606
    72  H    0.033667
    73  H    0.024737
    74  H    0.030746
    75  H    0.024626
    76  H    0.026376
    77  H    0.045487
    78  H    0.026093
    79  H    0.045230
    80  H    0.040718
    81  H    0.037217
    82  H    0.041982
    83  H    0.038112
    84  H    0.024314
    85  H    0.032687
    86  H    0.024017
    87  H    0.018771
    88  H    0.033502
    89  H    0.024609
    90  H    0.003779
    91  H    0.020124
    92  H    0.016199
    93  H    0.022928
    94  H    0.022936
    95  H    0.030947
    96  H    0.028282
    97  H    0.031105
    98  H    0.049729
    99  H    0.038187
   100  H    0.041897
   101  H    0.053428
   102  H    0.050552
   103  H    0.060835
   104  H    0.033512
   105  H    0.032939
   106  H    0.019141
   107  H    0.025802
   108  H    0.022870
   109  H    0.014698
   110  H    0.022114
   111  H    0.015492
   112  H    0.014589
   113  H    0.020017
   114  H    0.015614
   115  H    0.018443
   116  H    0.032169
   117  H    0.008403
   118  H    0.014893
   119  H    0.013451
   120  H    0.020307
   121  H    0.023581
   122  H    0.023986
   123  H    0.009829
   124  H    0.022649
   125  H    0.018028
   126  H    0.022944
   127  H    0.012370
   128  H    0.025387
   129  H    0.007750
   130  H    0.019356
   131  H    0.020158
   132  H    0.028900
   133  H    0.018921
   134  H    0.030276
   135  H    0.005136
   136  H    0.009848
   137  H    0.019150
   138  H    0.012227
   139  H    0.020284
   140  H    0.013023
 Sum of Mulliken charges =  -0.00000

 Dipole moment (field-independent basis, Debye):
    X=              8.7486    Y=              6.1965    Z=             -3.5477  Tot=             11.2925
 N-N= 4.479729637991D+03 E-N= 0.000000000000D+00  KE=-9.633331677858D+03
 Leave Link  601 at Sat Apr 30 23:15:43 2022, MaxMem=  6710886400 cpu:               0.8 elap:               0.0
 (Enter /sw/apps/gaussian-16.0/g16/l9999.exe)
 1\1\GINC-BP1-COMPUTE102\SP\RZINDO CIS\STO-3G\C55H74Mg1N4O6\OF15641\30-
 Apr-2022\0\\#p ZINDO=(nstates=5)\\step_951_chromophore_12 ZINDO\\0,1\M
 g,0,47.244,15.464,28.002\C,0,45.19,15.366,30.928\C,0,49.574,17.143,29.
 951\C,0,49.042,16.099,25.293\C,0,44.537,14.324,26.152\N,0,47.298,16.30
 1,30.161\C,0,46.439,15.978,31.186\C,0,46.907,16.588,32.544\C,0,48.262,
 17.367,32.1\C,0,48.385,16.857,30.665\C,0,48.034,18.94,32.138\C,0,47.17
 5,15.5,33.62\C,0,47.13,16.004,35.067\C,0,48.299,15.602,36.089\O,0,48.6

 Normal termination of Gaussian 16 at Sat Apr 30 23:15:43 2022.
