 Gaussian 16, Revision A.03,
 Gaussian 16:  ES64L-G16RevA.03 25-Dec-2016

 ------------------------------
 #p blyp/Def2SVP td=(nstates=5)
 ------------------------------

 --------------------------------------------------
 step_1251_chromophore_8 TDDFT with blyp functional
 --------------------------------------------------
 Symbolic Z-matrix:
 Charge =  0 Multiplicity = 1

                         Standard orientation:
 ---------------------------------------------------------------------
 Center     Atomic      Atomic             Coordinates (Angstroms)
 Number     Number       Type             X           Y           Z
 ---------------------------------------------------------------------
      1         12           0       -4.435053   -1.084747    0.206177
      2          6           0       -3.373520    2.310618    0.577069
      3          6           0       -4.528531   -0.594023   -3.275800
      4          6           0       -4.908401   -4.282892   -0.192216
      5          6           0       -3.842039   -1.430565    3.582918
      6          7           0       -3.926985    0.675981   -1.202757
      7          6           0       -3.585080    1.945277   -0.779659
      8          6           0       -3.532140    2.856205   -1.968064
      9          6           0       -4.176814    2.009955   -3.143918
     10          6           0       -4.311013    0.601285   -2.527786
     11          6           0       -5.682229    2.439099   -3.597111
     12          6           0       -2.110305    3.313446   -2.063212
     13          6           0       -1.803596    4.835823   -1.863793
     14          6           0       -0.543654    5.201284   -0.971021
     15          8           0       -0.465860    6.233655   -0.319395
     16          8           0        0.493532    4.395447   -1.260402
     17          7           0       -4.610505   -2.335505   -1.504972
     18          6           0       -4.568956   -1.939065   -2.848008
     19          6           0       -4.761008   -3.180974   -3.648375
     20          6           0       -4.927805   -4.299780   -2.760798
     21          6           0       -4.782920   -3.700718   -1.428208
     22          6           0       -4.976018   -3.049483   -5.116784
     23          6           0       -5.183010   -5.776755   -3.177918
     24          8           0       -5.275354   -6.020773   -4.379081
     25          6           0       -5.441429   -6.903852   -2.174127
     26          7           0       -4.162597   -2.655780    1.468089
     27          6           0       -4.818170   -3.807525    1.105524
     28          6           0       -5.207660   -4.594351    2.329592
     29          6           0       -4.678667   -3.735372    3.577035
     30          6           0       -4.141792   -2.550084    2.819430
     31          6           0       -6.749805   -4.875663    2.418163
     32          6           0       -3.701395   -4.515822    4.496650
     33          6           0       -3.805199   -4.052443    6.011539
     34          7           0       -3.688697    0.124433    1.835466
     35          6           0       -3.536262   -0.120519    3.132726
     36          6           0       -3.272920    1.068724    3.888048
     37          6           0       -3.288323    2.083221    2.927886
     38          6           0       -3.445440    1.434081    1.675468
     39          6           0       -3.141251    1.088733    5.445097
     40          6           0       -2.982205    3.462563    2.678667
     41          8           0       -2.603672    4.351439    3.483671
     42          6           0       -3.086262    3.660375    1.199025
     43          6           0       -4.100384    4.693550    0.857896
     44          8           0       -5.235745    4.515399    0.458752
     45          8           0       -3.506377    5.955217    1.042526
     46          6           0       -4.341449    7.097529    0.778314
     47          6           0        1.783206    4.831916   -0.649104
     48          6           0        2.503495    3.477602   -0.420449
     49          6           0        3.834218    3.206394   -0.631001
     50          6           0        4.831841    4.225028   -0.897710
     51          6           0        4.355646    1.760482   -0.494293
     52          6           0        4.410853    1.112642   -1.894316
     53          6           0        4.711468   -0.405588   -1.880089
     54          6           0        6.112284   -0.785224   -2.416548
     55          6           0        6.045205   -1.507435   -3.761204
     56          6           0        6.954140   -1.617778   -1.424223
     57          6           0        7.784070   -0.705018   -0.445410
     58          6           0        8.305465   -1.493574    0.811939
     59          6           0        9.885013   -1.848543    0.877132
     60          6           0       10.256254   -3.112906    1.777619
     61          6           0       10.808344   -0.591071    1.201165
     62          6           0       11.826035   -0.371956    0.119381
     63          6           0       13.300291   -0.377658    0.521622
     64          6           0       14.001195   -1.716295    0.606497
     65          6           0       14.779466   -2.147659   -0.627105
     66          6           0       14.833381   -1.778156    1.939675
     67          1           0       -4.594584   -0.300210   -4.325511
     68          1           0       -5.372819   -5.270220   -0.242553
     69          1           0       -3.909900   -1.635709    4.653862
     70          1           0       -4.202144    3.701066   -1.800488
     71          1           0       -3.503784    1.883557   -3.992437
     72          1           0       -5.999037    3.427120   -3.262950
     73          1           0       -6.344527    1.651621   -3.237506
     74          1           0       -5.772540    2.305443   -4.675094
     75          1           0       -1.899319    2.980054   -3.079865
     76          1           0       -1.410531    2.825777   -1.385071
     77          1           0       -2.646688    5.272289   -1.328083
     78          1           0       -1.775172    5.340087   -2.830037
     79          1           0       -4.522173   -3.810027   -5.751214
     80          1           0       -4.465674   -2.147445   -5.454657
     81          1           0       -6.044450   -3.027439   -5.334867
     82          1           0       -6.435857   -6.818309   -1.735481
     83          1           0       -4.698095   -6.873095   -1.376831
     84          1           0       -5.350700   -7.831064   -2.738670
     85          1           0       -4.663658   -5.538401    2.349008
     86          1           0       -5.557143   -3.399821    4.129777
     87          1           0       -7.038219   -4.957266    3.466629
     88          1           0       -6.982573   -5.762768    1.829414
     89          1           0       -7.245731   -4.020269    1.958134
     90          1           0       -2.729281   -4.186908    4.132013
     91          1           0       -3.724588   -5.603535    4.427104
     92          1           0       -3.607811   -4.888370    6.681532
     93          1           0       -4.801957   -3.685442    6.258952
     94          1           0       -3.049400   -3.298755    6.229513
     95          1           0       -2.189508    1.553858    5.702923
     96          1           0       -2.989327    0.052152    5.747448
     97          1           0       -3.950301    1.731193    5.793488
     98          1           0       -2.090298    3.956095    0.869805
     99          1           0       -4.411739    7.777119    1.627751
    100          1           0       -5.328994    6.848583    0.390143
    101          1           0       -3.853322    7.647212   -0.025621
    102          1           0        1.695437    5.412812    0.268547
    103          1           0        2.375804    5.190230   -1.490640
    104          1           0        1.821490    2.662224   -0.175676
    105          1           0        5.150188    4.072470   -1.928880
    106          1           0        5.676097    3.951430   -0.263989
    107          1           0        4.561237    5.266643   -0.724514
    108          1           0        3.658341    1.125450    0.053158
    109          1           0        5.338330    1.665762   -0.033624
    110          1           0        5.152546    1.604734   -2.523033
    111          1           0        3.447291    1.277968   -2.377303
    112          1           0        3.900016   -0.905950   -2.408928
    113          1           0        4.670071   -0.711162   -0.834013
    114          1           0        6.648269    0.144553   -2.605082
    115          1           0        6.467432   -2.510178   -3.687826
    116          1           0        6.577882   -1.086296   -4.613852
    117          1           0        4.985497   -1.519169   -4.015631
    118          1           0        7.727769   -2.191107   -1.935005
    119          1           0        6.319692   -2.278050   -0.833852
    120          1           0        7.093412    0.067747   -0.109061
    121          1           0        8.642364   -0.284788   -0.969696
    122          1           0        7.770601   -2.441064    0.881586
    123          1           0        8.079907   -0.969580    1.740815
    124          1           0       10.087660   -2.189876   -0.137197
    125          1           0        9.390465   -3.450090    2.347482
    126          1           0       10.958022   -2.898313    2.584017
    127          1           0       10.696645   -3.951946    1.238914
    128          1           0       11.196066   -0.679790    2.216056
    129          1           0       10.203871    0.302488    1.359352
    130          1           0       11.478195    0.565991   -0.312490
    131          1           0       11.825513   -0.994193   -0.774849
    132          1           0       13.375106    0.050679    1.521194
    133          1           0       13.885961    0.235173   -0.164472
    134          1           0       13.195290   -2.447010    0.539793
    135          1           0       14.273876   -3.028879   -1.022835
    136          1           0       15.816208   -2.440535   -0.464472
    137          1           0       14.671739   -1.322235   -1.330529
    138          1           0       15.016023   -0.785162    2.348068
    139          1           0       15.827688   -2.200370    1.791275
    140          1           0       14.276443   -2.381285    2.656171
 ---------------------------------------------------------------------

 SCF Done:  E(RB-LYP) =  -3007.36727403     A.U. after   21 cycles

 Excitation energies and oscillator strengths:

 Excited State   1:      Singlet-A      1.8026 eV  687.81 nm  f=0.3189  <S**2>=0.000
     245 -> 248        0.19615
     246 -> 247        0.68894
     246 <- 247       -0.14979
 This state for optimization and/or second-order correction.
 Total Energy, E(TD-HF/TD-DFT) =  -3007.30103008
 Copying the excited state density for this state as the 1-particle RhoCI density.

 Excited State   2:      Singlet-A      1.8746 eV  661.38 nm  f=0.0030  <S**2>=0.000
     244 -> 247        0.65693
     245 -> 247       -0.25068

 Excited State   3:      Singlet-A      1.9951 eV  621.44 nm  f=0.0425  <S**2>=0.000
     243 -> 247       -0.30967
     244 -> 247        0.23551
     245 -> 247        0.53872
     246 -> 248       -0.21574

 Excited State   4:      Singlet-A      2.0292 eV  611.01 nm  f=0.0127  <S**2>=0.000
     243 -> 247        0.63483
     245 -> 247        0.26313
     246 -> 248       -0.11757

 Excited State   5:      Singlet-A      2.1525 eV  576.01 nm  f=0.0002  <S**2>=0.000
     242 -> 247        0.70686

 The electronic state is 1-A.
 Alpha  occ. eigenvalues --  -46.28042 -18.82841 -18.81420 -18.77642 -18.76533
 Alpha  occ. eigenvalues --  -18.75814 -18.75147 -14.03198 -14.02978 -14.01103
 Alpha  occ. eigenvalues --  -14.00492 -10.04338 -10.04091 -10.00586  -9.99262
 Alpha  occ. eigenvalues --   -9.98334  -9.96861  -9.96779  -9.96515  -9.96440
 Alpha  occ. eigenvalues --   -9.96103  -9.95904  -9.95831  -9.94857  -9.94740
 Alpha  occ. eigenvalues --   -9.94271  -9.94171  -9.94104  -9.93920  -9.93723
 Alpha  occ. eigenvalues --   -9.93714  -9.93665  -9.93620  -9.93501  -9.93456
 Alpha  occ. eigenvalues --   -9.93378  -9.93114  -9.93087  -9.92948  -9.92933
 Alpha  occ. eigenvalues --   -9.92771  -9.92761  -9.92662  -9.92487  -9.92474
 Alpha  occ. eigenvalues --   -9.92318  -9.92268  -9.92241  -9.92155  -9.91739
 Alpha  occ. eigenvalues --   -9.91664  -9.91635  -9.91540  -9.91474  -9.91359
 Alpha  occ. eigenvalues --   -9.91278  -9.91253  -9.91245  -9.91131  -9.90956
 Alpha  occ. eigenvalues --   -9.90918  -9.90790  -9.90766  -9.90466  -9.90452
 Alpha  occ. eigenvalues --   -9.90392  -2.92546  -1.72936  -1.72436  -1.72271
 Alpha  occ. eigenvalues --   -0.98465  -0.97235  -0.91397  -0.90257  -0.89730
 Alpha  occ. eigenvalues --   -0.89368  -0.87359  -0.86202  -0.85003  -0.84019
 Alpha  occ. eigenvalues --   -0.76527  -0.73851  -0.72808  -0.72707  -0.72585
 Alpha  occ. eigenvalues --   -0.72229  -0.71875  -0.70699  -0.70109  -0.69714
 Alpha  occ. eigenvalues --   -0.69016  -0.68698  -0.68233  -0.67585  -0.67248
 Alpha  occ. eigenvalues --   -0.66335  -0.65888  -0.65443  -0.65033  -0.64539
 Alpha  occ. eigenvalues --   -0.64090  -0.62435  -0.62103  -0.61684  -0.60528
 Alpha  occ. eigenvalues --   -0.60376  -0.60296  -0.59822  -0.59383  -0.58790
 Alpha  occ. eigenvalues --   -0.58021  -0.57424  -0.56922  -0.55437  -0.55176
 Alpha  occ. eigenvalues --   -0.54282  -0.53520  -0.52361  -0.52321  -0.51892
 Alpha  occ. eigenvalues --   -0.51530  -0.51281  -0.50901  -0.50351  -0.49689
 Alpha  occ. eigenvalues --   -0.49605  -0.49213  -0.48411  -0.48255  -0.46431
 Alpha  occ. eigenvalues --   -0.46411  -0.45887  -0.45649  -0.45492  -0.45233
 Alpha  occ. eigenvalues --   -0.44494  -0.44070  -0.42931  -0.42801  -0.42409
 Alpha  occ. eigenvalues --   -0.41966  -0.41644  -0.41481  -0.41229  -0.40819
 Alpha  occ. eigenvalues --   -0.40618  -0.40566  -0.40402  -0.40149  -0.39819
 Alpha  occ. eigenvalues --   -0.39722  -0.39390  -0.39374  -0.39303  -0.39172
 Alpha  occ. eigenvalues --   -0.38987  -0.38831  -0.38502  -0.38412  -0.38234
 Alpha  occ. eigenvalues --   -0.38146  -0.37920  -0.37767  -0.37468  -0.37393
 Alpha  occ. eigenvalues --   -0.37224  -0.37120  -0.36446  -0.36337  -0.36263
 Alpha  occ. eigenvalues --   -0.36180  -0.36030  -0.35752  -0.35751  -0.35657
 Alpha  occ. eigenvalues --   -0.35414  -0.35244  -0.35094  -0.34748  -0.34562
 Alpha  occ. eigenvalues --   -0.34470  -0.34400  -0.34140  -0.33882  -0.33740
 Alpha  occ. eigenvalues --   -0.33481  -0.33469  -0.33271  -0.33237  -0.33120
 Alpha  occ. eigenvalues --   -0.33034  -0.32766  -0.32606  -0.32375  -0.32205
 Alpha  occ. eigenvalues --   -0.31969  -0.31892  -0.31673  -0.31456  -0.31404
 Alpha  occ. eigenvalues --   -0.31217  -0.31115  -0.30894  -0.30724  -0.30597
 Alpha  occ. eigenvalues --   -0.30419  -0.30340  -0.30144  -0.30082  -0.29754
 Alpha  occ. eigenvalues --   -0.29689  -0.29294  -0.29139  -0.28985  -0.28946
 Alpha  occ. eigenvalues --   -0.28808  -0.28724  -0.28191  -0.28038  -0.27898
 Alpha  occ. eigenvalues --   -0.27298  -0.27200  -0.26918  -0.26517  -0.26466
 Alpha  occ. eigenvalues --   -0.26296  -0.26262  -0.25544  -0.25338  -0.25291
 Alpha  occ. eigenvalues --   -0.25097  -0.25014  -0.24422  -0.23960  -0.23339
 Alpha  occ. eigenvalues --   -0.23151  -0.22912  -0.22046  -0.21838  -0.20759
 Alpha  occ. eigenvalues --   -0.20180  -0.19490  -0.18943  -0.18377  -0.17352
 Alpha  occ. eigenvalues --   -0.15839
 Alpha virt. eigenvalues --   -0.11580  -0.07114  -0.06707  -0.05082  -0.03710
 Alpha virt. eigenvalues --   -0.03219  -0.02517  -0.01899  -0.01451  -0.00114
 Alpha virt. eigenvalues --    0.01649   0.02075   0.02558   0.02672   0.02975

 Mulliken charges:
               1
     1  Mg   0.662834
     2  C    0.033538
     3  C   -0.026655
     4  C   -0.048841
     5  C   -0.103316
     6  N   -0.201906
     7  C   -0.111848
     8  C    0.022405
     9  C   -0.011486
    10  C   -0.045300
    11  C    0.116709
    12  C    0.146427
    13  C    0.087637
    14  C    0.077445
    15  O   -0.187897
    16  O   -0.264935
    17  N   -0.308162
    18  C    0.167078
    19  C   -0.135168
    20  C    0.044668
    21  C    0.133072
    22  C    0.169606
    23  C   -0.075713
    24  O   -0.165909
    25  C    0.131097
    26  N   -0.256164
    27  C    0.018886
    28  C    0.018648
    29  C    0.003170
    30  C    0.025924
    31  C    0.121194
    32  C    0.098414
    33  C    0.055191
    34  N   -0.189987
    35  C    0.127979
    36  C   -0.203099
    37  C    0.084780
    38  C    0.032828
    39  C    0.196881
    40  C   -0.076109
    41  O   -0.154965
    42  C    0.101564
    43  C    0.129064
    44  O   -0.162741
    45  O   -0.266507
    46  C    0.206745
    47  C    0.324313
    48  C   -0.131892
    49  C   -0.149460
    50  C    0.175965
    51  C    0.115832
    52  C    0.033243
    53  C    0.142091
    54  C   -0.064606
    55  C    0.117577
    56  C    0.077334
    57  C    0.057175
    58  C    0.091148
    59  C   -0.085353
    60  C    0.089290
    61  C    0.139787
    62  C    0.071031
    63  C    0.117210
    64  C   -0.119222
    65  C    0.120111
    66  C    0.104814
    67  H   -0.059965
    68  H   -0.082371
    69  H   -0.075246
    70  H   -0.019115
    71  H   -0.020393
    72  H    0.017207
    73  H   -0.003514
    74  H   -0.008689
    75  H   -0.041763
    76  H    0.004928
    77  H   -0.009943
    78  H    0.012201
    79  H   -0.001575
    80  H   -0.021431
    81  H    0.013009
    82  H    0.024397
    83  H    0.009837
    84  H   -0.002175
    85  H   -0.027100
    86  H   -0.025669
    87  H    0.000119
    88  H    0.000070
    89  H   -0.009188
    90  H   -0.018039
    91  H   -0.007936
    92  H   -0.014562
    93  H   -0.005007
    94  H    0.007590
    95  H   -0.002103
    96  H   -0.011520
    97  H    0.023686
    98  H    0.018280
    99  H    0.021323
   100  H    0.011073
   101  H    0.005698
   102  H    0.044182
   103  H    0.001023
   104  H   -0.037501
   105  H   -0.005007
   106  H   -0.008901
   107  H   -0.001263
   108  H   -0.025640
   109  H   -0.018925
   110  H   -0.031107
   111  H   -0.034406
   112  H   -0.027418
   113  H   -0.040777
   114  H   -0.040044
   115  H   -0.020944
   116  H   -0.019522
   117  H   -0.028016
   118  H   -0.030981
   119  H   -0.023570
   120  H   -0.032584
   121  H   -0.019506
   122  H   -0.039998
   123  H   -0.035845
   124  H   -0.030857
   125  H   -0.024453
   126  H   -0.023744
   127  H   -0.005737
   128  H   -0.037348
   129  H   -0.042405
   130  H   -0.041561
   131  H   -0.034898
   132  H   -0.043441
   133  H   -0.043362
   134  H   -0.037303
   135  H   -0.021294
   136  H   -0.014630
   137  H   -0.025979
   138  H   -0.012243
   139  H   -0.024746
   140  H   -0.004826
 Sum of Mulliken charges =  -0.00000

 Dipole moment (field-independent basis, Debye):
    X=             -0.0112    Y=             -2.3268    Z=              0.1344  Tot=              2.3307
 Quadrupole moment (field-independent basis, Debye-Ang):
   XX=           -385.3021   YY=           -419.8275   ZZ=           -408.1063
   XY=              9.7633   XZ=            -13.3446   YZ=            -49.0957

 Normal termination of Gaussian 16 at Wed Apr 27 20:09:58 2022.
