 Gaussian 16, Revision A.03,
 Gaussian 16:  ES64L-G16RevA.03 25-Dec-2016

 -----------------------------------
 #p cam-b3lyp/Def2SVP td=(nstates=5)
 -----------------------------------

 -------------------------------------------------------
 step_1251_chromophore_8 TDDFT with cam-b3lyp functional
 -------------------------------------------------------
 Symbolic Z-matrix:
 Charge =  0 Multiplicity = 1

                         Standard orientation:
 ---------------------------------------------------------------------
 Center     Atomic      Atomic             Coordinates (Angstroms)
 Number     Number       Type             X           Y           Z
 ---------------------------------------------------------------------
      1         12           0       -4.435053   -1.084747    0.206177
      2          6           0       -3.373520    2.310618    0.577069
      3          6           0       -4.528531   -0.594023   -3.275800
      4          6           0       -4.908401   -4.282892   -0.192216
      5          6           0       -3.842039   -1.430565    3.582918
      6          7           0       -3.926985    0.675981   -1.202757
      7          6           0       -3.585080    1.945277   -0.779659
      8          6           0       -3.532140    2.856205   -1.968064
      9          6           0       -4.176814    2.009955   -3.143918
     10          6           0       -4.311013    0.601285   -2.527786
     11          6           0       -5.682229    2.439099   -3.597111
     12          6           0       -2.110305    3.313446   -2.063212
     13          6           0       -1.803596    4.835823   -1.863793
     14          6           0       -0.543654    5.201284   -0.971021
     15          8           0       -0.465860    6.233655   -0.319395
     16          8           0        0.493532    4.395447   -1.260402
     17          7           0       -4.610505   -2.335505   -1.504972
     18          6           0       -4.568956   -1.939065   -2.848008
     19          6           0       -4.761008   -3.180974   -3.648375
     20          6           0       -4.927805   -4.299780   -2.760798
     21          6           0       -4.782920   -3.700718   -1.428208
     22          6           0       -4.976018   -3.049483   -5.116784
     23          6           0       -5.183010   -5.776755   -3.177918
     24          8           0       -5.275354   -6.020773   -4.379081
     25          6           0       -5.441429   -6.903852   -2.174127
     26          7           0       -4.162597   -2.655780    1.468089
     27          6           0       -4.818170   -3.807525    1.105524
     28          6           0       -5.207660   -4.594351    2.329592
     29          6           0       -4.678667   -3.735372    3.577035
     30          6           0       -4.141792   -2.550084    2.819430
     31          6           0       -6.749805   -4.875663    2.418163
     32          6           0       -3.701395   -4.515822    4.496650
     33          6           0       -3.805199   -4.052443    6.011539
     34          7           0       -3.688697    0.124433    1.835466
     35          6           0       -3.536262   -0.120519    3.132726
     36          6           0       -3.272920    1.068724    3.888048
     37          6           0       -3.288323    2.083221    2.927886
     38          6           0       -3.445440    1.434081    1.675468
     39          6           0       -3.141251    1.088733    5.445097
     40          6           0       -2.982205    3.462563    2.678667
     41          8           0       -2.603672    4.351439    3.483671
     42          6           0       -3.086262    3.660375    1.199025
     43          6           0       -4.100384    4.693550    0.857896
     44          8           0       -5.235745    4.515399    0.458752
     45          8           0       -3.506377    5.955217    1.042526
     46          6           0       -4.341449    7.097529    0.778314
     47          6           0        1.783206    4.831916   -0.649104
     48          6           0        2.503495    3.477602   -0.420449
     49          6           0        3.834218    3.206394   -0.631001
     50          6           0        4.831841    4.225028   -0.897710
     51          6           0        4.355646    1.760482   -0.494293
     52          6           0        4.410853    1.112642   -1.894316
     53          6           0        4.711468   -0.405588   -1.880089
     54          6           0        6.112284   -0.785224   -2.416548
     55          6           0        6.045205   -1.507435   -3.761204
     56          6           0        6.954140   -1.617778   -1.424223
     57          6           0        7.784070   -0.705018   -0.445410
     58          6           0        8.305465   -1.493574    0.811939
     59          6           0        9.885013   -1.848543    0.877132
     60          6           0       10.256254   -3.112906    1.777619
     61          6           0       10.808344   -0.591071    1.201165
     62          6           0       11.826035   -0.371956    0.119381
     63          6           0       13.300291   -0.377658    0.521622
     64          6           0       14.001195   -1.716295    0.606497
     65          6           0       14.779466   -2.147659   -0.627105
     66          6           0       14.833381   -1.778156    1.939675
     67          1           0       -4.594584   -0.300210   -4.325511
     68          1           0       -5.372819   -5.270220   -0.242553
     69          1           0       -3.909900   -1.635709    4.653862
     70          1           0       -4.202144    3.701066   -1.800488
     71          1           0       -3.503784    1.883557   -3.992437
     72          1           0       -5.999037    3.427120   -3.262950
     73          1           0       -6.344527    1.651621   -3.237506
     74          1           0       -5.772540    2.305443   -4.675094
     75          1           0       -1.899319    2.980054   -3.079865
     76          1           0       -1.410531    2.825777   -1.385071
     77          1           0       -2.646688    5.272289   -1.328083
     78          1           0       -1.775172    5.340087   -2.830037
     79          1           0       -4.522173   -3.810027   -5.751214
     80          1           0       -4.465674   -2.147445   -5.454657
     81          1           0       -6.044450   -3.027439   -5.334867
     82          1           0       -6.435857   -6.818309   -1.735481
     83          1           0       -4.698095   -6.873095   -1.376831
     84          1           0       -5.350700   -7.831064   -2.738670
     85          1           0       -4.663658   -5.538401    2.349008
     86          1           0       -5.557143   -3.399821    4.129777
     87          1           0       -7.038219   -4.957266    3.466629
     88          1           0       -6.982573   -5.762768    1.829414
     89          1           0       -7.245731   -4.020269    1.958134
     90          1           0       -2.729281   -4.186908    4.132013
     91          1           0       -3.724588   -5.603535    4.427104
     92          1           0       -3.607811   -4.888370    6.681532
     93          1           0       -4.801957   -3.685442    6.258952
     94          1           0       -3.049400   -3.298755    6.229513
     95          1           0       -2.189508    1.553858    5.702923
     96          1           0       -2.989327    0.052152    5.747448
     97          1           0       -3.950301    1.731193    5.793488
     98          1           0       -2.090298    3.956095    0.869805
     99          1           0       -4.411739    7.777119    1.627751
    100          1           0       -5.328994    6.848583    0.390143
    101          1           0       -3.853322    7.647212   -0.025621
    102          1           0        1.695437    5.412812    0.268547
    103          1           0        2.375804    5.190230   -1.490640
    104          1           0        1.821490    2.662224   -0.175676
    105          1           0        5.150188    4.072470   -1.928880
    106          1           0        5.676097    3.951430   -0.263989
    107          1           0        4.561237    5.266643   -0.724514
    108          1           0        3.658341    1.125450    0.053158
    109          1           0        5.338330    1.665762   -0.033624
    110          1           0        5.152546    1.604734   -2.523033
    111          1           0        3.447291    1.277968   -2.377303
    112          1           0        3.900016   -0.905950   -2.408928
    113          1           0        4.670071   -0.711162   -0.834013
    114          1           0        6.648269    0.144553   -2.605082
    115          1           0        6.467432   -2.510178   -3.687826
    116          1           0        6.577882   -1.086296   -4.613852
    117          1           0        4.985497   -1.519169   -4.015631
    118          1           0        7.727769   -2.191107   -1.935005
    119          1           0        6.319692   -2.278050   -0.833852
    120          1           0        7.093412    0.067747   -0.109061
    121          1           0        8.642364   -0.284788   -0.969696
    122          1           0        7.770601   -2.441064    0.881586
    123          1           0        8.079907   -0.969580    1.740815
    124          1           0       10.087660   -2.189876   -0.137197
    125          1           0        9.390465   -3.450090    2.347482
    126          1           0       10.958022   -2.898313    2.584017
    127          1           0       10.696645   -3.951946    1.238914
    128          1           0       11.196066   -0.679790    2.216056
    129          1           0       10.203871    0.302488    1.359352
    130          1           0       11.478195    0.565991   -0.312490
    131          1           0       11.825513   -0.994193   -0.774849
    132          1           0       13.375106    0.050679    1.521194
    133          1           0       13.885961    0.235173   -0.164472
    134          1           0       13.195290   -2.447010    0.539793
    135          1           0       14.273876   -3.028879   -1.022835
    136          1           0       15.816208   -2.440535   -0.464472
    137          1           0       14.671739   -1.322235   -1.330529
    138          1           0       15.016023   -0.785162    2.348068
    139          1           0       15.827688   -2.200370    1.791275
    140          1           0       14.276443   -2.381285    2.656171
 ---------------------------------------------------------------------

 SCF Done:  E(RCAM-B3LYP) =  -3007.15515898     A.U. after   17 cycles

 Excitation energies and oscillator strengths:

 Excited State   1:      Singlet-A      1.7112 eV  724.52 nm  f=0.3967  <S**2>=0.000
     245 -> 248        0.18473
     246 -> 247        0.68445
     245 <- 248        0.10759
 This state for optimization and/or second-order correction.
 Total Energy, E(TD-HF/TD-DFT) =  -3007.09227175
 Copying the excited state density for this state as the 1-particle RhoCI density.

 Excited State   2:      Singlet-A      2.2261 eV  556.96 nm  f=0.0775  <S**2>=0.000
     245 -> 247        0.62812
     246 -> 248       -0.31187

 Excited State   3:      Singlet-A      3.3473 eV  370.40 nm  f=0.0982  <S**2>=0.000
     241 -> 247       -0.32481
     241 -> 249        0.22456
     241 -> 251        0.14934
     242 -> 247        0.37368
     245 -> 247        0.13032
     246 -> 248        0.34604

 Excited State   4:      Singlet-A      3.3534 eV  369.73 nm  f=0.0279  <S**2>=0.000
     241 -> 247        0.20965
     241 -> 249       -0.12471
     243 -> 247        0.60332
     246 -> 248        0.17874

 Excited State   5:      Singlet-A      3.4471 eV  359.68 nm  f=0.3230  <S**2>=0.000
     241 -> 247        0.30394
     241 -> 249       -0.16193
     243 -> 247       -0.32290
     245 -> 247        0.22166
     246 -> 248        0.42920
     246 -> 250       -0.12456

 The electronic state is 1-A.
 Alpha  occ. eigenvalues --  -46.89705 -19.25628 -19.24292 -19.20861 -19.19384
 Alpha  occ. eigenvalues --  -19.19223 -19.18258 -14.42223 -14.41756 -14.39695
 Alpha  occ. eigenvalues --  -14.38831 -10.39969 -10.39297 -10.35974 -10.34523
 Alpha  occ. eigenvalues --  -10.32371 -10.31495 -10.31175 -10.31159 -10.30685
 Alpha  occ. eigenvalues --  -10.30536 -10.30302 -10.30103 -10.29018 -10.28867
 Alpha  occ. eigenvalues --  -10.28836 -10.28490 -10.28389 -10.28073 -10.27974
 Alpha  occ. eigenvalues --  -10.27919 -10.27748 -10.27724 -10.27699 -10.27580
 Alpha  occ. eigenvalues --  -10.27460 -10.27095 -10.27066 -10.26866 -10.26852
 Alpha  occ. eigenvalues --  -10.26750 -10.26581 -10.26406 -10.26327 -10.26312
 Alpha  occ. eigenvalues --  -10.26119 -10.26072 -10.26023 -10.25789 -10.25601
 Alpha  occ. eigenvalues --  -10.25484 -10.25395 -10.25360 -10.25095 -10.25090
 Alpha  occ. eigenvalues --  -10.24917 -10.24902 -10.24892 -10.24874 -10.24783
 Alpha  occ. eigenvalues --  -10.24582 -10.24373 -10.24359 -10.24010 -10.24010
 Alpha  occ. eigenvalues --  -10.24001  -3.18103  -1.92970  -1.92567  -1.92403
 Alpha  occ. eigenvalues --   -1.16817  -1.15822  -1.09964  -1.08195  -1.07604
 Alpha  occ. eigenvalues --   -1.07497  -1.04974  -1.03837  -1.02726  -1.01666
 Alpha  occ. eigenvalues --   -0.93728  -0.90699  -0.89585  -0.89479  -0.89317
 Alpha  occ. eigenvalues --   -0.88915  -0.88518  -0.87307  -0.86623  -0.86197
 Alpha  occ. eigenvalues --   -0.85676  -0.85023  -0.84491  -0.83762  -0.83375
 Alpha  occ. eigenvalues --   -0.82384  -0.82092  -0.81436  -0.80849  -0.80402
 Alpha  occ. eigenvalues --   -0.79900  -0.78080  -0.77649  -0.77327  -0.75866
 Alpha  occ. eigenvalues --   -0.75691  -0.75667  -0.75127  -0.74659  -0.74007
 Alpha  occ. eigenvalues --   -0.73050  -0.72366  -0.71850  -0.70239  -0.69779
 Alpha  occ. eigenvalues --   -0.68903  -0.68047  -0.66888  -0.66704  -0.65988
 Alpha  occ. eigenvalues --   -0.65784  -0.65377  -0.65172  -0.64326  -0.63572
 Alpha  occ. eigenvalues --   -0.63413  -0.63159  -0.62168  -0.62117  -0.60103
 Alpha  occ. eigenvalues --   -0.59987  -0.59532  -0.59157  -0.59002  -0.58671
 Alpha  occ. eigenvalues --   -0.57957  -0.57349  -0.56341  -0.55944  -0.55507
 Alpha  occ. eigenvalues --   -0.54993  -0.54704  -0.54543  -0.53955  -0.53790
 Alpha  occ. eigenvalues --   -0.53438  -0.53331  -0.52998  -0.52925  -0.52590
 Alpha  occ. eigenvalues --   -0.52509  -0.52180  -0.52125  -0.51994  -0.51699
 Alpha  occ. eigenvalues --   -0.51579  -0.51333  -0.51000  -0.50785  -0.50700
 Alpha  occ. eigenvalues --   -0.50499  -0.50052  -0.49994  -0.49906  -0.49620
 Alpha  occ. eigenvalues --   -0.49581  -0.49352  -0.49180  -0.48496  -0.48382
 Alpha  occ. eigenvalues --   -0.48281  -0.48186  -0.48098  -0.47838  -0.47686
 Alpha  occ. eigenvalues --   -0.47680  -0.47493  -0.47081  -0.46889  -0.46651
 Alpha  occ. eigenvalues --   -0.46388  -0.46366  -0.46133  -0.45817  -0.45516
 Alpha  occ. eigenvalues --   -0.45410  -0.45067  -0.45023  -0.44819  -0.44785
 Alpha  occ. eigenvalues --   -0.44682  -0.44498  -0.44121  -0.44012  -0.43689
 Alpha  occ. eigenvalues --   -0.43625  -0.43476  -0.43381  -0.43102  -0.43042
 Alpha  occ. eigenvalues --   -0.42604  -0.42570  -0.42457  -0.42403  -0.41904
 Alpha  occ. eigenvalues --   -0.41792  -0.41677  -0.41552  -0.41354  -0.41312
 Alpha  occ. eigenvalues --   -0.40895  -0.40785  -0.40369  -0.40316  -0.40093
 Alpha  occ. eigenvalues --   -0.39929  -0.39680  -0.39230  -0.38947  -0.38727
 Alpha  occ. eigenvalues --   -0.38230  -0.38007  -0.37704  -0.37664  -0.37238
 Alpha  occ. eigenvalues --   -0.36987  -0.36975  -0.36453  -0.36261  -0.36158
 Alpha  occ. eigenvalues --   -0.35896  -0.35856  -0.35493  -0.35242  -0.34200
 Alpha  occ. eigenvalues --   -0.33741  -0.33730  -0.33292  -0.31403  -0.31266
 Alpha  occ. eigenvalues --   -0.30716  -0.29950  -0.29617  -0.29092  -0.24200
 Alpha  occ. eigenvalues --   -0.21090
 Alpha virt. eigenvalues --   -0.08661  -0.02095  -0.00292   0.01302   0.01840
 Alpha virt. eigenvalues --    0.04416   0.05293   0.05582   0.05714   0.07016
 Alpha virt. eigenvalues --    0.08039   0.08725   0.08851   0.09078   0.09293

 Mulliken charges:
               1
     1  Mg   0.794201
     2  C    0.010182
     3  C   -0.043714
     4  C   -0.068918
     5  C   -0.106489
     6  N   -0.266913
     7  C   -0.063300
     8  C   -0.030703
     9  C   -0.064699
    10  C   -0.024042
    11  C    0.061658
    12  C    0.089144
    13  C    0.029499
    14  C    0.150430
    15  O   -0.229127
    16  O   -0.327583
    17  N   -0.393656
    18  C    0.172044
    19  C   -0.135900
    20  C   -0.022763
    21  C    0.163639
    22  C    0.112592
    23  C    0.002757
    24  O   -0.204606
    25  C    0.050270
    26  N   -0.329174
    27  C    0.040831
    28  C   -0.040817
    29  C   -0.053669
    30  C    0.046896
    31  C    0.067706
    32  C    0.043312
    33  C   -0.008810
    34  N   -0.277143
    35  C    0.123542
    36  C   -0.197879
    37  C    0.014162
    38  C    0.061971
    39  C    0.151152
    40  C    0.021993
    41  O   -0.192744
    42  C    0.020952
    43  C    0.211881
    44  O   -0.199471
    45  O   -0.328057
    46  C    0.168553
    47  C    0.285738
    48  C   -0.143741
    49  C   -0.176017
    50  C    0.106839
    51  C    0.059826
    52  C   -0.014550
    53  C    0.082916
    54  C   -0.124606
    55  C    0.059996
    56  C    0.027704
    57  C    0.007894
    58  C    0.043282
    59  C   -0.137291
    60  C    0.032680
    61  C    0.080986
    62  C    0.014703
    63  C    0.060615
    64  C   -0.176305
    65  C    0.061141
    66  C    0.045994
    67  H   -0.023756
    68  H   -0.050540
    69  H   -0.041482
    70  H    0.015669
    71  H    0.013687
    72  H    0.040951
    73  H    0.022235
    74  H    0.015247
    75  H   -0.009062
    76  H    0.036719
    77  H    0.016029
    78  H    0.043891
    79  H    0.029424
    80  H    0.003821
    81  H    0.040682
    82  H    0.051044
    83  H    0.037139
    84  H    0.033579
    85  H    0.007847
    86  H    0.008637
    87  H    0.024375
    88  H    0.022096
    89  H    0.014872
    90  H    0.012646
    91  H    0.019502
    92  H    0.011651
    93  H    0.017153
    94  H    0.028398
    95  H    0.025032
    96  H    0.011087
    97  H    0.048198
    98  H    0.058437
    99  H    0.042768
   100  H    0.037034
   101  H    0.026243
   102  H    0.075660
   103  H    0.029406
   104  H   -0.003777
   105  H    0.019792
   106  H    0.016318
   107  H    0.024005
   108  H    0.005632
   109  H    0.007108
   110  H   -0.005559
   111  H   -0.003369
   112  H    0.002945
   113  H   -0.011678
   114  H   -0.007154
   115  H    0.003654
   116  H    0.005461
   117  H   -0.003970
   118  H   -0.002959
   119  H    0.003472
   120  H   -0.009444
   121  H    0.005309
   122  H   -0.011513
   123  H   -0.007674
   124  H   -0.001622
   125  H    0.000499
   126  H   -0.001159
   127  H    0.017002
   128  H   -0.008436
   129  H   -0.011366
   130  H   -0.010512
   131  H   -0.008467
   132  H   -0.014258
   133  H   -0.013197
   134  H   -0.006661
   135  H    0.002584
   136  H    0.009715
   137  H   -0.002280
   138  H    0.011332
   139  H   -0.000448
   140  H    0.017362
 Sum of Mulliken charges =  -0.00000

 Dipole moment (field-independent basis, Debye):
    X=             -0.3610    Y=             -2.9444    Z=             -0.3305  Tot=              2.9848
 Quadrupole moment (field-independent basis, Debye-Ang):
   XX=           -382.1835   YY=           -416.6862   ZZ=           -406.2684
   XY=             12.1113   XZ=            -11.2994   YZ=            -50.0660

 Normal termination of Gaussian 16 at Wed Apr 27 19:04:05 2022.
