 Gaussian 16, Revision A.03,
 Gaussian 16:  ES64L-G16RevA.03 25-Dec-2016

 ---------------------------------
 #p PBE1PBE/Def2SVP td=(nstates=5)
 ---------------------------------

 -----------------------------------------------------
 step_1251_chromophore_8 TDDFT with PBE1PBE functional
 -----------------------------------------------------
 Symbolic Z-matrix:
 Charge =  0 Multiplicity = 1

                         Standard orientation:
 ---------------------------------------------------------------------
 Center     Atomic      Atomic             Coordinates (Angstroms)
 Number     Number       Type             X           Y           Z
 ---------------------------------------------------------------------
      1         12           0       -4.435053   -1.084747    0.206177
      2          6           0       -3.373520    2.310618    0.577069
      3          6           0       -4.528531   -0.594023   -3.275800
      4          6           0       -4.908401   -4.282892   -0.192216
      5          6           0       -3.842039   -1.430565    3.582918
      6          7           0       -3.926985    0.675981   -1.202757
      7          6           0       -3.585080    1.945277   -0.779659
      8          6           0       -3.532140    2.856205   -1.968064
      9          6           0       -4.176814    2.009955   -3.143918
     10          6           0       -4.311013    0.601285   -2.527786
     11          6           0       -5.682229    2.439099   -3.597111
     12          6           0       -2.110305    3.313446   -2.063212
     13          6           0       -1.803596    4.835823   -1.863793
     14          6           0       -0.543654    5.201284   -0.971021
     15          8           0       -0.465860    6.233655   -0.319395
     16          8           0        0.493532    4.395447   -1.260402
     17          7           0       -4.610505   -2.335505   -1.504972
     18          6           0       -4.568956   -1.939065   -2.848008
     19          6           0       -4.761008   -3.180974   -3.648375
     20          6           0       -4.927805   -4.299780   -2.760798
     21          6           0       -4.782920   -3.700718   -1.428208
     22          6           0       -4.976018   -3.049483   -5.116784
     23          6           0       -5.183010   -5.776755   -3.177918
     24          8           0       -5.275354   -6.020773   -4.379081
     25          6           0       -5.441429   -6.903852   -2.174127
     26          7           0       -4.162597   -2.655780    1.468089
     27          6           0       -4.818170   -3.807525    1.105524
     28          6           0       -5.207660   -4.594351    2.329592
     29          6           0       -4.678667   -3.735372    3.577035
     30          6           0       -4.141792   -2.550084    2.819430
     31          6           0       -6.749805   -4.875663    2.418163
     32          6           0       -3.701395   -4.515822    4.496650
     33          6           0       -3.805199   -4.052443    6.011539
     34          7           0       -3.688697    0.124433    1.835466
     35          6           0       -3.536262   -0.120519    3.132726
     36          6           0       -3.272920    1.068724    3.888048
     37          6           0       -3.288323    2.083221    2.927886
     38          6           0       -3.445440    1.434081    1.675468
     39          6           0       -3.141251    1.088733    5.445097
     40          6           0       -2.982205    3.462563    2.678667
     41          8           0       -2.603672    4.351439    3.483671
     42          6           0       -3.086262    3.660375    1.199025
     43          6           0       -4.100384    4.693550    0.857896
     44          8           0       -5.235745    4.515399    0.458752
     45          8           0       -3.506377    5.955217    1.042526
     46          6           0       -4.341449    7.097529    0.778314
     47          6           0        1.783206    4.831916   -0.649104
     48          6           0        2.503495    3.477602   -0.420449
     49          6           0        3.834218    3.206394   -0.631001
     50          6           0        4.831841    4.225028   -0.897710
     51          6           0        4.355646    1.760482   -0.494293
     52          6           0        4.410853    1.112642   -1.894316
     53          6           0        4.711468   -0.405588   -1.880089
     54          6           0        6.112284   -0.785224   -2.416548
     55          6           0        6.045205   -1.507435   -3.761204
     56          6           0        6.954140   -1.617778   -1.424223
     57          6           0        7.784070   -0.705018   -0.445410
     58          6           0        8.305465   -1.493574    0.811939
     59          6           0        9.885013   -1.848543    0.877132
     60          6           0       10.256254   -3.112906    1.777619
     61          6           0       10.808344   -0.591071    1.201165
     62          6           0       11.826035   -0.371956    0.119381
     63          6           0       13.300291   -0.377658    0.521622
     64          6           0       14.001195   -1.716295    0.606497
     65          6           0       14.779466   -2.147659   -0.627105
     66          6           0       14.833381   -1.778156    1.939675
     67          1           0       -4.594584   -0.300210   -4.325511
     68          1           0       -5.372819   -5.270220   -0.242553
     69          1           0       -3.909900   -1.635709    4.653862
     70          1           0       -4.202144    3.701066   -1.800488
     71          1           0       -3.503784    1.883557   -3.992437
     72          1           0       -5.999037    3.427120   -3.262950
     73          1           0       -6.344527    1.651621   -3.237506
     74          1           0       -5.772540    2.305443   -4.675094
     75          1           0       -1.899319    2.980054   -3.079865
     76          1           0       -1.410531    2.825777   -1.385071
     77          1           0       -2.646688    5.272289   -1.328083
     78          1           0       -1.775172    5.340087   -2.830037
     79          1           0       -4.522173   -3.810027   -5.751214
     80          1           0       -4.465674   -2.147445   -5.454657
     81          1           0       -6.044450   -3.027439   -5.334867
     82          1           0       -6.435857   -6.818309   -1.735481
     83          1           0       -4.698095   -6.873095   -1.376831
     84          1           0       -5.350700   -7.831064   -2.738670
     85          1           0       -4.663658   -5.538401    2.349008
     86          1           0       -5.557143   -3.399821    4.129777
     87          1           0       -7.038219   -4.957266    3.466629
     88          1           0       -6.982573   -5.762768    1.829414
     89          1           0       -7.245731   -4.020269    1.958134
     90          1           0       -2.729281   -4.186908    4.132013
     91          1           0       -3.724588   -5.603535    4.427104
     92          1           0       -3.607811   -4.888370    6.681532
     93          1           0       -4.801957   -3.685442    6.258952
     94          1           0       -3.049400   -3.298755    6.229513
     95          1           0       -2.189508    1.553858    5.702923
     96          1           0       -2.989327    0.052152    5.747448
     97          1           0       -3.950301    1.731193    5.793488
     98          1           0       -2.090298    3.956095    0.869805
     99          1           0       -4.411739    7.777119    1.627751
    100          1           0       -5.328994    6.848583    0.390143
    101          1           0       -3.853322    7.647212   -0.025621
    102          1           0        1.695437    5.412812    0.268547
    103          1           0        2.375804    5.190230   -1.490640
    104          1           0        1.821490    2.662224   -0.175676
    105          1           0        5.150188    4.072470   -1.928880
    106          1           0        5.676097    3.951430   -0.263989
    107          1           0        4.561237    5.266643   -0.724514
    108          1           0        3.658341    1.125450    0.053158
    109          1           0        5.338330    1.665762   -0.033624
    110          1           0        5.152546    1.604734   -2.523033
    111          1           0        3.447291    1.277968   -2.377303
    112          1           0        3.900016   -0.905950   -2.408928
    113          1           0        4.670071   -0.711162   -0.834013
    114          1           0        6.648269    0.144553   -2.605082
    115          1           0        6.467432   -2.510178   -3.687826
    116          1           0        6.577882   -1.086296   -4.613852
    117          1           0        4.985497   -1.519169   -4.015631
    118          1           0        7.727769   -2.191107   -1.935005
    119          1           0        6.319692   -2.278050   -0.833852
    120          1           0        7.093412    0.067747   -0.109061
    121          1           0        8.642364   -0.284788   -0.969696
    122          1           0        7.770601   -2.441064    0.881586
    123          1           0        8.079907   -0.969580    1.740815
    124          1           0       10.087660   -2.189876   -0.137197
    125          1           0        9.390465   -3.450090    2.347482
    126          1           0       10.958022   -2.898313    2.584017
    127          1           0       10.696645   -3.951946    1.238914
    128          1           0       11.196066   -0.679790    2.216056
    129          1           0       10.203871    0.302488    1.359352
    130          1           0       11.478195    0.565991   -0.312490
    131          1           0       11.825513   -0.994193   -0.774849
    132          1           0       13.375106    0.050679    1.521194
    133          1           0       13.885961    0.235173   -0.164472
    134          1           0       13.195290   -2.447010    0.539793
    135          1           0       14.273876   -3.028879   -1.022835
    136          1           0       15.816208   -2.440535   -0.464472
    137          1           0       14.671739   -1.322235   -1.330529
    138          1           0       15.016023   -0.785162    2.348068
    139          1           0       15.827688   -2.200370    1.791275
    140          1           0       14.276443   -2.381285    2.656171
 ---------------------------------------------------------------------

 SCF Done:  E(RPBE1PBE) =  -3005.34481817     A.U. after   15 cycles

 Excitation energies and oscillator strengths:

 Excited State   1:      Singlet-A      1.8592 eV  666.88 nm  f=0.3847  <S**2>=0.000
     245 -> 248        0.17990
     246 -> 247        0.69172
     246 <- 247       -0.10722
 This state for optimization and/or second-order correction.
 Total Energy, E(TD-HF/TD-DFT) =  -3005.27649528
 Copying the excited state density for this state as the 1-particle RhoCI density.

 Excited State   2:      Singlet-A      2.2217 eV  558.07 nm  f=0.0776  <S**2>=0.000
     245 -> 247        0.64411
     246 -> 248       -0.27875

 Excited State   3:      Singlet-A      2.9055 eV  426.72 nm  f=0.0005  <S**2>=0.000
     241 -> 247        0.22915
     242 -> 247        0.55815
     242 -> 249        0.15841
     243 -> 247        0.27656

 Excited State   4:      Singlet-A      3.0298 eV  409.21 nm  f=0.0010  <S**2>=0.000
     242 -> 247       -0.27372
     243 -> 247        0.63749

 Excited State   5:      Singlet-A      3.1876 eV  388.96 nm  f=0.0510  <S**2>=0.000
     240 -> 247        0.43945
     240 -> 249       -0.13229
     241 -> 247       -0.37011
     246 -> 248       -0.30815

 The electronic state is 1-A.
 Alpha  occ. eigenvalues --  -46.93065 -19.26375 -19.24969 -19.21075 -19.19737
 Alpha  occ. eigenvalues --  -19.19335 -19.18590 -14.41666 -14.41324 -14.39310
 Alpha  occ. eigenvalues --  -14.38499 -10.36959 -10.36407 -10.33058 -10.31714
 Alpha  occ. eigenvalues --  -10.29816 -10.29190 -10.29023 -10.28771 -10.28279
 Alpha  occ. eigenvalues --  -10.28009 -10.27932 -10.27548 -10.26703 -10.26665
 Alpha  occ. eigenvalues --  -10.26522 -10.26205 -10.26100 -10.25857 -10.25734
 Alpha  occ. eigenvalues --  -10.25557 -10.25514 -10.25470 -10.25339 -10.25302
 Alpha  occ. eigenvalues --  -10.25297 -10.24779 -10.24720 -10.24321 -10.24257
 Alpha  occ. eigenvalues --  -10.24251 -10.24114 -10.24072 -10.23955 -10.23940
 Alpha  occ. eigenvalues --  -10.23817 -10.23626 -10.23581 -10.23184 -10.23160
 Alpha  occ. eigenvalues --  -10.23098 -10.22901 -10.22802 -10.22697 -10.22672
 Alpha  occ. eigenvalues --  -10.22644 -10.22533 -10.22487 -10.22483 -10.22328
 Alpha  occ. eigenvalues --  -10.21985 -10.21893 -10.21759 -10.21538 -10.21400
 Alpha  occ. eigenvalues --  -10.21383  -3.15048  -1.87854  -1.87430  -1.87269
 Alpha  occ. eigenvalues --   -1.11692  -1.10558  -1.04607  -1.03027  -1.02420
 Alpha  occ. eigenvalues --   -1.02378  -0.99758  -0.98492  -0.97271  -0.96223
 Alpha  occ. eigenvalues --   -0.88139  -0.84819  -0.83842  -0.83638  -0.83556
 Alpha  occ. eigenvalues --   -0.83047  -0.82814  -0.81628  -0.80714  -0.80557
 Alpha  occ. eigenvalues --   -0.79918  -0.79286  -0.78732  -0.78040  -0.77590
 Alpha  occ. eigenvalues --   -0.76573  -0.76222  -0.75632  -0.75215  -0.74703
 Alpha  occ. eigenvalues --   -0.74026  -0.72390  -0.71953  -0.71596  -0.70198
 Alpha  occ. eigenvalues --   -0.69869  -0.69754  -0.69471  -0.68786  -0.68170
 Alpha  occ. eigenvalues --   -0.67501  -0.66709  -0.66277  -0.64578  -0.64181
 Alpha  occ. eigenvalues --   -0.63385  -0.62277  -0.61286  -0.60918  -0.60432
 Alpha  occ. eigenvalues --   -0.59953  -0.59903  -0.59602  -0.58903  -0.57969
 Alpha  occ. eigenvalues --   -0.57694  -0.57305  -0.56750  -0.56302  -0.54632
 Alpha  occ. eigenvalues --   -0.54372  -0.54094  -0.53701  -0.53486  -0.53213
 Alpha  occ. eigenvalues --   -0.52562  -0.51756  -0.50821  -0.50450  -0.50013
 Alpha  occ. eigenvalues --   -0.49591  -0.49280  -0.49162  -0.48501  -0.48282
 Alpha  occ. eigenvalues --   -0.47891  -0.47820  -0.47687  -0.47418  -0.47135
 Alpha  occ. eigenvalues --   -0.47074  -0.46703  -0.46622  -0.46503  -0.46108
 Alpha  occ. eigenvalues --   -0.46045  -0.45952  -0.45689  -0.45396  -0.45274
 Alpha  occ. eigenvalues --   -0.45097  -0.44552  -0.44533  -0.44372  -0.44220
 Alpha  occ. eigenvalues --   -0.44116  -0.43903  -0.43741  -0.43089  -0.43020
 Alpha  occ. eigenvalues --   -0.42964  -0.42858  -0.42788  -0.42536  -0.42420
 Alpha  occ. eigenvalues --   -0.42258  -0.42181  -0.41743  -0.41520  -0.41281
 Alpha  occ. eigenvalues --   -0.41025  -0.41020  -0.40681  -0.40607  -0.40195
 Alpha  occ. eigenvalues --   -0.40016  -0.39811  -0.39717  -0.39573  -0.39484
 Alpha  occ. eigenvalues --   -0.39439  -0.39222  -0.38942  -0.38814  -0.38465
 Alpha  occ. eigenvalues --   -0.38378  -0.38329  -0.38126  -0.37895  -0.37814
 Alpha  occ. eigenvalues --   -0.37517  -0.37356  -0.37191  -0.37137  -0.36829
 Alpha  occ. eigenvalues --   -0.36664  -0.36486  -0.36380  -0.36270  -0.36086
 Alpha  occ. eigenvalues --   -0.35736  -0.35698  -0.35175  -0.35128  -0.34852
 Alpha  occ. eigenvalues --   -0.34809  -0.34423  -0.34187  -0.33749  -0.33541
 Alpha  occ. eigenvalues --   -0.33257  -0.32891  -0.32673  -0.32493  -0.32072
 Alpha  occ. eigenvalues --   -0.32036  -0.31842  -0.31459  -0.31214  -0.31033
 Alpha  occ. eigenvalues --   -0.30799  -0.30750  -0.30425  -0.30045  -0.29376
 Alpha  occ. eigenvalues --   -0.28938  -0.28632  -0.28612  -0.26959  -0.26050
 Alpha  occ. eigenvalues --   -0.25863  -0.25353  -0.25152  -0.24414  -0.21095
 Alpha  occ. eigenvalues --   -0.18759
 Alpha virt. eigenvalues --   -0.11164  -0.05528  -0.04455  -0.02541  -0.01510
 Alpha virt. eigenvalues --   -0.00134   0.00678   0.01137   0.01374   0.02910
 Alpha virt. eigenvalues --    0.04702   0.04794   0.05457   0.05528   0.05986

 Mulliken charges:
               1
     1  Mg   0.935076
     2  C    0.002873
     3  C   -0.046044
     4  C   -0.062134
     5  C   -0.098073
     6  N   -0.366874
     7  C    0.011111
     8  C   -0.093993
     9  C   -0.146162
    10  C    0.014834
    11  C    0.006638
    12  C    0.038521
    13  C   -0.047627
    14  C    0.210277
    15  O   -0.261712
    16  O   -0.353635
    17  N   -0.500199
    18  C    0.197826
    19  C   -0.166839
    20  C   -0.064475
    21  C    0.182782
    22  C    0.055775
    23  C    0.054792
    24  O   -0.238481
    25  C   -0.025797
    26  N   -0.431929
    27  C    0.066515
    28  C   -0.117984
    29  C   -0.129281
    30  C    0.082690
    31  C    0.007766
    32  C   -0.013672
    33  C   -0.084932
    34  N   -0.403641
    35  C    0.146086
    36  C   -0.205758
    37  C   -0.025966
    38  C    0.108526
    39  C    0.095103
    40  C    0.113888
    41  O   -0.237648
    42  C   -0.091365
    43  C    0.288243
    44  O   -0.234632
    45  O   -0.357752
    46  C    0.115613
    47  C    0.235978
    48  C   -0.143621
    49  C   -0.228957
    50  C    0.043072
    51  C   -0.009557
    52  C   -0.073536
    53  C    0.029580
    54  C   -0.212424
    55  C    0.003713
    56  C   -0.028294
    57  C   -0.066214
    58  C   -0.008881
    59  C   -0.220479
    60  C   -0.025841
    61  C    0.032069
    62  C   -0.052464
    63  C    0.001589
    64  C   -0.264634
    65  C    0.002906
    66  C   -0.018381
    67  H    0.006980
    68  H   -0.013045
    69  H   -0.003866
    70  H    0.055613
    71  H    0.048642
    72  H    0.066323
    73  H    0.050815
    74  H    0.042821
    75  H    0.026609
    76  H    0.070254
    77  H    0.055759
    78  H    0.075495
    79  H    0.056412
    80  H    0.030627
    81  H    0.067760
    82  H    0.076873
    83  H    0.062606
    84  H    0.061141
    85  H    0.044703
    86  H    0.046375
    87  H    0.051776
    88  H    0.049436
    89  H    0.044076
    90  H    0.046973
    91  H    0.050543
    92  H    0.040883
    93  H    0.044231
    94  H    0.055072
    95  H    0.054322
    96  H    0.038032
    97  H    0.075796
    98  H    0.104601
    99  H    0.064806
   100  H    0.057979
   101  H    0.047881
   102  H    0.100616
   103  H    0.058883
   104  H    0.026376
   105  H    0.048481
   106  H    0.044601
   107  H    0.050411
   108  H    0.038092
   109  H    0.041759
   110  H    0.027414
   111  H    0.030619
   112  H    0.034492
   113  H    0.021535
   114  H    0.031119
   115  H    0.030511
   116  H    0.032807
   117  H    0.023582
   118  H    0.030915
   119  H    0.035009
   120  H    0.031504
   121  H    0.038967
   122  H    0.020920
   123  H    0.024851
   124  H    0.037545
   125  H    0.027697
   126  H    0.025735
   127  H    0.042786
   128  H    0.022379
   129  H    0.020597
   130  H    0.022252
   131  H    0.023520
   132  H    0.019661
   133  H    0.019466
   134  H    0.035817
   135  H    0.029557
   136  H    0.036210
   137  H    0.024577
   138  H    0.037703
   139  H    0.026905
   140  H    0.044872
 Sum of Mulliken charges =  -0.00000

 Dipole moment (field-independent basis, Debye):
    X=             -0.3423    Y=             -2.8120    Z=             -0.0922  Tot=              2.8342
 Quadrupole moment (field-independent basis, Debye-Ang):
   XX=           -379.6230   YY=           -413.6429   ZZ=           -401.8843
   XY=             11.6519   XZ=            -12.4131   YZ=            -51.5324

 Normal termination of Gaussian 16 at Wed Apr 27 19:27:51 2022.
