 Gaussian 16, Revision A.03,
 Gaussian 16:  ES64L-G16RevA.03 25-Dec-2016

 --------------------------------
 #p wB97XD/Def2SVP td=(nstates=5)
 --------------------------------

 ----------------------------------------------------
 step_1251_chromophore_8 TDDFT with wB97XD functional
 ----------------------------------------------------
 Symbolic Z-matrix:
 Charge =  0 Multiplicity = 1

                         Standard orientation:
 ---------------------------------------------------------------------
 Center     Atomic      Atomic             Coordinates (Angstroms)
 Number     Number       Type             X           Y           Z
 ---------------------------------------------------------------------
      1         12           0       -4.435053   -1.084747    0.206177
      2          6           0       -3.373520    2.310618    0.577069
      3          6           0       -4.528531   -0.594023   -3.275800
      4          6           0       -4.908401   -4.282892   -0.192216
      5          6           0       -3.842039   -1.430565    3.582918
      6          7           0       -3.926985    0.675981   -1.202757
      7          6           0       -3.585080    1.945277   -0.779659
      8          6           0       -3.532140    2.856205   -1.968064
      9          6           0       -4.176814    2.009955   -3.143918
     10          6           0       -4.311013    0.601285   -2.527786
     11          6           0       -5.682229    2.439099   -3.597111
     12          6           0       -2.110305    3.313446   -2.063212
     13          6           0       -1.803596    4.835823   -1.863793
     14          6           0       -0.543654    5.201284   -0.971021
     15          8           0       -0.465860    6.233655   -0.319395
     16          8           0        0.493532    4.395447   -1.260402
     17          7           0       -4.610505   -2.335505   -1.504972
     18          6           0       -4.568956   -1.939065   -2.848008
     19          6           0       -4.761008   -3.180974   -3.648375
     20          6           0       -4.927805   -4.299780   -2.760798
     21          6           0       -4.782920   -3.700718   -1.428208
     22          6           0       -4.976018   -3.049483   -5.116784
     23          6           0       -5.183010   -5.776755   -3.177918
     24          8           0       -5.275354   -6.020773   -4.379081
     25          6           0       -5.441429   -6.903852   -2.174127
     26          7           0       -4.162597   -2.655780    1.468089
     27          6           0       -4.818170   -3.807525    1.105524
     28          6           0       -5.207660   -4.594351    2.329592
     29          6           0       -4.678667   -3.735372    3.577035
     30          6           0       -4.141792   -2.550084    2.819430
     31          6           0       -6.749805   -4.875663    2.418163
     32          6           0       -3.701395   -4.515822    4.496650
     33          6           0       -3.805199   -4.052443    6.011539
     34          7           0       -3.688697    0.124433    1.835466
     35          6           0       -3.536262   -0.120519    3.132726
     36          6           0       -3.272920    1.068724    3.888048
     37          6           0       -3.288323    2.083221    2.927886
     38          6           0       -3.445440    1.434081    1.675468
     39          6           0       -3.141251    1.088733    5.445097
     40          6           0       -2.982205    3.462563    2.678667
     41          8           0       -2.603672    4.351439    3.483671
     42          6           0       -3.086262    3.660375    1.199025
     43          6           0       -4.100384    4.693550    0.857896
     44          8           0       -5.235745    4.515399    0.458752
     45          8           0       -3.506377    5.955217    1.042526
     46          6           0       -4.341449    7.097529    0.778314
     47          6           0        1.783206    4.831916   -0.649104
     48          6           0        2.503495    3.477602   -0.420449
     49          6           0        3.834218    3.206394   -0.631001
     50          6           0        4.831841    4.225028   -0.897710
     51          6           0        4.355646    1.760482   -0.494293
     52          6           0        4.410853    1.112642   -1.894316
     53          6           0        4.711468   -0.405588   -1.880089
     54          6           0        6.112284   -0.785224   -2.416548
     55          6           0        6.045205   -1.507435   -3.761204
     56          6           0        6.954140   -1.617778   -1.424223
     57          6           0        7.784070   -0.705018   -0.445410
     58          6           0        8.305465   -1.493574    0.811939
     59          6           0        9.885013   -1.848543    0.877132
     60          6           0       10.256254   -3.112906    1.777619
     61          6           0       10.808344   -0.591071    1.201165
     62          6           0       11.826035   -0.371956    0.119381
     63          6           0       13.300291   -0.377658    0.521622
     64          6           0       14.001195   -1.716295    0.606497
     65          6           0       14.779466   -2.147659   -0.627105
     66          6           0       14.833381   -1.778156    1.939675
     67          1           0       -4.594584   -0.300210   -4.325511
     68          1           0       -5.372819   -5.270220   -0.242553
     69          1           0       -3.909900   -1.635709    4.653862
     70          1           0       -4.202144    3.701066   -1.800488
     71          1           0       -3.503784    1.883557   -3.992437
     72          1           0       -5.999037    3.427120   -3.262950
     73          1           0       -6.344527    1.651621   -3.237506
     74          1           0       -5.772540    2.305443   -4.675094
     75          1           0       -1.899319    2.980054   -3.079865
     76          1           0       -1.410531    2.825777   -1.385071
     77          1           0       -2.646688    5.272289   -1.328083
     78          1           0       -1.775172    5.340087   -2.830037
     79          1           0       -4.522173   -3.810027   -5.751214
     80          1           0       -4.465674   -2.147445   -5.454657
     81          1           0       -6.044450   -3.027439   -5.334867
     82          1           0       -6.435857   -6.818309   -1.735481
     83          1           0       -4.698095   -6.873095   -1.376831
     84          1           0       -5.350700   -7.831064   -2.738670
     85          1           0       -4.663658   -5.538401    2.349008
     86          1           0       -5.557143   -3.399821    4.129777
     87          1           0       -7.038219   -4.957266    3.466629
     88          1           0       -6.982573   -5.762768    1.829414
     89          1           0       -7.245731   -4.020269    1.958134
     90          1           0       -2.729281   -4.186908    4.132013
     91          1           0       -3.724588   -5.603535    4.427104
     92          1           0       -3.607811   -4.888370    6.681532
     93          1           0       -4.801957   -3.685442    6.258952
     94          1           0       -3.049400   -3.298755    6.229513
     95          1           0       -2.189508    1.553858    5.702923
     96          1           0       -2.989327    0.052152    5.747448
     97          1           0       -3.950301    1.731193    5.793488
     98          1           0       -2.090298    3.956095    0.869805
     99          1           0       -4.411739    7.777119    1.627751
    100          1           0       -5.328994    6.848583    0.390143
    101          1           0       -3.853322    7.647212   -0.025621
    102          1           0        1.695437    5.412812    0.268547
    103          1           0        2.375804    5.190230   -1.490640
    104          1           0        1.821490    2.662224   -0.175676
    105          1           0        5.150188    4.072470   -1.928880
    106          1           0        5.676097    3.951430   -0.263989
    107          1           0        4.561237    5.266643   -0.724514
    108          1           0        3.658341    1.125450    0.053158
    109          1           0        5.338330    1.665762   -0.033624
    110          1           0        5.152546    1.604734   -2.523033
    111          1           0        3.447291    1.277968   -2.377303
    112          1           0        3.900016   -0.905950   -2.408928
    113          1           0        4.670071   -0.711162   -0.834013
    114          1           0        6.648269    0.144553   -2.605082
    115          1           0        6.467432   -2.510178   -3.687826
    116          1           0        6.577882   -1.086296   -4.613852
    117          1           0        4.985497   -1.519169   -4.015631
    118          1           0        7.727769   -2.191107   -1.935005
    119          1           0        6.319692   -2.278050   -0.833852
    120          1           0        7.093412    0.067747   -0.109061
    121          1           0        8.642364   -0.284788   -0.969696
    122          1           0        7.770601   -2.441064    0.881586
    123          1           0        8.079907   -0.969580    1.740815
    124          1           0       10.087660   -2.189876   -0.137197
    125          1           0        9.390465   -3.450090    2.347482
    126          1           0       10.958022   -2.898313    2.584017
    127          1           0       10.696645   -3.951946    1.238914
    128          1           0       11.196066   -0.679790    2.216056
    129          1           0       10.203871    0.302488    1.359352
    130          1           0       11.478195    0.565991   -0.312490
    131          1           0       11.825513   -0.994193   -0.774849
    132          1           0       13.375106    0.050679    1.521194
    133          1           0       13.885961    0.235173   -0.164472
    134          1           0       13.195290   -2.447010    0.539793
    135          1           0       14.273876   -3.028879   -1.022835
    136          1           0       15.816208   -2.440535   -0.464472
    137          1           0       14.671739   -1.322235   -1.330529
    138          1           0       15.016023   -0.785162    2.348068
    139          1           0       15.827688   -2.200370    1.791275
    140          1           0       14.276443   -2.381285    2.656171
 ---------------------------------------------------------------------

 SCF Done:  E(RwB97XD) =  -3007.85496174     A.U. after   17 cycles

 Excitation energies and oscillator strengths:

 Excited State   1:      Singlet-A      1.6544 eV  749.41 nm  f=0.3945  <S**2>=0.000
     245 -> 248        0.19080
     246 -> 247        0.68210
     245 <- 248        0.11724
 This state for optimization and/or second-order correction.
 Total Energy, E(TD-HF/TD-DFT) =  -3007.79416269
 Copying the excited state density for this state as the 1-particle RhoCI density.

 Excited State   2:      Singlet-A      2.1709 eV  571.11 nm  f=0.0753  <S**2>=0.000
     245 -> 247        0.62639
     246 -> 248       -0.31375

 Excited State   3:      Singlet-A      3.3703 eV  367.87 nm  f=0.1345  <S**2>=0.000
     241 -> 247       -0.21194
     241 -> 249       -0.19105
     241 -> 250        0.12071
     242 -> 247        0.42442
     243 -> 247        0.13045
     243 -> 249       -0.10055
     245 -> 247        0.14378
     246 -> 248        0.38775

 Excited State   4:      Singlet-A      3.3788 eV  366.95 nm  f=0.0103  <S**2>=0.000
     241 -> 247        0.25030
     241 -> 249        0.16761
     241 -> 250       -0.12840
     242 -> 249       -0.15239
     243 -> 247        0.57851

 Excited State   5:      Singlet-A      3.4824 eV  356.03 nm  f=0.3415  <S**2>=0.000
     241 -> 247        0.31886
     241 -> 249        0.18200
     241 -> 250       -0.10401
     243 -> 247       -0.31086
     245 -> 247        0.22435
     246 -> 248        0.42786

 The electronic state is 1-A.
 Alpha  occ. eigenvalues --  -46.96048 -19.30867 -19.29508 -19.25787 -19.24332
 Alpha  occ. eigenvalues --  -19.24262 -19.23327 -14.46830 -14.46330 -14.44323
 Alpha  occ. eigenvalues --  -14.43394 -10.43817 -10.43136 -10.39982 -10.38529
 Alpha  occ. eigenvalues --  -10.36264 -10.35552 -10.35219 -10.35158 -10.34781
 Alpha  occ. eigenvalues --  -10.34601 -10.34074 -10.34017 -10.33218 -10.32952
 Alpha  occ. eigenvalues --  -10.32787 -10.32526 -10.32356 -10.32211 -10.32076
 Alpha  occ. eigenvalues --  -10.31963 -10.31872 -10.31793 -10.31689 -10.31629
 Alpha  occ. eigenvalues --  -10.31511 -10.31051 -10.31029 -10.30761 -10.30730
 Alpha  occ. eigenvalues --  -10.30646 -10.30549 -10.30337 -10.30332 -10.30268
 Alpha  occ. eigenvalues --  -10.30074 -10.29968 -10.29952 -10.29594 -10.29531
 Alpha  occ. eigenvalues --  -10.29426 -10.29365 -10.29280 -10.29030 -10.28997
 Alpha  occ. eigenvalues --  -10.28893 -10.28844 -10.28823 -10.28807 -10.28693
 Alpha  occ. eigenvalues --  -10.28402 -10.28262 -10.28170 -10.27900 -10.27817
 Alpha  occ. eigenvalues --  -10.27799  -3.21910  -1.95461  -1.95037  -1.94874
 Alpha  occ. eigenvalues --   -1.19010  -1.17962  -1.12202  -1.10388  -1.09815
 Alpha  occ. eigenvalues --   -1.09700  -1.06992  -1.05844  -1.04722  -1.03723
 Alpha  occ. eigenvalues --   -0.95718  -0.92480  -0.91458  -0.91256  -0.91180
 Alpha  occ. eigenvalues --   -0.90694  -0.90399  -0.89239  -0.88380  -0.88139
 Alpha  occ. eigenvalues --   -0.87656  -0.86923  -0.86368  -0.85645  -0.85231
 Alpha  occ. eigenvalues --   -0.84221  -0.84001  -0.83321  -0.82811  -0.82323
 Alpha  occ. eigenvalues --   -0.81696  -0.80010  -0.79587  -0.79256  -0.77787
 Alpha  occ. eigenvalues --   -0.77524  -0.77443  -0.77075  -0.76459  -0.75832
 Alpha  occ. eigenvalues --   -0.75024  -0.74297  -0.73821  -0.72173  -0.71695
 Alpha  occ. eigenvalues --   -0.70895  -0.69902  -0.68903  -0.68547  -0.67911
 Alpha  occ. eigenvalues --   -0.67611  -0.67362  -0.67165  -0.66322  -0.65409
 Alpha  occ. eigenvalues --   -0.65358  -0.64963  -0.64155  -0.63927  -0.62075
 Alpha  occ. eigenvalues --   -0.61881  -0.61548  -0.61101  -0.60958  -0.60618
 Alpha  occ. eigenvalues --   -0.59962  -0.59220  -0.58328  -0.57863  -0.57415
 Alpha  occ. eigenvalues --   -0.56965  -0.56653  -0.56509  -0.55849  -0.55706
 Alpha  occ. eigenvalues --   -0.55286  -0.55216  -0.54933  -0.54810  -0.54548
 Alpha  occ. eigenvalues --   -0.54435  -0.54093  -0.53995  -0.53914  -0.53631
 Alpha  occ. eigenvalues --   -0.53447  -0.53264  -0.52919  -0.52681  -0.52585
 Alpha  occ. eigenvalues --   -0.52396  -0.51935  -0.51891  -0.51821  -0.51509
 Alpha  occ. eigenvalues --   -0.51446  -0.51255  -0.51143  -0.50373  -0.50305
 Alpha  occ. eigenvalues --   -0.50197  -0.50101  -0.50016  -0.49753  -0.49606
 Alpha  occ. eigenvalues --   -0.49540  -0.49412  -0.48976  -0.48833  -0.48631
 Alpha  occ. eigenvalues --   -0.48323  -0.48240  -0.47951  -0.47725  -0.47444
 Alpha  occ. eigenvalues --   -0.47248  -0.46936  -0.46909  -0.46747  -0.46652
 Alpha  occ. eigenvalues --   -0.46607  -0.46383  -0.46045  -0.45945  -0.45564
 Alpha  occ. eigenvalues --   -0.45550  -0.45425  -0.45325  -0.45077  -0.44928
 Alpha  occ. eigenvalues --   -0.44594  -0.44497  -0.44408  -0.44263  -0.43832
 Alpha  occ. eigenvalues --   -0.43723  -0.43544  -0.43463  -0.43276  -0.43258
 Alpha  occ. eigenvalues --   -0.42785  -0.42668  -0.42203  -0.42187  -0.41922
 Alpha  occ. eigenvalues --   -0.41836  -0.41511  -0.41154  -0.40788  -0.40566
 Alpha  occ. eigenvalues --   -0.40159  -0.39865  -0.39632  -0.39499  -0.39138
 Alpha  occ. eigenvalues --   -0.39071  -0.38838  -0.38381  -0.38091  -0.38080
 Alpha  occ. eigenvalues --   -0.37842  -0.37735  -0.37320  -0.37164  -0.36202
 Alpha  occ. eigenvalues --   -0.35682  -0.35564  -0.35521  -0.33524  -0.33331
 Alpha  occ. eigenvalues --   -0.32701  -0.32096  -0.31811  -0.31105  -0.26122
 Alpha  occ. eigenvalues --   -0.22887
 Alpha virt. eigenvalues --   -0.07007  -0.00167   0.01815   0.03945   0.04419
 Alpha virt. eigenvalues --    0.06658   0.07527   0.07825   0.08137   0.09602
 Alpha virt. eigenvalues --    0.10974   0.11690   0.12122   0.12274   0.12697

 Mulliken charges:
               1
     1  Mg   0.928129
     2  C    0.001155
     3  C   -0.060883
     4  C   -0.078883
     5  C   -0.106886
     6  N   -0.332616
     7  C   -0.019001
     8  C   -0.070730
     9  C   -0.120753
    10  C    0.003201
    11  C    0.017487
    12  C    0.051013
    13  C   -0.021529
    14  C    0.198073
    15  O   -0.258346
    16  O   -0.353582
    17  N   -0.471314
    18  C    0.189432
    19  C   -0.154714
    20  C   -0.062534
    21  C    0.185741
    22  C    0.066855
    23  C    0.049242
    24  O   -0.233849
    25  C   -0.012758
    26  N   -0.403120
    27  C    0.061751
    28  C   -0.093982
    29  C   -0.097862
    30  C    0.067648
    31  C    0.019569
    32  C   -0.003814
    33  C   -0.067129
    34  N   -0.362906
    35  C    0.135742
    36  C   -0.208928
    37  C   -0.024332
    38  C    0.090047
    39  C    0.110264
    40  C    0.095359
    41  O   -0.227600
    42  C   -0.048452
    43  C    0.269287
    44  O   -0.228698
    45  O   -0.356262
    46  C    0.131025
    47  C    0.251835
    48  C   -0.158236
    49  C   -0.207397
    50  C    0.052863
    51  C    0.012318
    52  C   -0.056037
    53  C    0.042476
    54  C   -0.182373
    55  C    0.015699
    56  C   -0.011092
    57  C   -0.040635
    58  C    0.006525
    59  C   -0.190792
    60  C   -0.014218
    61  C    0.040315
    62  C   -0.031723
    63  C    0.019391
    64  C   -0.236143
    65  C    0.013744
    66  C   -0.002150
    67  H    0.001781
    68  H   -0.028104
    69  H   -0.020419
    70  H    0.039119
    71  H    0.039375
    72  H    0.062974
    73  H    0.042696
    74  H    0.037134
    75  H    0.017696
    76  H    0.058679
    77  H    0.037629
    78  H    0.071139
    79  H    0.054063
    80  H    0.024596
    81  H    0.064495
    82  H    0.073123
    83  H    0.057628
    84  H    0.060209
    85  H    0.034899
    86  H    0.031797
    87  H    0.046611
    88  H    0.044066
    89  H    0.036586
    90  H    0.038138
    91  H    0.043685
    92  H    0.035969
    93  H    0.037556
    94  H    0.048778
    95  H    0.048827
    96  H    0.031613
    97  H    0.070825
    98  H    0.089339
    99  H    0.061027
   100  H    0.053791
   101  H    0.043715
   102  H    0.098041
   103  H    0.051732
   104  H    0.022877
   105  H    0.042363
   106  H    0.038942
   107  H    0.046458
   108  H    0.030442
   109  H    0.030540
   110  H    0.015760
   111  H    0.021820
   112  H    0.027523
   113  H    0.009927
   114  H    0.016902
   115  H    0.024120
   116  H    0.028043
   117  H    0.016312
   118  H    0.020926
   119  H    0.025676
   120  H    0.013603
   121  H    0.028852
   122  H    0.010727
   123  H    0.016992
   124  H    0.021614
   125  H    0.022088
   126  H    0.018710
   127  H    0.038334
   128  H    0.013199
   129  H    0.013414
   130  H    0.015567
   131  H    0.012413
   132  H    0.007886
   133  H    0.011252
   134  H    0.018460
   135  H    0.024378
   136  H    0.030847
   137  H    0.017487
   138  H    0.031109
   139  H    0.020836
   140  H    0.038867
 Sum of Mulliken charges =  -0.00000

 Dipole moment (field-independent basis, Debye):
    X=             -0.4679    Y=             -3.0439    Z=             -0.4186  Tot=              3.1080
 Quadrupole moment (field-independent basis, Debye-Ang):
   XX=           -377.8764   YY=           -412.4051   ZZ=           -401.7388
   XY=             12.6674   XZ=            -10.9361   YZ=            -50.5103

 Normal termination of Gaussian 16 at Wed Apr 27 19:57:42 2022.
