 Gaussian 16, Revision A.03,
 Gaussian 16:  ES64L-G16RevA.03 25-Dec-2016

 --------------------
 #p ZINDO=(nstates=5)
 --------------------

 -----------------------------
 step_1251_chromophore_8 ZINDO
 -----------------------------
 Symbolic Z-matrix:
 Charge =  0 Multiplicity = 1

                         Standard orientation:
 ---------------------------------------------------------------------
 Center     Atomic      Atomic             Coordinates (Angstroms)
 Number     Number       Type             X           Y           Z
 ---------------------------------------------------------------------
      1         12           0       -4.435053   -1.084747    0.206177
      2          6           0       -3.373520    2.310618    0.577069
      3          6           0       -4.528531   -0.594023   -3.275800
      4          6           0       -4.908401   -4.282892   -0.192216
      5          6           0       -3.842039   -1.430565    3.582918
      6          7           0       -3.926985    0.675981   -1.202757
      7          6           0       -3.585080    1.945277   -0.779659
      8          6           0       -3.532140    2.856205   -1.968064
      9          6           0       -4.176814    2.009955   -3.143918
     10          6           0       -4.311013    0.601285   -2.527786
     11          6           0       -5.682229    2.439099   -3.597111
     12          6           0       -2.110305    3.313446   -2.063212
     13          6           0       -1.803596    4.835823   -1.863793
     14          6           0       -0.543654    5.201284   -0.971021
     15          8           0       -0.465860    6.233655   -0.319395
     16          8           0        0.493532    4.395447   -1.260402
     17          7           0       -4.610505   -2.335505   -1.504972
     18          6           0       -4.568956   -1.939065   -2.848008
     19          6           0       -4.761008   -3.180974   -3.648375
     20          6           0       -4.927805   -4.299780   -2.760798
     21          6           0       -4.782920   -3.700718   -1.428208
     22          6           0       -4.976018   -3.049483   -5.116784
     23          6           0       -5.183010   -5.776755   -3.177918
     24          8           0       -5.275354   -6.020773   -4.379081
     25          6           0       -5.441429   -6.903852   -2.174127
     26          7           0       -4.162597   -2.655780    1.468089
     27          6           0       -4.818170   -3.807525    1.105524
     28          6           0       -5.207660   -4.594351    2.329592
     29          6           0       -4.678667   -3.735372    3.577035
     30          6           0       -4.141792   -2.550084    2.819430
     31          6           0       -6.749805   -4.875663    2.418163
     32          6           0       -3.701395   -4.515822    4.496650
     33          6           0       -3.805199   -4.052443    6.011539
     34          7           0       -3.688697    0.124433    1.835466
     35          6           0       -3.536262   -0.120519    3.132726
     36          6           0       -3.272920    1.068724    3.888048
     37          6           0       -3.288323    2.083221    2.927886
     38          6           0       -3.445440    1.434081    1.675468
     39          6           0       -3.141251    1.088733    5.445097
     40          6           0       -2.982205    3.462563    2.678667
     41          8           0       -2.603672    4.351439    3.483671
     42          6           0       -3.086262    3.660375    1.199025
     43          6           0       -4.100384    4.693550    0.857896
     44          8           0       -5.235745    4.515399    0.458752
     45          8           0       -3.506377    5.955217    1.042526
     46          6           0       -4.341449    7.097529    0.778314
     47          6           0        1.783206    4.831916   -0.649104
     48          6           0        2.503495    3.477602   -0.420449
     49          6           0        3.834218    3.206394   -0.631001
     50          6           0        4.831841    4.225028   -0.897710
     51          6           0        4.355646    1.760482   -0.494293
     52          6           0        4.410853    1.112642   -1.894316
     53          6           0        4.711468   -0.405588   -1.880089
     54          6           0        6.112284   -0.785224   -2.416548
     55          6           0        6.045205   -1.507435   -3.761204
     56          6           0        6.954140   -1.617778   -1.424223
     57          6           0        7.784070   -0.705018   -0.445410
     58          6           0        8.305465   -1.493574    0.811939
     59          6           0        9.885013   -1.848543    0.877132
     60          6           0       10.256254   -3.112906    1.777619
     61          6           0       10.808344   -0.591071    1.201165
     62          6           0       11.826035   -0.371956    0.119381
     63          6           0       13.300291   -0.377658    0.521622
     64          6           0       14.001195   -1.716295    0.606497
     65          6           0       14.779466   -2.147659   -0.627105
     66          6           0       14.833381   -1.778156    1.939675
     67          1           0       -4.594584   -0.300210   -4.325511
     68          1           0       -5.372819   -5.270220   -0.242553
     69          1           0       -3.909900   -1.635709    4.653862
     70          1           0       -4.202144    3.701066   -1.800488
     71          1           0       -3.503784    1.883557   -3.992437
     72          1           0       -5.999037    3.427120   -3.262950
     73          1           0       -6.344527    1.651621   -3.237506
     74          1           0       -5.772540    2.305443   -4.675094
     75          1           0       -1.899319    2.980054   -3.079865
     76          1           0       -1.410531    2.825777   -1.385071
     77          1           0       -2.646688    5.272289   -1.328083
     78          1           0       -1.775172    5.340087   -2.830037
     79          1           0       -4.522173   -3.810027   -5.751214
     80          1           0       -4.465674   -2.147445   -5.454657
     81          1           0       -6.044450   -3.027439   -5.334867
     82          1           0       -6.435857   -6.818309   -1.735481
     83          1           0       -4.698095   -6.873095   -1.376831
     84          1           0       -5.350700   -7.831064   -2.738670
     85          1           0       -4.663658   -5.538401    2.349008
     86          1           0       -5.557143   -3.399821    4.129777
     87          1           0       -7.038219   -4.957266    3.466629
     88          1           0       -6.982573   -5.762768    1.829414
     89          1           0       -7.245731   -4.020269    1.958134
     90          1           0       -2.729281   -4.186908    4.132013
     91          1           0       -3.724588   -5.603535    4.427104
     92          1           0       -3.607811   -4.888370    6.681532
     93          1           0       -4.801957   -3.685442    6.258952
     94          1           0       -3.049400   -3.298755    6.229513
     95          1           0       -2.189508    1.553858    5.702923
     96          1           0       -2.989327    0.052152    5.747448
     97          1           0       -3.950301    1.731193    5.793488
     98          1           0       -2.090298    3.956095    0.869805
     99          1           0       -4.411739    7.777119    1.627751
    100          1           0       -5.328994    6.848583    0.390143
    101          1           0       -3.853322    7.647212   -0.025621
    102          1           0        1.695437    5.412812    0.268547
    103          1           0        2.375804    5.190230   -1.490640
    104          1           0        1.821490    2.662224   -0.175676
    105          1           0        5.150188    4.072470   -1.928880
    106          1           0        5.676097    3.951430   -0.263989
    107          1           0        4.561237    5.266643   -0.724514
    108          1           0        3.658341    1.125450    0.053158
    109          1           0        5.338330    1.665762   -0.033624
    110          1           0        5.152546    1.604734   -2.523033
    111          1           0        3.447291    1.277968   -2.377303
    112          1           0        3.900016   -0.905950   -2.408928
    113          1           0        4.670071   -0.711162   -0.834013
    114          1           0        6.648269    0.144553   -2.605082
    115          1           0        6.467432   -2.510178   -3.687826
    116          1           0        6.577882   -1.086296   -4.613852
    117          1           0        4.985497   -1.519169   -4.015631
    118          1           0        7.727769   -2.191107   -1.935005
    119          1           0        6.319692   -2.278050   -0.833852
    120          1           0        7.093412    0.067747   -0.109061
    121          1           0        8.642364   -0.284788   -0.969696
    122          1           0        7.770601   -2.441064    0.881586
    123          1           0        8.079907   -0.969580    1.740815
    124          1           0       10.087660   -2.189876   -0.137197
    125          1           0        9.390465   -3.450090    2.347482
    126          1           0       10.958022   -2.898313    2.584017
    127          1           0       10.696645   -3.951946    1.238914
    128          1           0       11.196066   -0.679790    2.216056
    129          1           0       10.203871    0.302488    1.359352
    130          1           0       11.478195    0.565991   -0.312490
    131          1           0       11.825513   -0.994193   -0.774849
    132          1           0       13.375106    0.050679    1.521194
    133          1           0       13.885961    0.235173   -0.164472
    134          1           0       13.195290   -2.447010    0.539793
    135          1           0       14.273876   -3.028879   -1.022835
    136          1           0       15.816208   -2.440535   -0.464472
    137          1           0       14.671739   -1.322235   -1.330529
    138          1           0       15.016023   -0.785162    2.348068
    139          1           0       15.827688   -2.200370    1.791275
    140          1           0       14.276443   -2.381285    2.656171
 ---------------------------------------------------------------------

 SCF Done:  E(RZINDO/S) =  -474.180603183     A.U. after   19 cycles

 Excitation energies and oscillator strengths:

 Excited State   1:      Singlet-A      1.2591 eV  984.73 nm  f=0.6001  <S**2>=0.000
     175 ->178         0.19164
     176 ->177         0.66291
 This state for optimization and/or second-order correction.
 Total Energy, E(CIS/TDA) =  -474.134333140
 Copying the excited state density for this state as the 1-particle RhoCI density.

 Excited State   2:      Singlet-A      1.8731 eV  661.93 nm  f=0.0163  <S**2>=0.000
     175 ->177         0.52251
     176 ->178        -0.45183

 Excited State   3:      Singlet-A      2.8741 eV  431.38 nm  f=0.6204  <S**2>=0.000
     175 ->177         0.34129
     176 ->178         0.42065
     176 ->179         0.12694
     176 ->180        -0.21060
     176 ->181         0.32994

 Excited State   4:      Singlet-A      2.8949 eV  428.28 nm  f=0.1121  <S**2>=0.000
     170 ->177         0.11033
     170 ->179         0.11474
     170 ->180         0.11750
     175 ->177        -0.12387
     176 ->178        -0.14753
     176 ->179         0.55222
     176 ->181         0.22612

 Excited State   5:      Singlet-A      2.9651 eV  418.14 nm  f=0.0746  <S**2>=0.000
     170 ->177         0.30041
     170 ->178        -0.12698
     170 ->179         0.30741
     170 ->180         0.27958
     170 ->185         0.15852
     170 ->187         0.11184
     170 ->188        -0.11720
     176 ->178         0.11438
     176 ->179        -0.19177

 The electronic state is 1-A.
 Alpha  occ. eigenvalues --   -1.85922  -1.82102  -1.78746  -1.73274  -1.71543
 Alpha  occ. eigenvalues --   -1.70604  -1.64283  -1.62026  -1.58647  -1.58364
 Alpha  occ. eigenvalues --   -1.54240  -1.50114  -1.48973  -1.47475  -1.46394
 Alpha  occ. eigenvalues --   -1.44849  -1.43144  -1.40237  -1.38029  -1.37716
 Alpha  occ. eigenvalues --   -1.35274  -1.32976  -1.31713  -1.30418  -1.28218
 Alpha  occ. eigenvalues --   -1.27986  -1.26991  -1.22987  -1.20778  -1.17433
 Alpha  occ. eigenvalues --   -1.17029  -1.16849  -1.15236  -1.13389  -1.13251
 Alpha  occ. eigenvalues --   -1.12561  -1.10419  -1.10308  -1.04865  -1.03425
 Alpha  occ. eigenvalues --   -1.01915  -1.00009  -0.97757  -0.97527  -0.96959
 Alpha  occ. eigenvalues --   -0.95682  -0.94294  -0.93420  -0.93017  -0.92471
 Alpha  occ. eigenvalues --   -0.91591  -0.90770  -0.90152  -0.88728  -0.86567
 Alpha  occ. eigenvalues --   -0.86069  -0.84679  -0.83214  -0.81822  -0.80035
 Alpha  occ. eigenvalues --   -0.79142  -0.78656  -0.76559  -0.76245  -0.76148
 Alpha  occ. eigenvalues --   -0.75813  -0.75252  -0.74426  -0.74222  -0.73379
 Alpha  occ. eigenvalues --   -0.73065  -0.72354  -0.71366  -0.71114  -0.71059
 Alpha  occ. eigenvalues --   -0.70391  -0.70000  -0.68775  -0.68563  -0.67308
 Alpha  occ. eigenvalues --   -0.67070  -0.66716  -0.65981  -0.65667  -0.65169
 Alpha  occ. eigenvalues --   -0.64877  -0.64523  -0.64236  -0.64003  -0.63927
 Alpha  occ. eigenvalues --   -0.63746  -0.63050  -0.62801  -0.62563  -0.62063
 Alpha  occ. eigenvalues --   -0.61929  -0.61518  -0.61044  -0.60395  -0.59746
 Alpha  occ. eigenvalues --   -0.59490  -0.59217  -0.58604  -0.58406  -0.58041
 Alpha  occ. eigenvalues --   -0.57824  -0.57555  -0.57321  -0.56883  -0.56750
 Alpha  occ. eigenvalues --   -0.56230  -0.55535  -0.55407  -0.55093  -0.54634
 Alpha  occ. eigenvalues --   -0.54605  -0.54213  -0.53829  -0.53191  -0.52858
 Alpha  occ. eigenvalues --   -0.52530  -0.52450  -0.51953  -0.51833  -0.51454
 Alpha  occ. eigenvalues --   -0.51227  -0.50927  -0.50478  -0.50200  -0.50047
 Alpha  occ. eigenvalues --   -0.49859  -0.49681  -0.49182  -0.48997  -0.48840
 Alpha  occ. eigenvalues --   -0.48716  -0.48392  -0.48017  -0.47934  -0.47744
 Alpha  occ. eigenvalues --   -0.47143  -0.46947  -0.46733  -0.46465  -0.46257
 Alpha  occ. eigenvalues --   -0.45970  -0.45671  -0.45527  -0.45379  -0.45362
 Alpha  occ. eigenvalues --   -0.45096  -0.44551  -0.44307  -0.44197  -0.44033
 Alpha  occ. eigenvalues --   -0.43831  -0.43573  -0.43288  -0.42301  -0.41915
 Alpha  occ. eigenvalues --   -0.41417  -0.41318  -0.41125  -0.38959  -0.38731
 Alpha  occ. eigenvalues --   -0.38665  -0.37165  -0.36232  -0.34793  -0.34459
 Alpha  occ. eigenvalues --   -0.33423  -0.32433  -0.32164  -0.31166  -0.26609
 Alpha  occ. eigenvalues --   -0.21554
 Alpha virt. eigenvalues --   -0.08305  -0.02429  -0.00794   0.00957   0.01066
 Alpha virt. eigenvalues --    0.01711   0.02854   0.02998   0.04441   0.04877
 Alpha virt. eigenvalues --    0.06076   0.06570   0.07494   0.07641   0.08050

 Mulliken charges:
               1
     1  Mg   0.439160
     2  C   -0.046808
     3  C   -0.069011
     4  C   -0.088073
     5  C   -0.075894
     6  N   -0.294326
     7  C    0.118748
     8  C    0.014362
     9  C   -0.002600
    10  C    0.142002
    11  C   -0.053749
    12  C   -0.022828
    13  C   -0.007643
    14  C    0.458037
    15  O   -0.507085
    16  O   -0.260739
    17  N   -0.346978
    18  C    0.111586
    19  C    0.056796
    20  C   -0.053327
    21  C    0.150553
    22  C   -0.034111
    23  C    0.327531
    24  O   -0.514245
    25  C   -0.024671
    26  N   -0.273182
    27  C    0.158371
    28  C   -0.006630
    29  C   -0.005189
    30  C    0.109006
    31  C   -0.051216
    32  C   -0.030666
    33  C   -0.061266
    34  N   -0.312520
    35  C    0.092835
    36  C    0.007757
    37  C   -0.055402
    38  C    0.094688
    39  C   -0.048037
    40  C    0.337417
    41  O   -0.544390
    42  C    0.071107
    43  C    0.491619
    44  O   -0.522064
    45  O   -0.261704
    46  C    0.075227
    47  C    0.093982
    48  C   -0.112486
    49  C   -0.002578
    50  C   -0.035646
    51  C   -0.019637
    52  C   -0.033254
    53  C   -0.034548
    54  C   -0.007544
    55  C   -0.062448
    56  C   -0.034341
    57  C   -0.040600
    58  C   -0.042412
    59  C   -0.022285
    60  C   -0.062617
    61  C   -0.023464
    62  C   -0.029979
    63  C   -0.028935
    64  C   -0.015063
    65  C   -0.058162
    66  C   -0.057464
    67  H    0.029270
    68  H    0.010951
    69  H    0.021605
    70  H    0.037742
    71  H    0.034579
    72  H    0.039165
    73  H    0.026567
    74  H    0.018979
    75  H    0.018674
    76  H    0.034164
    77  H    0.037574
    78  H    0.047098
    79  H    0.036910
    80  H    0.016864
    81  H    0.042758
    82  H    0.044985
    83  H    0.033073
    84  H    0.040149
    85  H    0.028258
    86  H    0.030711
    87  H    0.026649
    88  H    0.021131
    89  H    0.024140
    90  H    0.020300
    91  H    0.028904
    92  H    0.014716
    93  H    0.022733
    94  H    0.024730
    95  H    0.027912
    96  H    0.031203
    97  H    0.049451
    98  H    0.065620
    99  H    0.043671
   100  H    0.045158
   101  H    0.025859
   102  H    0.080743
   103  H    0.050774
   104  H    0.029190
   105  H    0.029309
   106  H    0.023549
   107  H    0.028054
   108  H    0.022430
   109  H    0.026317
   110  H    0.017400
   111  H    0.015891
   112  H    0.022854
   113  H    0.015243
   114  H    0.018449
   115  H    0.017440
   116  H    0.017370
   117  H    0.016775
   118  H    0.017570
   119  H    0.025246
   120  H    0.019712
   121  H    0.025359
   122  H    0.015152
   123  H    0.015597
   124  H    0.016261
   125  H    0.015887
   126  H    0.015184
   127  H    0.023132
   128  H    0.020412
   129  H    0.014463
   130  H    0.008008
   131  H    0.020266
   132  H    0.012777
   133  H    0.014981
   134  H    0.018695
   135  H    0.013153
   136  H    0.023504
   137  H    0.019910
   138  H    0.021482
   139  H    0.016269
   140  H    0.019975
 Sum of Mulliken charges =  -0.00000

 Dipole moment (field-independent basis, Debye):
    X=             -1.4053    Y=             -5.1647    Z=             -2.4647  Tot=              5.8927
 N-N= 4.417431714114D+03 E-N= 0.000000000000D+00  KE=-9.509320044771D+03
 Leave Link  601 at Wed Apr 27 20:10:05 2022, MaxMem=  6710886400 cpu:               4.5 elap:               0.3
 (Enter /sw/apps/gaussian-16.0/g16/l9999.exe)
 1\1\GINC-BP1-COMPUTE216\SP\RZINDO CIS\STO-3G\C55H74Mg1N4O6\OF15641\27-
 Apr-2022\0\\#p ZINDO=(nstates=5)\\step_1251_chromophore_8 ZINDO\\0,1\M
 g,0,44.283,2.317,47.268\C,0,42.071,5.085,46.78\C,0,41.481,0.192,47.351
 \C,0,46.281,-0.255,47.207\C,0,46.861,4.535,46.713\N,0,42.005,2.618,47.
 016\C,0,41.385,3.846,46.895\C,0,39.901,3.65,46.96\C,0,39.721,2.146,47.
 429\C,0,41.155,1.581,47.349\C,0,39.245,1.926,48.972\C,0,39.377,4.09,45
 .629\C,0,38.425,5.332,45.578\C,0,38.681,6.383,44.417\O,0,38.414,7.572,

 Normal termination of Gaussian 16 at Wed Apr 27 20:10:05 2022.
