 Gaussian 16, Revision A.03,
 Gaussian 16:  ES64L-G16RevA.03 25-Dec-2016

 ------------------------------
 #p blyp/Def2SVP td=(nstates=5)
 ------------------------------

 -------------------------------------------------
 step_551_chromophore_8 TDDFT with blyp functional
 -------------------------------------------------
 Symbolic Z-matrix:
 Charge =  0 Multiplicity = 1

                         Standard orientation:
 ---------------------------------------------------------------------
 Center     Atomic      Atomic             Coordinates (Angstroms)
 Number     Number       Type             X           Y           Z
 ---------------------------------------------------------------------
      1         12           0        4.599011    0.965894    0.249177
      2          6           0        3.822692   -2.483635    0.612214
      3          6           0        4.517148    0.471943   -3.233098
      4          6           0        4.703087    4.217899   -0.133426
      5          6           0        4.376664    1.252020    3.666656
      6          7           0        4.039778   -0.761892   -1.144657
      7          6           0        3.846915   -2.079948   -0.774182
      8          6           0        3.539817   -2.967066   -1.995945
      9          6           0        4.222684   -2.064477   -3.111907
     10          6           0        4.131797   -0.630144   -2.496735
     11          6           0        5.635354   -2.557882   -3.504056
     12          6           0        2.039040   -3.292359   -2.218285
     13          6           0        1.448044   -4.699663   -1.908627
     14          6           0        0.168917   -4.435760   -1.097114
     15          8           0        0.230523   -4.353391    0.121373
     16          8           0       -0.908910   -4.274908   -1.930288
     17          7           0        4.709740    2.189486   -1.431187
     18          6           0        4.629663    1.771439   -2.744403
     19          6           0        4.693608    2.929645   -3.545549
     20          6           0        4.724322    4.034873   -2.710537
     21          6           0        4.603297    3.539574   -1.412814
     22          6           0        4.808409    2.783367   -5.112169
     23          6           0        4.765832    5.482351   -3.132036
     24          8           0        5.103249    5.774211   -4.261756
     25          6           0        4.480721    6.563721   -2.200553
     26          7           0        4.457861    2.511647    1.564631
     27          6           0        4.635194    3.820163    1.199617
     28          6           0        4.793255    4.749792    2.461873
     29          6           0        4.392825    3.754993    3.659373
     30          6           0        4.452247    2.404468    2.917476
     31          6           0        6.201251    5.384669    2.597736
     32          6           0        3.049915    3.997415    4.178935
     33          6           0        2.824352    5.348741    4.890546
     34          7           0        4.230043   -0.294422    1.902695
     35          6           0        4.182264   -0.061250    3.212747
     36          6           0        3.806806   -1.242149    3.943205
     37          6           0        3.712323   -2.249794    2.968061
     38          6           0        3.982430   -1.603163    1.704924
     39          6           0        3.678984   -1.366588    5.387704
     40          6           0        3.294341   -3.618372    2.770006
     41          8           0        2.892030   -4.449950    3.579684
     42          6           0        3.590818   -3.890566    1.187639
     43          6           0        4.814409   -4.754132    1.085766
     44          8           0        5.832156   -4.578131    1.678100
     45          8           0        4.614649   -5.762815    0.162488
     46          6           0        5.818230   -6.464411   -0.300925
     47          6           0       -2.172272   -4.111628   -1.129239
     48          6           0       -2.680790   -2.696175   -1.146994
     49          6           0       -3.485801   -2.114163   -0.199337
     50          6           0       -4.275089   -2.716147    0.931871
     51          6           0       -3.896825   -0.662517   -0.532709
     52          6           0       -5.105636   -0.675545   -1.573515
     53          6           0       -5.359415    0.735500   -2.012626
     54          6           0       -6.692818    0.928401   -2.911558
     55          6           0       -6.515934    1.666184   -4.262779
     56          6           0       -7.870503    1.579060   -2.127676
     57          6           0       -8.727115    0.503830   -1.377955
     58          6           0       -8.444216    0.460741    0.138370
     59          6           0       -9.489582    1.376417    0.749982
     60          6           0       -8.744429    2.249334    1.838834
     61          6           0      -10.629215    0.515588    1.408395
     62          6           0      -11.874141    0.313367    0.471446
     63          6           0      -13.186888   -0.044904    1.268703
     64          6           0      -14.389495    0.883745    1.000475
     65          6           0      -15.447708    0.045367    0.210440
     66          6           0      -14.966453    1.490111    2.312666
     67          1           0        4.530563    0.220591   -4.295789
     68          1           0        4.809133    5.304658   -0.110376
     69          1           0        4.324343    1.449201    4.739236
     70          1           0        4.035963   -3.928021   -1.865410
     71          1           0        3.684651   -2.153865   -4.055458
     72          1           0        5.892145   -3.449624   -2.930706
     73          1           0        6.313958   -1.754506   -3.220851
     74          1           0        5.726108   -2.652636   -4.586153
     75          1           0        1.721239   -3.022226   -3.225746
     76          1           0        1.451920   -2.594440   -1.623024
     77          1           0        2.165643   -5.321955   -1.374351
     78          1           0        1.225035   -5.103527   -2.896703
     79          1           0        4.084334    3.396697   -5.648105
     80          1           0        4.677478    1.766138   -5.479294
     81          1           0        5.833114    3.029289   -5.392865
     82          1           0        5.356763    6.787695   -1.592086
     83          1           0        3.668952    6.069965   -1.666747
     84          1           0        4.069571    7.475685   -2.633851
     85          1           0        4.042391    5.532700    2.359131
     86          1           0        5.154966    3.721396    4.438292
     87          1           0        6.206761    6.435980    2.309057
     88          1           0        6.966938    4.883851    2.005663
     89          1           0        6.457383    5.352965    3.656836
     90          1           0        2.862464    3.251910    4.951397
     91          1           0        2.447875    3.777680    3.296626
     92          1           0        2.749319    6.169920    4.177555
     93          1           0        3.806173    5.560476    5.312591
     94          1           0        2.122220    5.273453    5.720786
     95          1           0        2.799436   -0.810452    5.710167
     96          1           0        4.495744   -0.899890    5.939968
     97          1           0        3.746658   -2.438244    5.575376
     98          1           0        2.772736   -4.363162    0.643466
     99          1           0        6.514069   -6.672850    0.512477
    100          1           0        6.390121   -5.949640   -1.072703
    101          1           0        5.485594   -7.396853   -0.756386
    102          1           0       -2.130345   -4.409184   -0.081815
    103          1           0       -2.856384   -4.833689   -1.575181
    104          1           0       -2.396790   -2.098043   -2.012596
    105          1           0       -3.814439   -2.422105    1.874284
    106          1           0       -4.201945   -3.803338    0.931994
    107          1           0       -5.296879   -2.344066    0.849695
    108          1           0       -3.043838   -0.163602   -0.992485
    109          1           0       -4.086271   -0.049570    0.348909
    110          1           0       -5.959521   -1.152859   -1.094307
    111          1           0       -4.830124   -1.176295   -2.502024
    112          1           0       -4.534142    1.180649   -2.568043
    113          1           0       -5.431490    1.408951   -1.158307
    114          1           0       -6.937408   -0.113048   -3.120130
    115          1           0       -6.701607    1.060642   -5.149280
    116          1           0       -5.483852    1.979985   -4.414544
    117          1           0       -7.153470    2.549277   -4.314123
    118          1           0       -8.533355    1.959209   -2.904560
    119          1           0       -7.588753    2.424421   -1.499911
    120          1           0       -8.372055   -0.485882   -1.664228
    121          1           0       -9.774790    0.586657   -1.666963
    122          1           0       -7.416977    0.786416    0.297537
    123          1           0       -8.421362   -0.562873    0.512689
    124          1           0       -9.887882    2.046867   -0.012285
    125          1           0       -8.757456    1.780521    2.822130
    126          1           0       -9.212213    3.224132    1.980857
    127          1           0       -7.683763    2.361533    1.614476
    128          1           0      -11.073801    1.129801    2.191132
    129          1           0      -10.208057   -0.316434    1.973546
    130          1           0      -11.584917   -0.454544   -0.245916
    131          1           0      -12.083784    1.246246   -0.053080
    132          1           0      -12.980401    0.065249    2.333374
    133          1           0      -13.430311   -1.100019    1.140834
    134          1           0      -14.159623    1.695739    0.310243
    135          1           0      -16.420615   -0.009050    0.698673
    136          1           0      -15.097135   -0.952856   -0.052736
    137          1           0      -15.647484    0.389037   -0.804452
    138          1           0      -15.977978    1.864832    2.153876
    139          1           0      -14.427099    2.405735    2.554205
    140          1           0      -14.953115    0.774926    3.135734
 ---------------------------------------------------------------------

 SCF Done:  E(RB-LYP) =  -3007.38625766     A.U. after   21 cycles

 Excitation energies and oscillator strengths:

 Excited State   1:      Singlet-A      1.6225 eV  764.15 nm  f=0.0011  <S**2>=0.000
     244 -> 247        0.70438
 This state for optimization and/or second-order correction.
 Total Energy, E(TD-HF/TD-DFT) =  -3007.32663167
 Copying the excited state density for this state as the 1-particle RhoCI density.

 Excited State   2:      Singlet-A      1.8678 eV  663.79 nm  f=0.2564  <S**2>=0.000
     243 -> 247       -0.17162
     245 -> 247       -0.11518
     245 -> 248        0.19042
     246 -> 247        0.65671
     246 <- 247       -0.13757

 Excited State   3:      Singlet-A      1.9321 eV  641.70 nm  f=0.0788  <S**2>=0.000
     243 -> 247        0.47014
     245 -> 247        0.46795
     246 -> 247        0.19740
     246 -> 248       -0.12246

 Excited State   4:      Singlet-A      2.1032 eV  589.49 nm  f=0.0580  <S**2>=0.000
     243 -> 247        0.49155
     245 -> 247       -0.44821
     246 -> 248        0.21258

 Excited State   5:      Singlet-A      2.2218 eV  558.03 nm  f=0.0000  <S**2>=0.000
     242 -> 247        0.70703

 The electronic state is 1-A.
 Alpha  occ. eigenvalues --  -46.26984 -18.83203 -18.82226 -18.77014 -18.76867
 Alpha  occ. eigenvalues --  -18.75956 -18.74273 -14.03506 -14.02933 -14.00949
 Alpha  occ. eigenvalues --  -14.00631 -10.04215 -10.03729  -9.99753  -9.98623
 Alpha  occ. eigenvalues --   -9.97908  -9.97887  -9.97119  -9.96616  -9.96083
 Alpha  occ. eigenvalues --   -9.95986  -9.95550  -9.95055  -9.94751  -9.94650
 Alpha  occ. eigenvalues --   -9.94519  -9.94417  -9.94183  -9.93860  -9.93598
 Alpha  occ. eigenvalues --   -9.93564  -9.93361  -9.93174  -9.93137  -9.93093
 Alpha  occ. eigenvalues --   -9.92814  -9.92807  -9.92721  -9.92631  -9.92622
 Alpha  occ. eigenvalues --   -9.92565  -9.92446  -9.92441  -9.92293  -9.92267
 Alpha  occ. eigenvalues --   -9.92215  -9.92183  -9.92040  -9.92020  -9.91884
 Alpha  occ. eigenvalues --   -9.91838  -9.91745  -9.91630  -9.91361  -9.91326
 Alpha  occ. eigenvalues --   -9.91274  -9.91170  -9.91152  -9.91133  -9.91106
 Alpha  occ. eigenvalues --   -9.90958  -9.90748  -9.90716  -9.90555  -9.90472
 Alpha  occ. eigenvalues --   -9.90386  -2.91666  -1.72089  -1.71551  -1.71378
 Alpha  occ. eigenvalues --   -0.98179  -0.97676  -0.91132  -0.90943  -0.90581
 Alpha  occ. eigenvalues --   -0.90319  -0.87222  -0.86276  -0.85659  -0.85026
 Alpha  occ. eigenvalues --   -0.74985  -0.73566  -0.73470  -0.72818  -0.72249
 Alpha  occ. eigenvalues --   -0.71729  -0.71511  -0.70922  -0.70590  -0.70564
 Alpha  occ. eigenvalues --   -0.69266  -0.69107  -0.67915  -0.67717  -0.67371
 Alpha  occ. eigenvalues --   -0.66199  -0.66087  -0.65419  -0.65067  -0.64613
 Alpha  occ. eigenvalues --   -0.63715  -0.62436  -0.62399  -0.61768  -0.60654
 Alpha  occ. eigenvalues --   -0.60555  -0.60204  -0.59794  -0.59032  -0.58569
 Alpha  occ. eigenvalues --   -0.57900  -0.57186  -0.56579  -0.55152  -0.54990
 Alpha  occ. eigenvalues --   -0.54275  -0.53378  -0.52572  -0.52473  -0.51310
 Alpha  occ. eigenvalues --   -0.51199  -0.51055  -0.50661  -0.50430  -0.50381
 Alpha  occ. eigenvalues --   -0.49849  -0.49458  -0.48977  -0.48744  -0.46530
 Alpha  occ. eigenvalues --   -0.46359  -0.45941  -0.45787  -0.45316  -0.44609
 Alpha  occ. eigenvalues --   -0.43962  -0.43490  -0.43160  -0.42569  -0.42295
 Alpha  occ. eigenvalues --   -0.42187  -0.41760  -0.41596  -0.41462  -0.41300
 Alpha  occ. eigenvalues --   -0.40799  -0.40453  -0.40236  -0.40117  -0.39947
 Alpha  occ. eigenvalues --   -0.39634  -0.39523  -0.39349  -0.39290  -0.38902
 Alpha  occ. eigenvalues --   -0.38764  -0.38564  -0.38456  -0.38309  -0.38037
 Alpha  occ. eigenvalues --   -0.37867  -0.37647  -0.37444  -0.37320  -0.37197
 Alpha  occ. eigenvalues --   -0.37142  -0.36767  -0.36448  -0.36317  -0.36271
 Alpha  occ. eigenvalues --   -0.36020  -0.35916  -0.35799  -0.35686  -0.35630
 Alpha  occ. eigenvalues --   -0.35488  -0.35088  -0.34851  -0.34721  -0.34633
 Alpha  occ. eigenvalues --   -0.34414  -0.34354  -0.34034  -0.34018  -0.33793
 Alpha  occ. eigenvalues --   -0.33594  -0.33424  -0.33408  -0.33285  -0.33110
 Alpha  occ. eigenvalues --   -0.32937  -0.32861  -0.32815  -0.32607  -0.32247
 Alpha  occ. eigenvalues --   -0.32083  -0.32004  -0.31754  -0.31660  -0.31494
 Alpha  occ. eigenvalues --   -0.31334  -0.31155  -0.30697  -0.30638  -0.30595
 Alpha  occ. eigenvalues --   -0.30197  -0.30178  -0.30015  -0.29935  -0.29835
 Alpha  occ. eigenvalues --   -0.29730  -0.29689  -0.29550  -0.29400  -0.29063
 Alpha  occ. eigenvalues --   -0.28899  -0.28723  -0.28694  -0.28333  -0.27982
 Alpha  occ. eigenvalues --   -0.27832  -0.27595  -0.27283  -0.26758  -0.26636
 Alpha  occ. eigenvalues --   -0.26524  -0.26170  -0.26007  -0.25733  -0.25431
 Alpha  occ. eigenvalues --   -0.25368  -0.24971  -0.24345  -0.23908  -0.23507
 Alpha  occ. eigenvalues --   -0.22929  -0.22802  -0.22074  -0.21541  -0.20756
 Alpha  occ. eigenvalues --   -0.20239  -0.19761  -0.18790  -0.17512  -0.17259
 Alpha  occ. eigenvalues --   -0.16083
 Alpha virt. eigenvalues --   -0.11597  -0.06613  -0.05834  -0.04149  -0.02939
 Alpha virt. eigenvalues --   -0.02698  -0.02370  -0.02150  -0.01411   0.00259
 Alpha virt. eigenvalues --    0.01316   0.01858   0.02109   0.02179   0.02593

 Mulliken charges:
               1
     1  Mg   0.700787
     2  C   -0.039252
     3  C   -0.085403
     4  C   -0.020480
     5  C   -0.099526
     6  N   -0.196890
     7  C   -0.069889
     8  C    0.031416
     9  C   -0.047766
    10  C    0.026010
    11  C    0.140603
    12  C    0.079450
    13  C    0.153603
    14  C    0.076576
    15  O   -0.183911
    16  O   -0.272904
    17  N   -0.294641
    18  C    0.197084
    19  C   -0.139675
    20  C    0.053720
    21  C    0.124431
    22  C    0.183344
    23  C   -0.118357
    24  O   -0.163602
    25  C    0.164371
    26  N   -0.257630
    27  C   -0.043600
    28  C    0.025674
    29  C    0.013124
    30  C    0.024946
    31  C    0.137002
    32  C    0.092140
    33  C    0.114799
    34  N   -0.211508
    35  C    0.127520
    36  C   -0.174828
    37  C    0.068965
    38  C    0.111504
    39  C    0.192155
    40  C   -0.013733
    41  O   -0.127257
    42  C    0.045870
    43  C    0.110508
    44  O   -0.141346
    45  O   -0.276594
    46  C    0.208145
    47  C    0.302649
    48  C   -0.099578
    49  C   -0.130003
    50  C    0.163817
    51  C    0.081420
    52  C    0.075861
    53  C    0.095243
    54  C   -0.070502
    55  C    0.114662
    56  C    0.123531
    57  C    0.031392
    58  C    0.115081
    59  C   -0.058087
    60  C    0.093924
    61  C    0.086386
    62  C    0.069626
    63  C    0.125479
    64  C   -0.088236
    65  C    0.085674
    66  C    0.104239
    67  H   -0.054045
    68  H   -0.089738
    69  H   -0.072040
    70  H   -0.038059
    71  H   -0.042510
    72  H   -0.003289
    73  H   -0.014543
    74  H   -0.003869
    75  H   -0.021410
    76  H   -0.003907
    77  H    0.016260
    78  H   -0.018323
    79  H    0.004743
    80  H   -0.037264
    81  H    0.006044
    82  H    0.031012
    83  H   -0.007331
    84  H   -0.006985
    85  H   -0.024846
    86  H   -0.038861
    87  H   -0.008991
    88  H    0.001729
    89  H   -0.010024
    90  H   -0.033056
    91  H   -0.019773
    92  H   -0.006603
    93  H   -0.034526
    94  H    0.005990
    95  H   -0.001266
    96  H   -0.012693
    97  H    0.016741
    98  H   -0.013274
    99  H    0.023729
   100  H    0.008314
   101  H    0.011757
   102  H    0.010953
   103  H   -0.000632
   104  H   -0.028994
   105  H    0.006006
   106  H   -0.016743
   107  H    0.008889
   108  H   -0.030676
   109  H   -0.030558
   110  H   -0.016319
   111  H   -0.018954
   112  H   -0.044574
   113  H   -0.043985
   114  H   -0.040041
   115  H   -0.016563
   116  H   -0.030748
   117  H   -0.015025
   118  H   -0.045843
   119  H   -0.020683
   120  H   -0.045999
   121  H   -0.018583
   122  H   -0.040259
   123  H   -0.042774
   124  H   -0.031210
   125  H   -0.027072
   126  H   -0.019350
   127  H   -0.024101
   128  H   -0.042713
   129  H   -0.026322
   130  H   -0.018715
   131  H   -0.029991
   132  H   -0.042908
   133  H   -0.028736
   134  H   -0.028011
   135  H   -0.017809
   136  H   -0.026552
   137  H   -0.029798
   138  H   -0.022081
   139  H   -0.017294
   140  H   -0.001861
 Sum of Mulliken charges =  -0.00000

 Dipole moment (field-independent basis, Debye):
    X=             -1.6311    Y=              1.3220    Z=             -0.3617  Tot=              2.1304
 Quadrupole moment (field-independent basis, Debye-Ang):
   XX=           -392.1073   YY=           -411.0035   ZZ=           -410.7564
   XY=             -2.1943   XZ=              5.8825   YZ=             56.1984

 Normal termination of Gaussian 16 at Sat Apr 30 04:52:51 2022.
