 Gaussian 16, Revision A.03,
 Gaussian 16:  ES64L-G16RevA.03 25-Dec-2016

 -----------------------------------
 #p cam-b3lyp/Def2SVP td=(nstates=5)
 -----------------------------------

 ------------------------------------------------------
 step_551_chromophore_8 TDDFT with cam-b3lyp functional
 ------------------------------------------------------
 Symbolic Z-matrix:
 Charge =  0 Multiplicity = 1

                         Standard orientation:
 ---------------------------------------------------------------------
 Center     Atomic      Atomic             Coordinates (Angstroms)
 Number     Number       Type             X           Y           Z
 ---------------------------------------------------------------------
      1         12           0        4.599011    0.965894    0.249177
      2          6           0        3.822692   -2.483635    0.612214
      3          6           0        4.517148    0.471943   -3.233098
      4          6           0        4.703087    4.217899   -0.133426
      5          6           0        4.376664    1.252020    3.666656
      6          7           0        4.039778   -0.761892   -1.144657
      7          6           0        3.846915   -2.079948   -0.774182
      8          6           0        3.539817   -2.967066   -1.995945
      9          6           0        4.222684   -2.064477   -3.111907
     10          6           0        4.131797   -0.630144   -2.496735
     11          6           0        5.635354   -2.557882   -3.504056
     12          6           0        2.039040   -3.292359   -2.218285
     13          6           0        1.448044   -4.699663   -1.908627
     14          6           0        0.168917   -4.435760   -1.097114
     15          8           0        0.230523   -4.353391    0.121373
     16          8           0       -0.908910   -4.274908   -1.930288
     17          7           0        4.709740    2.189486   -1.431187
     18          6           0        4.629663    1.771439   -2.744403
     19          6           0        4.693608    2.929645   -3.545549
     20          6           0        4.724322    4.034873   -2.710537
     21          6           0        4.603297    3.539574   -1.412814
     22          6           0        4.808409    2.783367   -5.112169
     23          6           0        4.765832    5.482351   -3.132036
     24          8           0        5.103249    5.774211   -4.261756
     25          6           0        4.480721    6.563721   -2.200553
     26          7           0        4.457861    2.511647    1.564631
     27          6           0        4.635194    3.820163    1.199617
     28          6           0        4.793255    4.749792    2.461873
     29          6           0        4.392825    3.754993    3.659373
     30          6           0        4.452247    2.404468    2.917476
     31          6           0        6.201251    5.384669    2.597736
     32          6           0        3.049915    3.997415    4.178935
     33          6           0        2.824352    5.348741    4.890546
     34          7           0        4.230043   -0.294422    1.902695
     35          6           0        4.182264   -0.061250    3.212747
     36          6           0        3.806806   -1.242149    3.943205
     37          6           0        3.712323   -2.249794    2.968061
     38          6           0        3.982430   -1.603163    1.704924
     39          6           0        3.678984   -1.366588    5.387704
     40          6           0        3.294341   -3.618372    2.770006
     41          8           0        2.892030   -4.449950    3.579684
     42          6           0        3.590818   -3.890566    1.187639
     43          6           0        4.814409   -4.754132    1.085766
     44          8           0        5.832156   -4.578131    1.678100
     45          8           0        4.614649   -5.762815    0.162488
     46          6           0        5.818230   -6.464411   -0.300925
     47          6           0       -2.172272   -4.111628   -1.129239
     48          6           0       -2.680790   -2.696175   -1.146994
     49          6           0       -3.485801   -2.114163   -0.199337
     50          6           0       -4.275089   -2.716147    0.931871
     51          6           0       -3.896825   -0.662517   -0.532709
     52          6           0       -5.105636   -0.675545   -1.573515
     53          6           0       -5.359415    0.735500   -2.012626
     54          6           0       -6.692818    0.928401   -2.911558
     55          6           0       -6.515934    1.666184   -4.262779
     56          6           0       -7.870503    1.579060   -2.127676
     57          6           0       -8.727115    0.503830   -1.377955
     58          6           0       -8.444216    0.460741    0.138370
     59          6           0       -9.489582    1.376417    0.749982
     60          6           0       -8.744429    2.249334    1.838834
     61          6           0      -10.629215    0.515588    1.408395
     62          6           0      -11.874141    0.313367    0.471446
     63          6           0      -13.186888   -0.044904    1.268703
     64          6           0      -14.389495    0.883745    1.000475
     65          6           0      -15.447708    0.045367    0.210440
     66          6           0      -14.966453    1.490111    2.312666
     67          1           0        4.530563    0.220591   -4.295789
     68          1           0        4.809133    5.304658   -0.110376
     69          1           0        4.324343    1.449201    4.739236
     70          1           0        4.035963   -3.928021   -1.865410
     71          1           0        3.684651   -2.153865   -4.055458
     72          1           0        5.892145   -3.449624   -2.930706
     73          1           0        6.313958   -1.754506   -3.220851
     74          1           0        5.726108   -2.652636   -4.586153
     75          1           0        1.721239   -3.022226   -3.225746
     76          1           0        1.451920   -2.594440   -1.623024
     77          1           0        2.165643   -5.321955   -1.374351
     78          1           0        1.225035   -5.103527   -2.896703
     79          1           0        4.084334    3.396697   -5.648105
     80          1           0        4.677478    1.766138   -5.479294
     81          1           0        5.833114    3.029289   -5.392865
     82          1           0        5.356763    6.787695   -1.592086
     83          1           0        3.668952    6.069965   -1.666747
     84          1           0        4.069571    7.475685   -2.633851
     85          1           0        4.042391    5.532700    2.359131
     86          1           0        5.154966    3.721396    4.438292
     87          1           0        6.206761    6.435980    2.309057
     88          1           0        6.966938    4.883851    2.005663
     89          1           0        6.457383    5.352965    3.656836
     90          1           0        2.862464    3.251910    4.951397
     91          1           0        2.447875    3.777680    3.296626
     92          1           0        2.749319    6.169920    4.177555
     93          1           0        3.806173    5.560476    5.312591
     94          1           0        2.122220    5.273453    5.720786
     95          1           0        2.799436   -0.810452    5.710167
     96          1           0        4.495744   -0.899890    5.939968
     97          1           0        3.746658   -2.438244    5.575376
     98          1           0        2.772736   -4.363162    0.643466
     99          1           0        6.514069   -6.672850    0.512477
    100          1           0        6.390121   -5.949640   -1.072703
    101          1           0        5.485594   -7.396853   -0.756386
    102          1           0       -2.130345   -4.409184   -0.081815
    103          1           0       -2.856384   -4.833689   -1.575181
    104          1           0       -2.396790   -2.098043   -2.012596
    105          1           0       -3.814439   -2.422105    1.874284
    106          1           0       -4.201945   -3.803338    0.931994
    107          1           0       -5.296879   -2.344066    0.849695
    108          1           0       -3.043838   -0.163602   -0.992485
    109          1           0       -4.086271   -0.049570    0.348909
    110          1           0       -5.959521   -1.152859   -1.094307
    111          1           0       -4.830124   -1.176295   -2.502024
    112          1           0       -4.534142    1.180649   -2.568043
    113          1           0       -5.431490    1.408951   -1.158307
    114          1           0       -6.937408   -0.113048   -3.120130
    115          1           0       -6.701607    1.060642   -5.149280
    116          1           0       -5.483852    1.979985   -4.414544
    117          1           0       -7.153470    2.549277   -4.314123
    118          1           0       -8.533355    1.959209   -2.904560
    119          1           0       -7.588753    2.424421   -1.499911
    120          1           0       -8.372055   -0.485882   -1.664228
    121          1           0       -9.774790    0.586657   -1.666963
    122          1           0       -7.416977    0.786416    0.297537
    123          1           0       -8.421362   -0.562873    0.512689
    124          1           0       -9.887882    2.046867   -0.012285
    125          1           0       -8.757456    1.780521    2.822130
    126          1           0       -9.212213    3.224132    1.980857
    127          1           0       -7.683763    2.361533    1.614476
    128          1           0      -11.073801    1.129801    2.191132
    129          1           0      -10.208057   -0.316434    1.973546
    130          1           0      -11.584917   -0.454544   -0.245916
    131          1           0      -12.083784    1.246246   -0.053080
    132          1           0      -12.980401    0.065249    2.333374
    133          1           0      -13.430311   -1.100019    1.140834
    134          1           0      -14.159623    1.695739    0.310243
    135          1           0      -16.420615   -0.009050    0.698673
    136          1           0      -15.097135   -0.952856   -0.052736
    137          1           0      -15.647484    0.389037   -0.804452
    138          1           0      -15.977978    1.864832    2.153876
    139          1           0      -14.427099    2.405735    2.554205
    140          1           0      -14.953115    0.774926    3.135734
 ---------------------------------------------------------------------

 SCF Done:  E(RCAM-B3LYP) =  -3007.18439263     A.U. after   17 cycles

 Excitation energies and oscillator strengths:

 Excited State   1:      Singlet-A      1.7634 eV  703.09 nm  f=0.3639  <S**2>=0.000
     245 -> 248       -0.18196
     246 -> 247        0.68567
     245 <- 248       -0.10702
 This state for optimization and/or second-order correction.
 Total Energy, E(TD-HF/TD-DFT) =  -3007.11958845
 Copying the excited state density for this state as the 1-particle RhoCI density.

 Excited State   2:      Singlet-A      2.2518 eV  550.61 nm  f=0.1312  <S**2>=0.000
     245 -> 247        0.64768
     246 -> 248        0.27319

 Excited State   3:      Singlet-A      3.3594 eV  369.07 nm  f=0.0050  <S**2>=0.000
     240 -> 247       -0.26094
     240 -> 249       -0.13007
     242 -> 247       -0.24910
     243 -> 247        0.56796

 Excited State   4:      Singlet-A      3.4035 eV  364.29 nm  f=0.0111  <S**2>=0.000
     239 -> 247        0.19105
     239 -> 249        0.12118
     240 -> 247        0.46637
     240 -> 249        0.25707
     241 -> 247       -0.15469
     242 -> 247       -0.10725
     243 -> 247        0.24184
     246 -> 248       -0.16660

 Excited State   5:      Singlet-A      3.5218 eV  352.05 nm  f=0.0076  <S**2>=0.000
     240 -> 247        0.11824
     241 -> 247        0.63466
     243 -> 247        0.12567
     246 -> 248       -0.21818

 The electronic state is 1-A.
 Alpha  occ. eigenvalues --  -46.88527 -19.26198 -19.25337 -19.20164 -19.20054
 Alpha  occ. eigenvalues --  -19.19363 -19.17216 -14.42617 -14.41608 -14.39524
 Alpha  occ. eigenvalues --  -14.38929 -10.39582 -10.39267 -10.35385 -10.33423
 Alpha  occ. eigenvalues --  -10.32063 -10.32031 -10.31912 -10.30965 -10.30671
 Alpha  occ. eigenvalues --  -10.30218 -10.29690 -10.29632 -10.29368 -10.29027
 Alpha  occ. eigenvalues --  -10.28632 -10.28361 -10.28360 -10.28231 -10.27881
 Alpha  occ. eigenvalues --  -10.27847 -10.27568 -10.27558 -10.27223 -10.27072
 Alpha  occ. eigenvalues --  -10.26928 -10.26796 -10.26507 -10.26454 -10.26453
 Alpha  occ. eigenvalues --  -10.26236 -10.26154 -10.26122 -10.26097 -10.26011
 Alpha  occ. eigenvalues --  -10.25986 -10.25975 -10.25930 -10.25809 -10.25724
 Alpha  occ. eigenvalues --  -10.25572 -10.25562 -10.25405 -10.25317 -10.25219
 Alpha  occ. eigenvalues --  -10.25144 -10.24952 -10.24866 -10.24788 -10.24735
 Alpha  occ. eigenvalues --  -10.24621 -10.24371 -10.24328 -10.24166 -10.24102
 Alpha  occ. eigenvalues --  -10.23969  -3.17115  -1.92013  -1.91574  -1.91416
 Alpha  occ. eigenvalues --   -1.16956  -1.16183  -1.09422  -1.09308  -1.08806
 Alpha  occ. eigenvalues --   -1.08258  -1.05124  -1.03794  -1.03300  -1.02595
 Alpha  occ. eigenvalues --   -0.92337  -0.90344  -0.90316  -0.89616  -0.89059
 Alpha  occ. eigenvalues --   -0.88371  -0.88165  -0.87591  -0.87263  -0.87117
 Alpha  occ. eigenvalues --   -0.85669  -0.85461  -0.84153  -0.83913  -0.83573
 Alpha  occ. eigenvalues --   -0.82227  -0.82135  -0.81348  -0.80867  -0.80529
 Alpha  occ. eigenvalues --   -0.79520  -0.78198  -0.77991  -0.77286  -0.76128
 Alpha  occ. eigenvalues --   -0.75991  -0.75547  -0.75038  -0.74281  -0.73760
 Alpha  occ. eigenvalues --   -0.72993  -0.72130  -0.71455  -0.69845  -0.69737
 Alpha  occ. eigenvalues --   -0.69055  -0.67893  -0.66945  -0.66856  -0.65379
 Alpha  occ. eigenvalues --   -0.65305  -0.65282  -0.64726  -0.64461  -0.64433
 Alpha  occ. eigenvalues --   -0.63764  -0.63400  -0.62869  -0.62607  -0.60195
 Alpha  occ. eigenvalues --   -0.59925  -0.59504  -0.59338  -0.58682  -0.58317
 Alpha  occ. eigenvalues --   -0.57557  -0.56967  -0.56248  -0.55526  -0.55412
 Alpha  occ. eigenvalues --   -0.55249  -0.55173  -0.54939  -0.54760  -0.54247
 Alpha  occ. eigenvalues --   -0.53725  -0.53466  -0.53064  -0.52757  -0.52521
 Alpha  occ. eigenvalues --   -0.52191  -0.52044  -0.51973  -0.51903  -0.51790
 Alpha  occ. eigenvalues --   -0.51387  -0.51057  -0.51032  -0.50695  -0.50427
 Alpha  occ. eigenvalues --   -0.50252  -0.49995  -0.49778  -0.49733  -0.49482
 Alpha  occ. eigenvalues --   -0.49436  -0.49176  -0.49098  -0.48755  -0.48378
 Alpha  occ. eigenvalues --   -0.48244  -0.48157  -0.47947  -0.47751  -0.47685
 Alpha  occ. eigenvalues --   -0.47637  -0.47183  -0.46871  -0.46669  -0.46593
 Alpha  occ. eigenvalues --   -0.46242  -0.46037  -0.45984  -0.45757  -0.45683
 Alpha  occ. eigenvalues --   -0.45525  -0.45286  -0.45120  -0.45063  -0.44825
 Alpha  occ. eigenvalues --   -0.44727  -0.44629  -0.44525  -0.44428  -0.44138
 Alpha  occ. eigenvalues --   -0.43773  -0.43519  -0.43488  -0.43239  -0.43155
 Alpha  occ. eigenvalues --   -0.42928  -0.42653  -0.42506  -0.42224  -0.41876
 Alpha  occ. eigenvalues --   -0.41772  -0.41578  -0.41407  -0.41321  -0.41040
 Alpha  occ. eigenvalues --   -0.40953  -0.40820  -0.40734  -0.40423  -0.40257
 Alpha  occ. eigenvalues --   -0.39880  -0.39854  -0.39654  -0.39603  -0.38929
 Alpha  occ. eigenvalues --   -0.38707  -0.38523  -0.38155  -0.37544  -0.37527
 Alpha  occ. eigenvalues --   -0.37429  -0.37294  -0.37132  -0.36943  -0.36703
 Alpha  occ. eigenvalues --   -0.36436  -0.35467  -0.35024  -0.34752  -0.34446
 Alpha  occ. eigenvalues --   -0.33758  -0.33289  -0.33179  -0.31562  -0.30722
 Alpha  occ. eigenvalues --   -0.30229  -0.29797  -0.29418  -0.29271  -0.24094
 Alpha  occ. eigenvalues --   -0.21506
 Alpha virt. eigenvalues --   -0.08738  -0.01477   0.00729   0.02467   0.03184
 Alpha virt. eigenvalues --    0.04429   0.04955   0.05344   0.05842   0.07001
 Alpha virt. eigenvalues --    0.07959   0.08137   0.08312   0.08824   0.09076

 Mulliken charges:
               1
     1  Mg   0.833863
     2  C   -0.067406
     3  C   -0.092397
     4  C   -0.050250
     5  C   -0.108597
     6  N   -0.260751
     7  C   -0.024799
     8  C   -0.020581
     9  C   -0.102666
    10  C    0.041568
    11  C    0.086094
    12  C    0.032892
    13  C    0.081874
    14  C    0.152924
    15  O   -0.226966
    16  O   -0.336384
    17  N   -0.379695
    18  C    0.190721
    19  C   -0.146708
    20  C   -0.022110
    21  C    0.151893
    22  C    0.137147
    23  C   -0.036114
    24  O   -0.203287
    25  C    0.075005
    26  N   -0.335471
    27  C   -0.014954
    28  C   -0.030549
    29  C   -0.045135
    30  C    0.049648
    31  C    0.080264
    32  C    0.036417
    33  C    0.051126
    34  N   -0.302422
    35  C    0.135381
    36  C   -0.164638
    37  C   -0.002155
    38  C    0.147432
    39  C    0.132124
    40  C    0.079563
    41  O   -0.164486
    42  C   -0.026069
    43  C    0.205344
    44  O   -0.178402
    45  O   -0.342491
    46  C    0.169773
    47  C    0.268347
    48  C   -0.121442
    49  C   -0.150921
    50  C    0.102573
    51  C    0.020050
    52  C    0.025846
    53  C    0.045480
    54  C   -0.123867
    55  C    0.055177
    56  C    0.065981
    57  C   -0.020921
    58  C    0.066492
    59  C   -0.118452
    60  C    0.039009
    61  C    0.033380
    62  C    0.020354
    63  C    0.066807
    64  C   -0.150475
    65  C    0.027237
    66  C    0.045379
    67  H   -0.017734
    68  H   -0.054197
    69  H   -0.036275
    70  H   -0.004758
    71  H   -0.006814
    72  H    0.017575
    73  H    0.011982
    74  H    0.020223
    75  H    0.010364
    76  H    0.027166
    77  H    0.045704
    78  H    0.018869
    79  H    0.029856
    80  H   -0.012922
    81  H    0.032022
    82  H    0.056906
    83  H    0.019857
    84  H    0.027475
    85  H    0.009409
    86  H   -0.002759
    87  H    0.014936
    88  H    0.027499
    89  H    0.012592
    90  H   -0.003346
    91  H    0.009186
    92  H    0.016096
    93  H   -0.010865
    94  H    0.031244
    95  H    0.026131
    96  H    0.015046
    97  H    0.044791
    98  H    0.031065
    99  H    0.049797
   100  H    0.028098
   101  H    0.035525
   102  H    0.042558
   103  H    0.028331
   104  H    0.005301
   105  H    0.032153
   106  H    0.006986
   107  H    0.030224
   108  H    0.000685
   109  H   -0.000176
   110  H    0.004677
   111  H    0.008558
   112  H   -0.014508
   113  H   -0.017877
   114  H   -0.006330
   115  H    0.008076
   116  H   -0.006019
   117  H    0.009042
   118  H   -0.013967
   119  H    0.005378
   120  H   -0.017615
   121  H    0.007781
   122  H   -0.015629
   123  H   -0.014080
   124  H    0.000232
   125  H   -0.002654
   126  H    0.005491
   127  H   -0.000596
   128  H   -0.014037
   129  H    0.001638
   130  H    0.006731
   131  H   -0.003036
   132  H   -0.013139
   133  H    0.001054
   134  H    0.003728
   135  H    0.006331
   136  H   -0.002247
   137  H   -0.004578
   138  H    0.002640
   139  H    0.007027
   140  H    0.020520
 Sum of Mulliken charges =  -0.00000

 Dipole moment (field-independent basis, Debye):
    X=             -1.6383    Y=              0.9893    Z=             -0.1966  Tot=              1.9239
 Quadrupole moment (field-independent basis, Debye-Ang):
   XX=           -392.5293   YY=           -407.9300   ZZ=           -408.9108
   XY=             -4.4017   XZ=              6.7274   YZ=             58.7199

 Normal termination of Gaussian 16 at Sat Apr 30 03:55:49 2022.
