 Gaussian 16, Revision A.03,
 Gaussian 16:  ES64L-G16RevA.03 25-Dec-2016

 ---------------------------------
 #p PBE1PBE/Def2SVP td=(nstates=5)
 ---------------------------------

 ----------------------------------------------------
 step_551_chromophore_8 TDDFT with PBE1PBE functional
 ----------------------------------------------------
 Symbolic Z-matrix:
 Charge =  0 Multiplicity = 1

                         Standard orientation:
 ---------------------------------------------------------------------
 Center     Atomic      Atomic             Coordinates (Angstroms)
 Number     Number       Type             X           Y           Z
 ---------------------------------------------------------------------
      1         12           0        4.599011    0.965894    0.249177
      2          6           0        3.822692   -2.483635    0.612214
      3          6           0        4.517148    0.471943   -3.233098
      4          6           0        4.703087    4.217899   -0.133426
      5          6           0        4.376664    1.252020    3.666656
      6          7           0        4.039778   -0.761892   -1.144657
      7          6           0        3.846915   -2.079948   -0.774182
      8          6           0        3.539817   -2.967066   -1.995945
      9          6           0        4.222684   -2.064477   -3.111907
     10          6           0        4.131797   -0.630144   -2.496735
     11          6           0        5.635354   -2.557882   -3.504056
     12          6           0        2.039040   -3.292359   -2.218285
     13          6           0        1.448044   -4.699663   -1.908627
     14          6           0        0.168917   -4.435760   -1.097114
     15          8           0        0.230523   -4.353391    0.121373
     16          8           0       -0.908910   -4.274908   -1.930288
     17          7           0        4.709740    2.189486   -1.431187
     18          6           0        4.629663    1.771439   -2.744403
     19          6           0        4.693608    2.929645   -3.545549
     20          6           0        4.724322    4.034873   -2.710537
     21          6           0        4.603297    3.539574   -1.412814
     22          6           0        4.808409    2.783367   -5.112169
     23          6           0        4.765832    5.482351   -3.132036
     24          8           0        5.103249    5.774211   -4.261756
     25          6           0        4.480721    6.563721   -2.200553
     26          7           0        4.457861    2.511647    1.564631
     27          6           0        4.635194    3.820163    1.199617
     28          6           0        4.793255    4.749792    2.461873
     29          6           0        4.392825    3.754993    3.659373
     30          6           0        4.452247    2.404468    2.917476
     31          6           0        6.201251    5.384669    2.597736
     32          6           0        3.049915    3.997415    4.178935
     33          6           0        2.824352    5.348741    4.890546
     34          7           0        4.230043   -0.294422    1.902695
     35          6           0        4.182264   -0.061250    3.212747
     36          6           0        3.806806   -1.242149    3.943205
     37          6           0        3.712323   -2.249794    2.968061
     38          6           0        3.982430   -1.603163    1.704924
     39          6           0        3.678984   -1.366588    5.387704
     40          6           0        3.294341   -3.618372    2.770006
     41          8           0        2.892030   -4.449950    3.579684
     42          6           0        3.590818   -3.890566    1.187639
     43          6           0        4.814409   -4.754132    1.085766
     44          8           0        5.832156   -4.578131    1.678100
     45          8           0        4.614649   -5.762815    0.162488
     46          6           0        5.818230   -6.464411   -0.300925
     47          6           0       -2.172272   -4.111628   -1.129239
     48          6           0       -2.680790   -2.696175   -1.146994
     49          6           0       -3.485801   -2.114163   -0.199337
     50          6           0       -4.275089   -2.716147    0.931871
     51          6           0       -3.896825   -0.662517   -0.532709
     52          6           0       -5.105636   -0.675545   -1.573515
     53          6           0       -5.359415    0.735500   -2.012626
     54          6           0       -6.692818    0.928401   -2.911558
     55          6           0       -6.515934    1.666184   -4.262779
     56          6           0       -7.870503    1.579060   -2.127676
     57          6           0       -8.727115    0.503830   -1.377955
     58          6           0       -8.444216    0.460741    0.138370
     59          6           0       -9.489582    1.376417    0.749982
     60          6           0       -8.744429    2.249334    1.838834
     61          6           0      -10.629215    0.515588    1.408395
     62          6           0      -11.874141    0.313367    0.471446
     63          6           0      -13.186888   -0.044904    1.268703
     64          6           0      -14.389495    0.883745    1.000475
     65          6           0      -15.447708    0.045367    0.210440
     66          6           0      -14.966453    1.490111    2.312666
     67          1           0        4.530563    0.220591   -4.295789
     68          1           0        4.809133    5.304658   -0.110376
     69          1           0        4.324343    1.449201    4.739236
     70          1           0        4.035963   -3.928021   -1.865410
     71          1           0        3.684651   -2.153865   -4.055458
     72          1           0        5.892145   -3.449624   -2.930706
     73          1           0        6.313958   -1.754506   -3.220851
     74          1           0        5.726108   -2.652636   -4.586153
     75          1           0        1.721239   -3.022226   -3.225746
     76          1           0        1.451920   -2.594440   -1.623024
     77          1           0        2.165643   -5.321955   -1.374351
     78          1           0        1.225035   -5.103527   -2.896703
     79          1           0        4.084334    3.396697   -5.648105
     80          1           0        4.677478    1.766138   -5.479294
     81          1           0        5.833114    3.029289   -5.392865
     82          1           0        5.356763    6.787695   -1.592086
     83          1           0        3.668952    6.069965   -1.666747
     84          1           0        4.069571    7.475685   -2.633851
     85          1           0        4.042391    5.532700    2.359131
     86          1           0        5.154966    3.721396    4.438292
     87          1           0        6.206761    6.435980    2.309057
     88          1           0        6.966938    4.883851    2.005663
     89          1           0        6.457383    5.352965    3.656836
     90          1           0        2.862464    3.251910    4.951397
     91          1           0        2.447875    3.777680    3.296626
     92          1           0        2.749319    6.169920    4.177555
     93          1           0        3.806173    5.560476    5.312591
     94          1           0        2.122220    5.273453    5.720786
     95          1           0        2.799436   -0.810452    5.710167
     96          1           0        4.495744   -0.899890    5.939968
     97          1           0        3.746658   -2.438244    5.575376
     98          1           0        2.772736   -4.363162    0.643466
     99          1           0        6.514069   -6.672850    0.512477
    100          1           0        6.390121   -5.949640   -1.072703
    101          1           0        5.485594   -7.396853   -0.756386
    102          1           0       -2.130345   -4.409184   -0.081815
    103          1           0       -2.856384   -4.833689   -1.575181
    104          1           0       -2.396790   -2.098043   -2.012596
    105          1           0       -3.814439   -2.422105    1.874284
    106          1           0       -4.201945   -3.803338    0.931994
    107          1           0       -5.296879   -2.344066    0.849695
    108          1           0       -3.043838   -0.163602   -0.992485
    109          1           0       -4.086271   -0.049570    0.348909
    110          1           0       -5.959521   -1.152859   -1.094307
    111          1           0       -4.830124   -1.176295   -2.502024
    112          1           0       -4.534142    1.180649   -2.568043
    113          1           0       -5.431490    1.408951   -1.158307
    114          1           0       -6.937408   -0.113048   -3.120130
    115          1           0       -6.701607    1.060642   -5.149280
    116          1           0       -5.483852    1.979985   -4.414544
    117          1           0       -7.153470    2.549277   -4.314123
    118          1           0       -8.533355    1.959209   -2.904560
    119          1           0       -7.588753    2.424421   -1.499911
    120          1           0       -8.372055   -0.485882   -1.664228
    121          1           0       -9.774790    0.586657   -1.666963
    122          1           0       -7.416977    0.786416    0.297537
    123          1           0       -8.421362   -0.562873    0.512689
    124          1           0       -9.887882    2.046867   -0.012285
    125          1           0       -8.757456    1.780521    2.822130
    126          1           0       -9.212213    3.224132    1.980857
    127          1           0       -7.683763    2.361533    1.614476
    128          1           0      -11.073801    1.129801    2.191132
    129          1           0      -10.208057   -0.316434    1.973546
    130          1           0      -11.584917   -0.454544   -0.245916
    131          1           0      -12.083784    1.246246   -0.053080
    132          1           0      -12.980401    0.065249    2.333374
    133          1           0      -13.430311   -1.100019    1.140834
    134          1           0      -14.159623    1.695739    0.310243
    135          1           0      -16.420615   -0.009050    0.698673
    136          1           0      -15.097135   -0.952856   -0.052736
    137          1           0      -15.647484    0.389037   -0.804452
    138          1           0      -15.977978    1.864832    2.153876
    139          1           0      -14.427099    2.405735    2.554205
    140          1           0      -14.953115    0.774926    3.135734
 ---------------------------------------------------------------------

 SCF Done:  E(RPBE1PBE) =  -3005.37186691     A.U. after   15 cycles

 Excitation energies and oscillator strengths:

 Excited State   1:      Singlet-A      1.9163 eV  647.01 nm  f=0.3547  <S**2>=0.000
     245 -> 248        0.17807
     246 -> 247        0.69188
     246 <- 247       -0.10392
 This state for optimization and/or second-order correction.
 Total Energy, E(TD-HF/TD-DFT) =  -3005.30144547
 Copying the excited state density for this state as the 1-particle RhoCI density.

 Excited State   2:      Singlet-A      2.2536 eV  550.16 nm  f=0.1240  <S**2>=0.000
     245 -> 247        0.65671
     246 -> 248       -0.24999

 Excited State   3:      Singlet-A      2.8791 eV  430.64 nm  f=0.0002  <S**2>=0.000
     244 -> 247        0.68434
     244 -> 249        0.10597
     244 -> 250        0.10704

 Excited State   4:      Singlet-A      2.9531 eV  419.85 nm  f=0.0020  <S**2>=0.000
     240 -> 247        0.24878
     241 -> 247        0.53217
     241 -> 249       -0.14041
     242 -> 247       -0.32631

 Excited State   5:      Singlet-A      3.0182 eV  410.79 nm  f=0.0022  <S**2>=0.000
     241 -> 247        0.30750
     242 -> 247        0.61654

 The electronic state is 1-A.
 Alpha  occ. eigenvalues --  -46.91927 -19.26835 -19.25883 -19.20258 -19.20224
 Alpha  occ. eigenvalues --  -19.19441 -19.17569 -14.42010 -14.41249 -14.39053
 Alpha  occ. eigenvalues --  -14.38684 -10.36568 -10.36152 -10.32403 -10.30699
 Alpha  occ. eigenvalues --  -10.29549 -10.29416 -10.29185 -10.28809 -10.28289
 Alpha  occ. eigenvalues --  -10.28078 -10.27515 -10.27069 -10.26901 -10.26698
 Alpha  occ. eigenvalues --  -10.26508 -10.26283 -10.26140 -10.25734 -10.25728
 Alpha  occ. eigenvalues --  -10.25375 -10.25315 -10.25184 -10.24688 -10.24684
 Alpha  occ. eigenvalues --  -10.24658 -10.24498 -10.24351 -10.23964 -10.23833
 Alpha  occ. eigenvalues --  -10.23819 -10.23779 -10.23664 -10.23609 -10.23537
 Alpha  occ. eigenvalues --  -10.23535 -10.23532 -10.23528 -10.23458 -10.23266
 Alpha  occ. eigenvalues --  -10.23115 -10.23098 -10.23027 -10.22975 -10.22849
 Alpha  occ. eigenvalues --  -10.22562 -10.22513 -10.22416 -10.22365 -10.22187
 Alpha  occ. eigenvalues --  -10.22125 -10.21933 -10.21729 -10.21650 -10.21566
 Alpha  occ. eigenvalues --  -10.21366  -3.14093  -1.86932  -1.86472  -1.86316
 Alpha  occ. eigenvalues --   -1.11597  -1.10918  -1.04191  -1.04034  -1.03518
 Alpha  occ. eigenvalues --   -1.03052  -0.99684  -0.98564  -0.97908  -0.97250
 Alpha  occ. eigenvalues --   -0.86544  -0.84602  -0.84413  -0.83691  -0.83238
 Alpha  occ. eigenvalues --   -0.82731  -0.82249  -0.81868  -0.81535  -0.81222
 Alpha  occ. eigenvalues --   -0.80086  -0.79759  -0.78362  -0.78171  -0.77787
 Alpha  occ. eigenvalues --   -0.76444  -0.76322  -0.75572  -0.75194  -0.74794
 Alpha  occ. eigenvalues --   -0.73619  -0.72427  -0.72263  -0.71644  -0.70369
 Alpha  occ. eigenvalues --   -0.70137  -0.69629  -0.69423  -0.68399  -0.67922
 Alpha  occ. eigenvalues --   -0.67400  -0.66433  -0.65892  -0.64167  -0.64065
 Alpha  occ. eigenvalues --   -0.63466  -0.62091  -0.61376  -0.61126  -0.59838
 Alpha  occ. eigenvalues --   -0.59728  -0.59470  -0.59256  -0.59003  -0.58556
 Alpha  occ. eigenvalues --   -0.58145  -0.57616  -0.57090  -0.57052  -0.54586
 Alpha  occ. eigenvalues --   -0.54430  -0.54105  -0.53877  -0.53262  -0.52755
 Alpha  occ. eigenvalues --   -0.52038  -0.51418  -0.50829  -0.50051  -0.49922
 Alpha  occ. eigenvalues --   -0.49692  -0.49567  -0.49336  -0.49259  -0.48571
 Alpha  occ. eigenvalues --   -0.48244  -0.47909  -0.47577  -0.47234  -0.47189
 Alpha  occ. eigenvalues --   -0.46769  -0.46581  -0.46422  -0.46290  -0.46241
 Alpha  occ. eigenvalues --   -0.45981  -0.45625  -0.45583  -0.45234  -0.45000
 Alpha  occ. eigenvalues --   -0.44833  -0.44530  -0.44331  -0.44285  -0.44048
 Alpha  occ. eigenvalues --   -0.43953  -0.43801  -0.43731  -0.43321  -0.42921
 Alpha  occ. eigenvalues --   -0.42834  -0.42800  -0.42591  -0.42408  -0.42319
 Alpha  occ. eigenvalues --   -0.42252  -0.41831  -0.41613  -0.41301  -0.41205
 Alpha  occ. eigenvalues --   -0.40959  -0.40695  -0.40629  -0.40523  -0.40283
 Alpha  occ. eigenvalues --   -0.40235  -0.40054  -0.39908  -0.39681  -0.39524
 Alpha  occ. eigenvalues --   -0.39466  -0.39345  -0.39210  -0.39190  -0.38868
 Alpha  occ. eigenvalues --   -0.38487  -0.38227  -0.38164  -0.37990  -0.37846
 Alpha  occ. eigenvalues --   -0.37736  -0.37439  -0.37330  -0.36949  -0.36649
 Alpha  occ. eigenvalues --   -0.36560  -0.36435  -0.36234  -0.36105  -0.35983
 Alpha  occ. eigenvalues --   -0.35680  -0.35648  -0.35575  -0.35283  -0.35060
 Alpha  occ. eigenvalues --   -0.34753  -0.34588  -0.34494  -0.34460  -0.33770
 Alpha  occ. eigenvalues --   -0.33555  -0.33497  -0.32888  -0.32509  -0.32423
 Alpha  occ. eigenvalues --   -0.32276  -0.32115  -0.31980  -0.31854  -0.31526
 Alpha  occ. eigenvalues --   -0.31499  -0.30432  -0.29754  -0.29704  -0.29617
 Alpha  occ. eigenvalues --   -0.28905  -0.28565  -0.28092  -0.27084  -0.25828
 Alpha  occ. eigenvalues --   -0.25523  -0.25237  -0.24551  -0.24514  -0.21015
 Alpha  occ. eigenvalues --   -0.19087
 Alpha virt. eigenvalues --   -0.11213  -0.04985  -0.03496  -0.01473  -0.00243
 Alpha virt. eigenvalues --    0.00068   0.00713   0.00826   0.01441   0.03188
 Alpha virt. eigenvalues --    0.04246   0.04614   0.04986   0.05052   0.05445

 Mulliken charges:
               1
     1  Mg   0.981007
     2  C   -0.074451
     3  C   -0.090599
     4  C   -0.061077
     5  C   -0.089864
     6  N   -0.362754
     7  C    0.052715
     8  C   -0.101034
     9  C   -0.184471
    10  C    0.090190
    11  C    0.031028
    12  C   -0.003136
    13  C    0.001115
    14  C    0.212642
    15  O   -0.257267
    16  O   -0.364286
    17  N   -0.493702
    18  C    0.212141
    19  C   -0.167226
    20  C   -0.077920
    21  C    0.184773
    22  C    0.081132
    23  C    0.023206
    24  O   -0.238077
    25  C   -0.004854
    26  N   -0.438907
    27  C    0.026530
    28  C   -0.107113
    29  C   -0.125687
    30  C    0.084088
    31  C    0.023611
    32  C   -0.023889
    33  C   -0.021735
    34  N   -0.432421
    35  C    0.154764
    36  C   -0.182689
    37  C   -0.046366
    38  C    0.197206
    39  C    0.075499
    40  C    0.164708
    41  O   -0.210581
    42  C   -0.142536
    43  C    0.304000
    44  O   -0.214525
    45  O   -0.376556
    46  C    0.113651
    47  C    0.223374
    48  C   -0.130354
    49  C   -0.191676
    50  C    0.036507
    51  C   -0.044959
    52  C   -0.045432
    53  C    0.000633
    54  C   -0.206171
    55  C   -0.004510
    56  C    0.007483
    57  C   -0.087370
    58  C    0.017199
    59  C   -0.208215
    60  C   -0.019874
    61  C   -0.021591
    62  C   -0.041917
    63  C    0.013256
    64  C   -0.242552
    65  C   -0.028937
    66  C   -0.018780
    67  H    0.013299
    68  H   -0.017365
    69  H   -0.004609
    70  H    0.037637
    71  H    0.029847
    72  H    0.046683
    73  H    0.040846
    74  H    0.046820
    75  H    0.041391
    76  H    0.060873
    77  H    0.075772
    78  H    0.051897
    79  H    0.057458
    80  H    0.015192
    81  H    0.060362
    82  H    0.083108
    83  H    0.048527
    84  H    0.056273
    85  H    0.046449
    86  H    0.032488
    87  H    0.042016
    88  H    0.054543
    89  H    0.040496
    90  H    0.031100
    91  H    0.043213
    92  H    0.043761
    93  H    0.018597
    94  H    0.058768
    95  H    0.053711
    96  H    0.042173
    97  H    0.072040
    98  H    0.076944
    99  H    0.070834
   100  H    0.049888
   101  H    0.057087
   102  H    0.069164
   103  H    0.055255
   104  H    0.034131
   105  H    0.060656
   106  H    0.034643
   107  H    0.056554
   108  H    0.033704
   109  H    0.031741
   110  H    0.040191
   111  H    0.041876
   112  H    0.017526
   113  H    0.013452
   114  H    0.032450
   115  H    0.035532
   116  H    0.021300
   117  H    0.035359
   118  H    0.020943
   119  H    0.037026
   120  H    0.015525
   121  H    0.040461
   122  H    0.019553
   123  H    0.017056
   124  H    0.037448
   125  H    0.025022
   126  H    0.033430
   127  H    0.026158
   128  H    0.021560
   129  H    0.032203
   130  H    0.040020
   131  H    0.028791
   132  H    0.019610
   133  H    0.032659
   134  H    0.040071
   135  H    0.032973
   136  H    0.024503
   137  H    0.022977
   138  H    0.030841
   139  H    0.035988
   140  H    0.047134
 Sum of Mulliken charges =  -0.00000

 Dipole moment (field-independent basis, Debye):
    X=             -1.5619    Y=              1.3853    Z=             -0.3693  Tot=              2.1202
 Quadrupole moment (field-independent basis, Debye-Ang):
   XX=           -389.0752   YY=           -404.3854   ZZ=           -404.2360
   XY=             -2.8531   XZ=              5.8288   YZ=             59.5199

 Normal termination of Gaussian 16 at Sat Apr 30 04:12:13 2022.
