 Gaussian 16, Revision A.03,
 Gaussian 16:  ES64L-G16RevA.03 25-Dec-2016

 --------------------------------
 #p wB97XD/Def2SVP td=(nstates=5)
 --------------------------------

 ---------------------------------------------------
 step_551_chromophore_8 TDDFT with wB97XD functional
 ---------------------------------------------------
 Symbolic Z-matrix:
 Charge =  0 Multiplicity = 1

                         Standard orientation:
 ---------------------------------------------------------------------
 Center     Atomic      Atomic             Coordinates (Angstroms)
 Number     Number       Type             X           Y           Z
 ---------------------------------------------------------------------
      1         12           0        4.599011    0.965894    0.249177
      2          6           0        3.822692   -2.483635    0.612214
      3          6           0        4.517148    0.471943   -3.233098
      4          6           0        4.703087    4.217899   -0.133426
      5          6           0        4.376664    1.252020    3.666656
      6          7           0        4.039778   -0.761892   -1.144657
      7          6           0        3.846915   -2.079948   -0.774182
      8          6           0        3.539817   -2.967066   -1.995945
      9          6           0        4.222684   -2.064477   -3.111907
     10          6           0        4.131797   -0.630144   -2.496735
     11          6           0        5.635354   -2.557882   -3.504056
     12          6           0        2.039040   -3.292359   -2.218285
     13          6           0        1.448044   -4.699663   -1.908627
     14          6           0        0.168917   -4.435760   -1.097114
     15          8           0        0.230523   -4.353391    0.121373
     16          8           0       -0.908910   -4.274908   -1.930288
     17          7           0        4.709740    2.189486   -1.431187
     18          6           0        4.629663    1.771439   -2.744403
     19          6           0        4.693608    2.929645   -3.545549
     20          6           0        4.724322    4.034873   -2.710537
     21          6           0        4.603297    3.539574   -1.412814
     22          6           0        4.808409    2.783367   -5.112169
     23          6           0        4.765832    5.482351   -3.132036
     24          8           0        5.103249    5.774211   -4.261756
     25          6           0        4.480721    6.563721   -2.200553
     26          7           0        4.457861    2.511647    1.564631
     27          6           0        4.635194    3.820163    1.199617
     28          6           0        4.793255    4.749792    2.461873
     29          6           0        4.392825    3.754993    3.659373
     30          6           0        4.452247    2.404468    2.917476
     31          6           0        6.201251    5.384669    2.597736
     32          6           0        3.049915    3.997415    4.178935
     33          6           0        2.824352    5.348741    4.890546
     34          7           0        4.230043   -0.294422    1.902695
     35          6           0        4.182264   -0.061250    3.212747
     36          6           0        3.806806   -1.242149    3.943205
     37          6           0        3.712323   -2.249794    2.968061
     38          6           0        3.982430   -1.603163    1.704924
     39          6           0        3.678984   -1.366588    5.387704
     40          6           0        3.294341   -3.618372    2.770006
     41          8           0        2.892030   -4.449950    3.579684
     42          6           0        3.590818   -3.890566    1.187639
     43          6           0        4.814409   -4.754132    1.085766
     44          8           0        5.832156   -4.578131    1.678100
     45          8           0        4.614649   -5.762815    0.162488
     46          6           0        5.818230   -6.464411   -0.300925
     47          6           0       -2.172272   -4.111628   -1.129239
     48          6           0       -2.680790   -2.696175   -1.146994
     49          6           0       -3.485801   -2.114163   -0.199337
     50          6           0       -4.275089   -2.716147    0.931871
     51          6           0       -3.896825   -0.662517   -0.532709
     52          6           0       -5.105636   -0.675545   -1.573515
     53          6           0       -5.359415    0.735500   -2.012626
     54          6           0       -6.692818    0.928401   -2.911558
     55          6           0       -6.515934    1.666184   -4.262779
     56          6           0       -7.870503    1.579060   -2.127676
     57          6           0       -8.727115    0.503830   -1.377955
     58          6           0       -8.444216    0.460741    0.138370
     59          6           0       -9.489582    1.376417    0.749982
     60          6           0       -8.744429    2.249334    1.838834
     61          6           0      -10.629215    0.515588    1.408395
     62          6           0      -11.874141    0.313367    0.471446
     63          6           0      -13.186888   -0.044904    1.268703
     64          6           0      -14.389495    0.883745    1.000475
     65          6           0      -15.447708    0.045367    0.210440
     66          6           0      -14.966453    1.490111    2.312666
     67          1           0        4.530563    0.220591   -4.295789
     68          1           0        4.809133    5.304658   -0.110376
     69          1           0        4.324343    1.449201    4.739236
     70          1           0        4.035963   -3.928021   -1.865410
     71          1           0        3.684651   -2.153865   -4.055458
     72          1           0        5.892145   -3.449624   -2.930706
     73          1           0        6.313958   -1.754506   -3.220851
     74          1           0        5.726108   -2.652636   -4.586153
     75          1           0        1.721239   -3.022226   -3.225746
     76          1           0        1.451920   -2.594440   -1.623024
     77          1           0        2.165643   -5.321955   -1.374351
     78          1           0        1.225035   -5.103527   -2.896703
     79          1           0        4.084334    3.396697   -5.648105
     80          1           0        4.677478    1.766138   -5.479294
     81          1           0        5.833114    3.029289   -5.392865
     82          1           0        5.356763    6.787695   -1.592086
     83          1           0        3.668952    6.069965   -1.666747
     84          1           0        4.069571    7.475685   -2.633851
     85          1           0        4.042391    5.532700    2.359131
     86          1           0        5.154966    3.721396    4.438292
     87          1           0        6.206761    6.435980    2.309057
     88          1           0        6.966938    4.883851    2.005663
     89          1           0        6.457383    5.352965    3.656836
     90          1           0        2.862464    3.251910    4.951397
     91          1           0        2.447875    3.777680    3.296626
     92          1           0        2.749319    6.169920    4.177555
     93          1           0        3.806173    5.560476    5.312591
     94          1           0        2.122220    5.273453    5.720786
     95          1           0        2.799436   -0.810452    5.710167
     96          1           0        4.495744   -0.899890    5.939968
     97          1           0        3.746658   -2.438244    5.575376
     98          1           0        2.772736   -4.363162    0.643466
     99          1           0        6.514069   -6.672850    0.512477
    100          1           0        6.390121   -5.949640   -1.072703
    101          1           0        5.485594   -7.396853   -0.756386
    102          1           0       -2.130345   -4.409184   -0.081815
    103          1           0       -2.856384   -4.833689   -1.575181
    104          1           0       -2.396790   -2.098043   -2.012596
    105          1           0       -3.814439   -2.422105    1.874284
    106          1           0       -4.201945   -3.803338    0.931994
    107          1           0       -5.296879   -2.344066    0.849695
    108          1           0       -3.043838   -0.163602   -0.992485
    109          1           0       -4.086271   -0.049570    0.348909
    110          1           0       -5.959521   -1.152859   -1.094307
    111          1           0       -4.830124   -1.176295   -2.502024
    112          1           0       -4.534142    1.180649   -2.568043
    113          1           0       -5.431490    1.408951   -1.158307
    114          1           0       -6.937408   -0.113048   -3.120130
    115          1           0       -6.701607    1.060642   -5.149280
    116          1           0       -5.483852    1.979985   -4.414544
    117          1           0       -7.153470    2.549277   -4.314123
    118          1           0       -8.533355    1.959209   -2.904560
    119          1           0       -7.588753    2.424421   -1.499911
    120          1           0       -8.372055   -0.485882   -1.664228
    121          1           0       -9.774790    0.586657   -1.666963
    122          1           0       -7.416977    0.786416    0.297537
    123          1           0       -8.421362   -0.562873    0.512689
    124          1           0       -9.887882    2.046867   -0.012285
    125          1           0       -8.757456    1.780521    2.822130
    126          1           0       -9.212213    3.224132    1.980857
    127          1           0       -7.683763    2.361533    1.614476
    128          1           0      -11.073801    1.129801    2.191132
    129          1           0      -10.208057   -0.316434    1.973546
    130          1           0      -11.584917   -0.454544   -0.245916
    131          1           0      -12.083784    1.246246   -0.053080
    132          1           0      -12.980401    0.065249    2.333374
    133          1           0      -13.430311   -1.100019    1.140834
    134          1           0      -14.159623    1.695739    0.310243
    135          1           0      -16.420615   -0.009050    0.698673
    136          1           0      -15.097135   -0.952856   -0.052736
    137          1           0      -15.647484    0.389037   -0.804452
    138          1           0      -15.977978    1.864832    2.153876
    139          1           0      -14.427099    2.405735    2.554205
    140          1           0      -14.953115    0.774926    3.135734
 ---------------------------------------------------------------------

 SCF Done:  E(RwB97XD) =  -3007.88351762     A.U. after   17 cycles

 Excitation energies and oscillator strengths:

 Excited State   1:      Singlet-A      1.7121 eV  724.15 nm  f=0.3625  <S**2>=0.000
     245 -> 248       -0.18671
     246 -> 247        0.68354
     245 <- 248       -0.11524
 This state for optimization and/or second-order correction.
 Total Energy, E(TD-HF/TD-DFT) =  -3007.82059789
 Copying the excited state density for this state as the 1-particle RhoCI density.

 Excited State   2:      Singlet-A      2.2009 eV  563.33 nm  f=0.1286  <S**2>=0.000
     245 -> 247        0.64587
     246 -> 248        0.27511

 Excited State   3:      Singlet-A      3.3915 eV  365.57 nm  f=0.0091  <S**2>=0.000
     240 -> 247        0.36739
     240 -> 249        0.19532
     242 -> 247        0.39173
     243 -> 247       -0.36426

 Excited State   4:      Singlet-A      3.4278 eV  361.70 nm  f=0.0111  <S**2>=0.000
     239 -> 247        0.16401
     240 -> 247        0.37579
     240 -> 249        0.23861
     241 -> 247       -0.22518
     242 -> 247       -0.27765
     243 -> 247        0.25340
     246 -> 248       -0.16771

 Excited State   5:      Singlet-A      3.5447 eV  349.77 nm  f=0.0211  <S**2>=0.000
     240 -> 247        0.14408
     241 -> 247        0.59571
     242 -> 247       -0.10864
     243 -> 247        0.12368
     246 -> 248       -0.26505

 The electronic state is 1-A.
 Alpha  occ. eigenvalues --  -46.94869 -19.31442 -19.30582 -19.25109 -19.24988
 Alpha  occ. eigenvalues --  -19.24485 -19.22172 -14.47242 -14.46179 -14.44134
 Alpha  occ. eigenvalues --  -14.43502 -10.43403 -10.43124 -10.39484 -10.37301
 Alpha  occ. eigenvalues --  -10.36001 -10.35953 -10.35793 -10.34978 -10.34716
 Alpha  occ. eigenvalues --  -10.34198 -10.33699 -10.33668 -10.33441 -10.33226
 Alpha  occ. eigenvalues --  -10.32677 -10.32458 -10.32338 -10.32302 -10.32020
 Alpha  occ. eigenvalues --  -10.31935 -10.31611 -10.31550 -10.31156 -10.31052
 Alpha  occ. eigenvalues --  -10.30968 -10.30857 -10.30523 -10.30295 -10.30256
 Alpha  occ. eigenvalues --  -10.30160 -10.30153 -10.29971 -10.29944 -10.29938
 Alpha  occ. eigenvalues --  -10.29932 -10.29915 -10.29857 -10.29802 -10.29700
 Alpha  occ. eigenvalues --  -10.29633 -10.29545 -10.29283 -10.29235 -10.29201
 Alpha  occ. eigenvalues --  -10.28958 -10.28882 -10.28794 -10.28719 -10.28553
 Alpha  occ. eigenvalues --  -10.28546 -10.28295 -10.28144 -10.28019 -10.27993
 Alpha  occ. eigenvalues --  -10.27780  -3.20892  -1.94479  -1.94019  -1.93864
 Alpha  occ. eigenvalues --   -1.19138  -1.18358  -1.11717  -1.11458  -1.11043
 Alpha  occ. eigenvalues --   -1.10452  -1.07196  -1.05797  -1.05294  -1.04618
 Alpha  occ. eigenvalues --   -0.94351  -0.92172  -0.92119  -0.91377  -0.90913
 Alpha  occ. eigenvalues --   -0.90296  -0.89924  -0.89541  -0.89218  -0.88893
 Alpha  occ. eigenvalues --   -0.87560  -0.87355  -0.86017  -0.85809  -0.85430
 Alpha  occ. eigenvalues --   -0.84110  -0.83985  -0.83219  -0.82803  -0.82471
 Alpha  occ. eigenvalues --   -0.81310  -0.80152  -0.79901  -0.79194  -0.78080
 Alpha  occ. eigenvalues --   -0.77833  -0.77326  -0.76967  -0.76086  -0.75585
 Alpha  occ. eigenvalues --   -0.74981  -0.74061  -0.73418  -0.71758  -0.71661
 Alpha  occ. eigenvalues --   -0.71100  -0.69747  -0.68825  -0.68775  -0.67359
 Alpha  occ. eigenvalues --   -0.67220  -0.67121  -0.66698  -0.66453  -0.66248
 Alpha  occ. eigenvalues --   -0.65694  -0.65255  -0.64696  -0.64612  -0.62107
 Alpha  occ. eigenvalues --   -0.61875  -0.61495  -0.61325  -0.60657  -0.60297
 Alpha  occ. eigenvalues --   -0.59547  -0.58893  -0.58210  -0.57490  -0.57323
 Alpha  occ. eigenvalues --   -0.57155  -0.57092  -0.56859  -0.56730  -0.56082
 Alpha  occ. eigenvalues --   -0.55673  -0.55374  -0.54988  -0.54644  -0.54437
 Alpha  occ. eigenvalues --   -0.54102  -0.53982  -0.53866  -0.53821  -0.53654
 Alpha  occ. eigenvalues --   -0.53323  -0.52965  -0.52946  -0.52574  -0.52314
 Alpha  occ. eigenvalues --   -0.52158  -0.51902  -0.51692  -0.51611  -0.51405
 Alpha  occ. eigenvalues --   -0.51309  -0.51112  -0.51008  -0.50684  -0.50239
 Alpha  occ. eigenvalues --   -0.50097  -0.50060  -0.49857  -0.49651  -0.49612
 Alpha  occ. eigenvalues --   -0.49534  -0.49122  -0.48792  -0.48564  -0.48445
 Alpha  occ. eigenvalues --   -0.48155  -0.47947  -0.47879  -0.47667  -0.47528
 Alpha  occ. eigenvalues --   -0.47439  -0.47197  -0.47072  -0.46914  -0.46714
 Alpha  occ. eigenvalues --   -0.46662  -0.46506  -0.46436  -0.46374  -0.46075
 Alpha  occ. eigenvalues --   -0.45718  -0.45480  -0.45354  -0.45163  -0.45018
 Alpha  occ. eigenvalues --   -0.44842  -0.44639  -0.44440  -0.44097  -0.43740
 Alpha  occ. eigenvalues --   -0.43725  -0.43458  -0.43252  -0.43198  -0.43031
 Alpha  occ. eigenvalues --   -0.42791  -0.42690  -0.42622  -0.42299  -0.42129
 Alpha  occ. eigenvalues --   -0.41766  -0.41686  -0.41519  -0.41480  -0.40796
 Alpha  occ. eigenvalues --   -0.40557  -0.40436  -0.39986  -0.39599  -0.39390
 Alpha  occ. eigenvalues --   -0.39353  -0.39178  -0.39059  -0.38989  -0.38545
 Alpha  occ. eigenvalues --   -0.38362  -0.37333  -0.36998  -0.36578  -0.36436
 Alpha  occ. eigenvalues --   -0.35677  -0.35557  -0.35002  -0.33747  -0.32811
 Alpha  occ. eigenvalues --   -0.32454  -0.31751  -0.31450  -0.31282  -0.26015
 Alpha  occ. eigenvalues --   -0.23331
 Alpha virt. eigenvalues --   -0.07075   0.00430   0.02773   0.05096   0.05817
 Alpha virt. eigenvalues --    0.06687   0.07342   0.07507   0.08200   0.09680
 Alpha virt. eigenvalues --    0.10791   0.11360   0.11632   0.11811   0.12245

 Mulliken charges:
               1
     1  Mg   0.971220
     2  C   -0.079283
     3  C   -0.099704
     4  C   -0.067431
     5  C   -0.114758
     6  N   -0.327017
     7  C    0.017227
     8  C   -0.062497
     9  C   -0.154576
    10  C    0.066127
    11  C    0.039340
    12  C    0.000392
    13  C    0.018187
    14  C    0.205099
    15  O   -0.255507
    16  O   -0.365107
    17  N   -0.462369
    18  C    0.201603
    19  C   -0.163158
    20  C   -0.069911
    21  C    0.177600
    22  C    0.093382
    23  C    0.014170
    24  O   -0.234256
    25  C    0.011849
    26  N   -0.410379
    27  C    0.012329
    28  C   -0.082673
    29  C   -0.094078
    30  C    0.076238
    31  C    0.033421
    32  C   -0.010745
    33  C   -0.005146
    34  N   -0.392444
    35  C    0.149077
    36  C   -0.175755
    37  C   -0.042845
    38  C    0.180545
    39  C    0.084246
    40  C    0.150674
    41  O   -0.199562
    42  C   -0.088719
    43  C    0.277508
    44  O   -0.209527
    45  O   -0.374187
    46  C    0.128992
    47  C    0.241125
    48  C   -0.143548
    49  C   -0.178395
    50  C    0.050459
    51  C   -0.024299
    52  C   -0.021458
    53  C    0.010612
    54  C   -0.176593
    55  C    0.008968
    56  C    0.022308
    57  C   -0.062616
    58  C    0.033101
    59  C   -0.176774
    60  C   -0.006249
    61  C   -0.006446
    62  C   -0.024172
    63  C    0.028655
    64  C   -0.215643
    65  C   -0.018053
    66  C   -0.005314
    67  H    0.006861
    68  H   -0.030840
    69  H   -0.010609
    70  H    0.016853
    71  H    0.020029
    72  H    0.039907
    73  H    0.033392
    74  H    0.042482
    75  H    0.035369
    76  H    0.050950
    77  H    0.070133
    78  H    0.047718
    79  H    0.052899
    80  H    0.008660
    81  H    0.055216
    82  H    0.078436
    83  H    0.038778
    84  H    0.054458
    85  H    0.035031
    86  H    0.022355
    87  H    0.037020
    88  H    0.049284
    89  H    0.033100
    90  H    0.021754
    91  H    0.034044
    92  H    0.037446
    93  H    0.009921
    94  H    0.054990
    95  H    0.049886
    96  H    0.037990
    97  H    0.068867
    98  H    0.057044
    99  H    0.067204
   100  H    0.046115
   101  H    0.054075
   102  H    0.062490
   103  H    0.051683
   104  H    0.031585
   105  H    0.055568
   106  H    0.029060
   107  H    0.050695
   108  H    0.024745
   109  H    0.024718
   110  H    0.024707
   111  H    0.032733
   112  H    0.009057
   113  H    0.002702
   114  H    0.017899
   115  H    0.030393
   116  H    0.014915
   117  H    0.029010
   118  H    0.011212
   119  H    0.027731
   120  H    0.004074
   121  H    0.029818
   122  H    0.001264
   123  H    0.009705
   124  H    0.024063
   125  H    0.018471
   126  H    0.028394
   127  H    0.019749
   128  H    0.008413
   129  H    0.025100
   130  H    0.030957
   131  H    0.017945
   132  H    0.008066
   133  H    0.025088
   134  H    0.029931
   135  H    0.027374
   136  H    0.017400
   137  H    0.017484
   138  H    0.024736
   139  H    0.029776
   140  H    0.041210
 Sum of Mulliken charges =  -0.00000

 Dipole moment (field-independent basis, Debye):
    X=             -1.6323    Y=              0.9520    Z=             -0.1174  Tot=              1.8933
 Quadrupole moment (field-independent basis, Debye-Ang):
   XX=           -388.9943   YY=           -403.8422   ZZ=           -404.1801
   XY=             -4.8228   XZ=              6.7650   YZ=             59.5341

 Normal termination of Gaussian 16 at Sat Apr 30 04:39:57 2022.
