 Gaussian 16, Revision A.03,
 Gaussian 16:  ES64L-G16RevA.03 25-Dec-2016

 --------------------
 #p ZINDO=(nstates=5)
 --------------------

 ----------------------------
 step_551_chromophore_8 ZINDO
 ----------------------------
 Symbolic Z-matrix:
 Charge =  0 Multiplicity = 1

                         Standard orientation:
 ---------------------------------------------------------------------
 Center     Atomic      Atomic             Coordinates (Angstroms)
 Number     Number       Type             X           Y           Z
 ---------------------------------------------------------------------
      1         12           0        4.599011    0.965894    0.249177
      2          6           0        3.822692   -2.483635    0.612214
      3          6           0        4.517148    0.471943   -3.233098
      4          6           0        4.703087    4.217899   -0.133426
      5          6           0        4.376664    1.252020    3.666656
      6          7           0        4.039778   -0.761892   -1.144657
      7          6           0        3.846915   -2.079948   -0.774182
      8          6           0        3.539817   -2.967066   -1.995945
      9          6           0        4.222684   -2.064477   -3.111907
     10          6           0        4.131797   -0.630144   -2.496735
     11          6           0        5.635354   -2.557882   -3.504056
     12          6           0        2.039040   -3.292359   -2.218285
     13          6           0        1.448044   -4.699663   -1.908627
     14          6           0        0.168917   -4.435760   -1.097114
     15          8           0        0.230523   -4.353391    0.121373
     16          8           0       -0.908910   -4.274908   -1.930288
     17          7           0        4.709740    2.189486   -1.431187
     18          6           0        4.629663    1.771439   -2.744403
     19          6           0        4.693608    2.929645   -3.545549
     20          6           0        4.724322    4.034873   -2.710537
     21          6           0        4.603297    3.539574   -1.412814
     22          6           0        4.808409    2.783367   -5.112169
     23          6           0        4.765832    5.482351   -3.132036
     24          8           0        5.103249    5.774211   -4.261756
     25          6           0        4.480721    6.563721   -2.200553
     26          7           0        4.457861    2.511647    1.564631
     27          6           0        4.635194    3.820163    1.199617
     28          6           0        4.793255    4.749792    2.461873
     29          6           0        4.392825    3.754993    3.659373
     30          6           0        4.452247    2.404468    2.917476
     31          6           0        6.201251    5.384669    2.597736
     32          6           0        3.049915    3.997415    4.178935
     33          6           0        2.824352    5.348741    4.890546
     34          7           0        4.230043   -0.294422    1.902695
     35          6           0        4.182264   -0.061250    3.212747
     36          6           0        3.806806   -1.242149    3.943205
     37          6           0        3.712323   -2.249794    2.968061
     38          6           0        3.982430   -1.603163    1.704924
     39          6           0        3.678984   -1.366588    5.387704
     40          6           0        3.294341   -3.618372    2.770006
     41          8           0        2.892030   -4.449950    3.579684
     42          6           0        3.590818   -3.890566    1.187639
     43          6           0        4.814409   -4.754132    1.085766
     44          8           0        5.832156   -4.578131    1.678100
     45          8           0        4.614649   -5.762815    0.162488
     46          6           0        5.818230   -6.464411   -0.300925
     47          6           0       -2.172272   -4.111628   -1.129239
     48          6           0       -2.680790   -2.696175   -1.146994
     49          6           0       -3.485801   -2.114163   -0.199337
     50          6           0       -4.275089   -2.716147    0.931871
     51          6           0       -3.896825   -0.662517   -0.532709
     52          6           0       -5.105636   -0.675545   -1.573515
     53          6           0       -5.359415    0.735500   -2.012626
     54          6           0       -6.692818    0.928401   -2.911558
     55          6           0       -6.515934    1.666184   -4.262779
     56          6           0       -7.870503    1.579060   -2.127676
     57          6           0       -8.727115    0.503830   -1.377955
     58          6           0       -8.444216    0.460741    0.138370
     59          6           0       -9.489582    1.376417    0.749982
     60          6           0       -8.744429    2.249334    1.838834
     61          6           0      -10.629215    0.515588    1.408395
     62          6           0      -11.874141    0.313367    0.471446
     63          6           0      -13.186888   -0.044904    1.268703
     64          6           0      -14.389495    0.883745    1.000475
     65          6           0      -15.447708    0.045367    0.210440
     66          6           0      -14.966453    1.490111    2.312666
     67          1           0        4.530563    0.220591   -4.295789
     68          1           0        4.809133    5.304658   -0.110376
     69          1           0        4.324343    1.449201    4.739236
     70          1           0        4.035963   -3.928021   -1.865410
     71          1           0        3.684651   -2.153865   -4.055458
     72          1           0        5.892145   -3.449624   -2.930706
     73          1           0        6.313958   -1.754506   -3.220851
     74          1           0        5.726108   -2.652636   -4.586153
     75          1           0        1.721239   -3.022226   -3.225746
     76          1           0        1.451920   -2.594440   -1.623024
     77          1           0        2.165643   -5.321955   -1.374351
     78          1           0        1.225035   -5.103527   -2.896703
     79          1           0        4.084334    3.396697   -5.648105
     80          1           0        4.677478    1.766138   -5.479294
     81          1           0        5.833114    3.029289   -5.392865
     82          1           0        5.356763    6.787695   -1.592086
     83          1           0        3.668952    6.069965   -1.666747
     84          1           0        4.069571    7.475685   -2.633851
     85          1           0        4.042391    5.532700    2.359131
     86          1           0        5.154966    3.721396    4.438292
     87          1           0        6.206761    6.435980    2.309057
     88          1           0        6.966938    4.883851    2.005663
     89          1           0        6.457383    5.352965    3.656836
     90          1           0        2.862464    3.251910    4.951397
     91          1           0        2.447875    3.777680    3.296626
     92          1           0        2.749319    6.169920    4.177555
     93          1           0        3.806173    5.560476    5.312591
     94          1           0        2.122220    5.273453    5.720786
     95          1           0        2.799436   -0.810452    5.710167
     96          1           0        4.495744   -0.899890    5.939968
     97          1           0        3.746658   -2.438244    5.575376
     98          1           0        2.772736   -4.363162    0.643466
     99          1           0        6.514069   -6.672850    0.512477
    100          1           0        6.390121   -5.949640   -1.072703
    101          1           0        5.485594   -7.396853   -0.756386
    102          1           0       -2.130345   -4.409184   -0.081815
    103          1           0       -2.856384   -4.833689   -1.575181
    104          1           0       -2.396790   -2.098043   -2.012596
    105          1           0       -3.814439   -2.422105    1.874284
    106          1           0       -4.201945   -3.803338    0.931994
    107          1           0       -5.296879   -2.344066    0.849695
    108          1           0       -3.043838   -0.163602   -0.992485
    109          1           0       -4.086271   -0.049570    0.348909
    110          1           0       -5.959521   -1.152859   -1.094307
    111          1           0       -4.830124   -1.176295   -2.502024
    112          1           0       -4.534142    1.180649   -2.568043
    113          1           0       -5.431490    1.408951   -1.158307
    114          1           0       -6.937408   -0.113048   -3.120130
    115          1           0       -6.701607    1.060642   -5.149280
    116          1           0       -5.483852    1.979985   -4.414544
    117          1           0       -7.153470    2.549277   -4.314123
    118          1           0       -8.533355    1.959209   -2.904560
    119          1           0       -7.588753    2.424421   -1.499911
    120          1           0       -8.372055   -0.485882   -1.664228
    121          1           0       -9.774790    0.586657   -1.666963
    122          1           0       -7.416977    0.786416    0.297537
    123          1           0       -8.421362   -0.562873    0.512689
    124          1           0       -9.887882    2.046867   -0.012285
    125          1           0       -8.757456    1.780521    2.822130
    126          1           0       -9.212213    3.224132    1.980857
    127          1           0       -7.683763    2.361533    1.614476
    128          1           0      -11.073801    1.129801    2.191132
    129          1           0      -10.208057   -0.316434    1.973546
    130          1           0      -11.584917   -0.454544   -0.245916
    131          1           0      -12.083784    1.246246   -0.053080
    132          1           0      -12.980401    0.065249    2.333374
    133          1           0      -13.430311   -1.100019    1.140834
    134          1           0      -14.159623    1.695739    0.310243
    135          1           0      -16.420615   -0.009050    0.698673
    136          1           0      -15.097135   -0.952856   -0.052736
    137          1           0      -15.647484    0.389037   -0.804452
    138          1           0      -15.977978    1.864832    2.153876
    139          1           0      -14.427099    2.405735    2.554205
    140          1           0      -14.953115    0.774926    3.135734
 ---------------------------------------------------------------------

 SCF Done:  E(RZINDO/S) =  -474.375294812     A.U. after   19 cycles

 Excitation energies and oscillator strengths:

 Excited State   1:      Singlet-A      1.3047 eV  950.32 nm  f=0.5616  <S**2>=0.000
     175 ->178         0.17912
     176 ->177         0.66611
 This state for optimization and/or second-order correction.
 Total Energy, E(CIS/TDA) =  -474.327349478
 Copying the excited state density for this state as the 1-particle RhoCI density.

 Excited State   2:      Singlet-A      1.9373 eV  639.98 nm  f=0.0620  <S**2>=0.000
     175 ->177         0.56075
     176 ->178        -0.39463

 Excited State   3:      Singlet-A      2.9431 eV  421.26 nm  f=0.1349  <S**2>=0.000
     168 ->177         0.35533
     168 ->178        -0.18736
     168 ->179        -0.36516
     168 ->182         0.15412
     168 ->186        -0.16443
     168 ->195         0.10565
     175 ->177         0.13264
     176 ->178         0.22126

 Excited State   4:      Singlet-A      3.0253 eV  409.82 nm  f=0.0053  <S**2>=0.000
     170 ->177         0.21009
     170 ->179         0.24104
     170 ->181         0.12629
     170 ->182         0.43982
     170 ->186         0.24088
     170 ->187        -0.11421
     170 ->188        -0.21226
     170 ->202        -0.12700

 Excited State   5:      Singlet-A      3.0370 eV  408.24 nm  f=0.7816  <S**2>=0.000
     168 ->177        -0.15110
     168 ->179         0.16868
     171 ->177        -0.12097
     175 ->177         0.31251
     176 ->178         0.49229
     176 ->179         0.18475

 The electronic state is 1-A.
 Alpha  occ. eigenvalues --   -1.85801  -1.82803  -1.80334  -1.73202  -1.72568
 Alpha  occ. eigenvalues --   -1.71135  -1.65680  -1.60022  -1.59215  -1.57960
 Alpha  occ. eigenvalues --   -1.54885  -1.51022  -1.49746  -1.48438  -1.48320
 Alpha  occ. eigenvalues --   -1.44805  -1.43252  -1.40359  -1.37989  -1.36616
 Alpha  occ. eigenvalues --   -1.36057  -1.35046  -1.32757  -1.30948  -1.28716
 Alpha  occ. eigenvalues --   -1.27791  -1.27446  -1.23175  -1.20886  -1.17839
 Alpha  occ. eigenvalues --   -1.16951  -1.16288  -1.15526  -1.14551  -1.13754
 Alpha  occ. eigenvalues --   -1.12223  -1.09340  -1.09219  -1.05604  -1.03577
 Alpha  occ. eigenvalues --   -1.01705  -0.99937  -0.98126  -0.97126  -0.96004
 Alpha  occ. eigenvalues --   -0.95791  -0.95559  -0.93954  -0.93263  -0.92804
 Alpha  occ. eigenvalues --   -0.91002  -0.90906  -0.90176  -0.87848  -0.87762
 Alpha  occ. eigenvalues --   -0.85746  -0.84334  -0.83148  -0.82579  -0.80954
 Alpha  occ. eigenvalues --   -0.79714  -0.79355  -0.77650  -0.76996  -0.76307
 Alpha  occ. eigenvalues --   -0.75946  -0.75246  -0.74691  -0.74200  -0.73024
 Alpha  occ. eigenvalues --   -0.72648  -0.72294  -0.71558  -0.70943  -0.70487
 Alpha  occ. eigenvalues --   -0.70135  -0.69323  -0.68457  -0.68301  -0.67228
 Alpha  occ. eigenvalues --   -0.67134  -0.66791  -0.66105  -0.65769  -0.65610
 Alpha  occ. eigenvalues --   -0.65324  -0.65233  -0.64483  -0.64069  -0.63287
 Alpha  occ. eigenvalues --   -0.63070  -0.62750  -0.62584  -0.62252  -0.61869
 Alpha  occ. eigenvalues --   -0.61555  -0.60960  -0.60626  -0.60412  -0.59952
 Alpha  occ. eigenvalues --   -0.59714  -0.59394  -0.59177  -0.58439  -0.58102
 Alpha  occ. eigenvalues --   -0.57801  -0.57257  -0.56985  -0.56946  -0.56757
 Alpha  occ. eigenvalues --   -0.55975  -0.55700  -0.55314  -0.54955  -0.54779
 Alpha  occ. eigenvalues --   -0.54214  -0.53988  -0.53541  -0.53250  -0.52891
 Alpha  occ. eigenvalues --   -0.52753  -0.52613  -0.52148  -0.52139  -0.51384
 Alpha  occ. eigenvalues --   -0.51255  -0.50524  -0.50402  -0.50355  -0.50180
 Alpha  occ. eigenvalues --   -0.49926  -0.49521  -0.49425  -0.49272  -0.49255
 Alpha  occ. eigenvalues --   -0.49014  -0.48729  -0.48579  -0.48364  -0.48206
 Alpha  occ. eigenvalues --   -0.47497  -0.47463  -0.47025  -0.46691  -0.46478
 Alpha  occ. eigenvalues --   -0.46166  -0.45735  -0.45616  -0.45524  -0.45255
 Alpha  occ. eigenvalues --   -0.45160  -0.44981  -0.44737  -0.44452  -0.43790
 Alpha  occ. eigenvalues --   -0.43678  -0.43533  -0.42827  -0.42656  -0.42637
 Alpha  occ. eigenvalues --   -0.42036  -0.41526  -0.40247  -0.39396  -0.38745
 Alpha  occ. eigenvalues --   -0.38269  -0.37122  -0.35713  -0.34796  -0.33783
 Alpha  occ. eigenvalues --   -0.33570  -0.32615  -0.31978  -0.31551  -0.26647
 Alpha  occ. eigenvalues --   -0.22040
 Alpha virt. eigenvalues --   -0.08434  -0.01976  -0.00096   0.01896   0.02080
 Alpha virt. eigenvalues --    0.02272   0.02721   0.03109   0.04157   0.04872
 Alpha virt. eigenvalues --    0.06373   0.06477   0.07752   0.07945   0.08294

 Mulliken charges:
               1
     1  Mg   0.427713
     2  C   -0.034972
     3  C   -0.040632
     4  C   -0.092020
     5  C   -0.090752
     6  N   -0.272837
     7  C    0.137085
     8  C    0.007180
     9  C   -0.005749
    10  C    0.077705
    11  C   -0.052679
    12  C   -0.021781
    13  C    0.000704
    14  C    0.478054
    15  O   -0.528795
    16  O   -0.263196
    17  N   -0.320377
    18  C    0.072985
    19  C    0.014592
    20  C   -0.040751
    21  C    0.117877
    22  C   -0.046862
    23  C    0.329456
    24  O   -0.536463
    25  C   -0.029030
    26  N   -0.283106
    27  C    0.104941
    28  C   -0.000705
    29  C    0.007491
    30  C    0.157989
    31  C   -0.048449
    32  C   -0.019656
    33  C   -0.063783
    34  N   -0.311930
    35  C    0.144688
    36  C    0.052242
    37  C   -0.039942
    38  C    0.123300
    39  C   -0.035313
    40  C    0.341134
    41  O   -0.497731
    42  C    0.054127
    43  C    0.492554
    44  O   -0.503299
    45  O   -0.279505
    46  C    0.075771
    47  C    0.101793
    48  C   -0.090339
    49  C   -0.009430
    50  C   -0.034948
    51  C   -0.032939
    52  C   -0.022679
    53  C   -0.037500
    54  C   -0.021318
    55  C   -0.058596
    56  C   -0.033129
    57  C   -0.044232
    58  C   -0.033466
    59  C   -0.009661
    60  C   -0.066703
    61  C   -0.041612
    62  C   -0.036543
    63  C   -0.035037
    64  C   -0.006985
    65  C   -0.066547
    66  C   -0.054416
    67  H    0.036672
    68  H    0.013163
    69  H    0.017844
    70  H    0.026212
    71  H    0.016987
    72  H    0.025698
    73  H    0.021290
    74  H    0.024388
    75  H    0.023093
    76  H    0.027744
    77  H    0.047541
    78  H    0.032054
    79  H    0.033397
    80  H    0.015870
    81  H    0.033257
    82  H    0.049913
    83  H    0.026374
    84  H    0.037037
    85  H    0.030004
    86  H    0.029531
    87  H    0.019137
    88  H    0.030091
    89  H    0.017405
    90  H    0.012869
    91  H    0.028903
    92  H    0.028130
    93  H    0.009676
    94  H    0.033191
    95  H    0.040645
    96  H    0.025124
    97  H    0.042848
    98  H    0.059902
    99  H    0.051408
   100  H    0.036592
   101  H    0.028898
   102  H    0.058224
   103  H    0.035897
   104  H    0.035619
   105  H    0.032978
   106  H    0.021813
   107  H    0.034304
   108  H    0.016567
   109  H    0.023058
   110  H    0.029382
   111  H    0.026049
   112  H    0.018858
   113  H    0.011920
   114  H    0.018873
   115  H    0.018002
   116  H    0.013237
   117  H    0.021009
   118  H    0.008561
   119  H    0.030133
   120  H    0.006219
   121  H    0.026296
   122  H    0.016941
   123  H    0.016383
   124  H    0.030596
   125  H    0.014474
   126  H    0.014128
   127  H    0.017826
   128  H    0.003536
   129  H    0.033844
   130  H    0.020000
   131  H    0.024958
   132  H    0.013247
   133  H    0.023569
   134  H    0.025158
   135  H    0.019824
   136  H    0.016080
   137  H    0.010360
   138  H    0.013413
   139  H    0.015471
   140  H    0.027322
 Sum of Mulliken charges =  -0.00000

 Dipole moment (field-independent basis, Debye):
    X=             -2.3929    Y=              0.4226    Z=              1.1196  Tot=              2.6755
 N-N= 4.426779903735D+03 E-N= 0.000000000000D+00  KE=-9.527989209579D+03
 Leave Link  601 at Sat Apr 30 04:52:59 2022, MaxMem=  6710886400 cpu:               1.8 elap:               0.1
 (Enter /sw/apps/gaussian-16.0/g16/l9999.exe)
 1\1\GINC-BP1-COMPUTE150\SP\RZINDO CIS\STO-3G\C55H74Mg1N4O6\OF15641\30-
 Apr-2022\0\\#p ZINDO=(nstates=5)\\step_551_chromophore_8 ZINDO\\0,1\Mg
 ,0,43.976,3.385,47.283\C,0,41.633,5.991,46.689\C,0,41.273,1.134,47.222
 \C,0,46.134,0.921,47.216\C,0,46.47,5.738,47.051\N,0,41.74,3.527,46.813
 \C,0,41.004,4.691,46.69\C,0,39.516,4.389,46.428\C,0,39.463,2.932,47.06
 1\C,0,40.935,2.432,46.896\C,0,38.888,2.92,48.497\C,0,39.069,4.496,44.9
 46\C,0,38.211,5.689,44.43\C,0,38.902,6.161,43.14\O,0,39.782,7.008,43.1

 Normal termination of Gaussian 16 at Sat Apr 30 04:53:00 2022.
