 Gaussian 16, Revision A.03,
 Gaussian 16:  ES64L-G16RevA.03 25-Dec-2016

 ------------------------------
 #p blyp/Def2SVP td=(nstates=5)
 ------------------------------

 ---------------------------------------------------
 step_1151_chromophore_10 TDDFT with blyp functional
 ---------------------------------------------------
 Symbolic Z-matrix:
 Charge =  0 Multiplicity = 1

                         Standard orientation:
 ---------------------------------------------------------------------
 Center     Atomic      Atomic             Coordinates (Angstroms)
 Number     Number       Type             X           Y           Z
 ---------------------------------------------------------------------
      1         12           0        5.693906    0.999754    0.059271
      2          6           0        4.152348   -2.067924    0.709929
      3          6           0        3.130647    1.748327   -2.157868
      4          6           0        7.191024    3.953639   -0.490937
      5          6           0        8.632210   -0.308777    1.636069
      6          7           0        3.885198   -0.203141   -0.847460
      7          6           0        3.364523   -1.275852   -0.200125
      8          6           0        1.915568   -1.533508   -0.654659
      9          6           0        1.692024   -0.431009   -1.751112
     10          6           0        2.939679    0.404399   -1.545752
     11          6           0        1.417401   -1.037564   -3.157589
     12          6           0        0.904868   -1.702526    0.580782
     13          6           0       -0.027820   -3.059464    0.659140
     14          6           0       -0.945869   -3.404926   -0.504660
     15          8           0       -0.546681   -3.931668   -1.570164
     16          8           0       -2.296419   -3.287154   -0.244418
     17          7           0        5.114579    2.638633   -1.014457
     18          6           0        4.033655    2.776776   -1.820015
     19          6           0        3.966210    4.112984   -2.383705
     20          6           0        5.061441    4.779737   -1.799601
     21          6           0        5.880604    3.797990   -1.011262
     22          6           0        2.665621    4.610311   -3.119237
     23          6           0        5.334003    6.227060   -1.742376
     24          8           0        6.200003    6.640350   -1.014724
     25          6           0        4.500011    7.171048   -2.549748
     26          7           0        7.650058    1.659055    0.488077
     27          6           0        7.992589    2.956574    0.174006
     28          6           0        9.503454    3.149510    0.438330
     29          6           0        9.995064    1.813786    1.125882
     30          6           0        8.691527    1.019697    1.098238
     31          6           0       10.396203    3.598948   -0.814312
     32          6           0       10.614315    2.097682    2.546902
     33          6           0        9.547877    2.384909    3.721964
     34          7           0        6.295169   -0.748255    0.920081
     35          6           0        7.517144   -1.162109    1.534977
     36          6           0        7.408390   -2.511612    2.093467
     37          6           0        6.014553   -2.802666    1.843822
     38          6           0        5.445925   -1.768348    1.111991
     39          6           0        8.510027   -3.319805    2.665006
     40          6           0        5.126998   -3.861978    1.922616
     41          8           0        5.320544   -4.996447    2.412452
     42          6           0        3.847229   -3.433299    1.246949
     43          6           0        3.545568   -4.443021    0.231181
     44          8           0        4.033938   -4.584876   -0.900516
     45          8           0        2.528993   -5.220667    0.749502
     46          6           0        1.931031   -6.195087   -0.180148
     47          6           0       -3.154054   -3.925801   -1.236060
     48          6           0       -4.598640   -3.669541   -0.820656
     49          6           0       -5.693778   -4.310297   -1.283240
     50          6           0       -5.815422   -5.271346   -2.393446
     51          6           0       -7.091815   -3.930503   -0.655418
     52          6           0       -7.720637   -2.656747   -1.270529
     53          6           0       -9.094517   -2.784552   -1.934616
     54          6           0      -10.236050   -2.358169   -0.917955
     55          6           0      -11.540773   -3.047321   -1.319933
     56          6           0      -10.421208   -0.799271   -0.984470
     57          6           0      -11.322148   -0.203892    0.080989
     58          6           0      -10.487751    0.673019    1.079871
     59          6           0      -10.826675    2.175970    0.994172
     60          6           0       -9.496787    2.951078    1.169973
     61          6           0      -11.858544    2.602088    2.047911
     62          6           0      -12.647729    3.796010    1.399945
     63          6           0      -14.127761    3.579487    1.410788
     64          6           0      -14.883145    4.621119    2.239872
     65          6           0      -16.395038    4.063219    2.569149
     66          6           0      -15.056625    5.872460    1.372243
     67          1           0        2.336216    1.991226   -2.866448
     68          1           0        7.775758    4.875044   -0.544298
     69          1           0        9.546998   -0.720175    2.068377
     70          1           0        1.852530   -2.443272   -1.251219
     71          1           0        0.865837    0.231318   -1.492158
     72          1           0        0.644671   -0.384796   -3.562514
     73          1           0        1.143527   -2.092615   -3.183537
     74          1           0        2.310878   -1.057939   -3.782844
     75          1           0        0.146222   -0.921698    0.531424
     76          1           0        1.327956   -1.543645    1.572536
     77          1           0       -0.551217   -2.950183    1.609230
     78          1           0        0.640748   -3.820597    1.062937
     79          1           0        1.931128    3.878747   -3.454327
     80          1           0        3.067133    5.107865   -4.001685
     81          1           0        2.173742    5.327907   -2.462490
     82          1           0        3.525051    7.163353   -2.061711
     83          1           0        4.518577    6.905839   -3.606791
     84          1           0        4.993099    8.120266   -2.341313
     85          1           0        9.480239    3.955811    1.171699
     86          1           0       10.656727    1.275328    0.447482
     87          1           0       10.238902    2.905964   -1.640350
     88          1           0       11.476563    3.603372   -0.669226
     89          1           0       10.109776    4.573210   -1.207854
     90          1           0       11.335060    2.910606    2.461872
     91          1           0       11.148774    1.187467    2.817046
     92          1           0        9.203969    1.501768    4.260881
     93          1           0        8.669281    2.795488    3.225568
     94          1           0        9.868875    3.181626    4.392668
     95          1           0        8.698134   -3.099145    3.714864
     96          1           0        9.435697   -3.111733    2.128459
     97          1           0        8.120998   -4.336761    2.613798
     98          1           0        3.021813   -3.304573    1.947826
     99          1           0        2.116673   -5.947240   -1.225877
    100          1           0        0.849143   -6.163854   -0.053698
    101          1           0        2.324336   -7.201106   -0.031747
    102          1           0       -3.007084   -4.946120   -1.591141
    103          1           0       -2.972529   -3.325958   -2.127442
    104          1           0       -4.730389   -3.111476    0.106943
    105          1           0       -4.802994   -5.279821   -2.797581
    106          1           0       -6.522157   -4.862021   -3.115620
    107          1           0       -6.044148   -6.272798   -2.028155
    108          1           0       -6.871841   -3.585387    0.354722
    109          1           0       -7.828321   -4.722555   -0.789497
    110          1           0       -7.098257   -2.223114   -2.052194
    111          1           0       -7.954851   -1.986784   -0.443791
    112          1           0       -9.143184   -3.798521   -2.333228
    113          1           0       -9.116798   -2.129082   -2.804884
    114          1           0      -10.087419   -2.702309    0.105540
    115          1           0      -12.396870   -2.384268   -1.446085
    116          1           0      -11.769129   -3.891359   -0.669639
    117          1           0      -11.468175   -3.344060   -2.366610
    118          1           0      -10.831964   -0.584673   -1.971360
    119          1           0       -9.498410   -0.226067   -1.072263
    120          1           0      -11.831929   -1.045354    0.550978
    121          1           0      -12.096484    0.402943   -0.387075
    122          1           0       -9.420998    0.451298    1.034607
    123          1           0      -10.702657    0.392339    2.111506
    124          1           0      -11.229050    2.262838   -0.014533
    125          1           0       -9.800678    3.904109    1.602910
    126          1           0       -9.185122    2.908276    0.126240
    127          1           0       -8.805378    2.448625    1.846110
    128          1           0      -11.277854    2.855484    2.935633
    129          1           0      -12.506374    1.748261    2.249536
    130          1           0      -12.325513    4.130522    0.413384
    131          1           0      -12.360621    4.645626    2.020689
    132          1           0      -14.340473    2.658125    1.952522
    133          1           0      -14.430611    3.627653    0.365067
    134          1           0      -14.363560    4.918783    3.151267
    135          1           0      -16.875859    3.809279    1.624974
    136          1           0      -16.956321    4.857268    3.060416
    137          1           0      -16.443070    3.139756    3.146566
    138          1           0      -16.123547    6.050930    1.236857
    139          1           0      -14.513100    5.757877    0.434431
    140          1           0      -14.696691    6.716005    1.961215
 ---------------------------------------------------------------------

 SCF Done:  E(RB-LYP) =  -3007.34942544     A.U. after   21 cycles

 Excitation energies and oscillator strengths:

 Excited State   1:      Singlet-A      1.7507 eV  708.21 nm  f=0.2372  <S**2>=0.000
     244 -> 247        0.12930
     245 -> 248        0.21368
     246 -> 247        0.66851
     246 <- 247       -0.13561
 This state for optimization and/or second-order correction.
 Total Energy, E(TD-HF/TD-DFT) =  -3007.28508906
 Copying the excited state density for this state as the 1-particle RhoCI density.

 Excited State   2:      Singlet-A      1.8915 eV  655.48 nm  f=0.0220  <S**2>=0.000
     244 -> 247        0.66767
     245 -> 247        0.17548
     246 -> 247       -0.12684

 Excited State   3:      Singlet-A      1.9897 eV  623.13 nm  f=0.0352  <S**2>=0.000
     243 -> 247        0.29198
     244 -> 247       -0.17637
     245 -> 247        0.55046
     246 -> 248       -0.27180

 Excited State   4:      Singlet-A      2.0758 eV  597.29 nm  f=0.0084  <S**2>=0.000
     243 -> 247        0.63958
     245 -> 247       -0.23239
     246 -> 248        0.16301

 Excited State   5:      Singlet-A      2.4607 eV  503.85 nm  f=0.0001  <S**2>=0.000
     241 -> 247        0.70692

 The electronic state is 1-A.
 Alpha  occ. eigenvalues --  -46.26997 -18.83455 -18.81780 -18.77688 -18.76416
 Alpha  occ. eigenvalues --  -18.75179 -18.74410 -14.03157 -14.03105 -14.01445
 Alpha  occ. eigenvalues --  -14.00606 -10.05568 -10.03592  -9.98907  -9.98506
 Alpha  occ. eigenvalues --   -9.98015  -9.96700  -9.96692  -9.96598  -9.96548
 Alpha  occ. eigenvalues --   -9.96531  -9.96435  -9.95765  -9.95280  -9.94906
 Alpha  occ. eigenvalues --   -9.94510  -9.94290  -9.94132  -9.94057  -9.94035
 Alpha  occ. eigenvalues --   -9.93989  -9.93933  -9.93868  -9.93586  -9.93472
 Alpha  occ. eigenvalues --   -9.93291  -9.93223  -9.93207  -9.92941  -9.92938
 Alpha  occ. eigenvalues --   -9.92661  -9.92619  -9.92573  -9.92549  -9.92532
 Alpha  occ. eigenvalues --   -9.92151  -9.92150  -9.92123  -9.92120  -9.91962
 Alpha  occ. eigenvalues --   -9.91954  -9.91841  -9.91368  -9.91180  -9.91159
 Alpha  occ. eigenvalues --   -9.91137  -9.91136  -9.91110  -9.90978  -9.90921
 Alpha  occ. eigenvalues --   -9.90840  -9.90655  -9.90607  -9.90535  -9.90513
 Alpha  occ. eigenvalues --   -9.90198  -2.91688  -1.72104  -1.71616  -1.71362
 Alpha  occ. eigenvalues --   -0.98411  -0.96649  -0.92533  -0.89490  -0.89265
 Alpha  occ. eigenvalues --   -0.88574  -0.86931  -0.85573  -0.85175  -0.84530
 Alpha  occ. eigenvalues --   -0.76279  -0.73787  -0.73411  -0.72354  -0.71771
 Alpha  occ. eigenvalues --   -0.71508  -0.71141  -0.70938  -0.70281  -0.69962
 Alpha  occ. eigenvalues --   -0.69680  -0.69058  -0.68144  -0.67233  -0.66765
 Alpha  occ. eigenvalues --   -0.66142  -0.65544  -0.65459  -0.65052  -0.64434
 Alpha  occ. eigenvalues --   -0.64130  -0.62550  -0.62254  -0.61466  -0.60813
 Alpha  occ. eigenvalues --   -0.60488  -0.59769  -0.59508  -0.59345  -0.58889
 Alpha  occ. eigenvalues --   -0.58302  -0.57362  -0.56988  -0.56094  -0.55327
 Alpha  occ. eigenvalues --   -0.53920  -0.53614  -0.52682  -0.52330  -0.51666
 Alpha  occ. eigenvalues --   -0.51174  -0.50766  -0.50594  -0.50538  -0.49972
 Alpha  occ. eigenvalues --   -0.49955  -0.49401  -0.48791  -0.47825  -0.46703
 Alpha  occ. eigenvalues --   -0.45965  -0.45688  -0.45566  -0.44744  -0.44673
 Alpha  occ. eigenvalues --   -0.43689  -0.43462  -0.42822  -0.42530  -0.42345
 Alpha  occ. eigenvalues --   -0.42101  -0.41708  -0.41539  -0.41437  -0.41115
 Alpha  occ. eigenvalues --   -0.40942  -0.40597  -0.40507  -0.40311  -0.39678
 Alpha  occ. eigenvalues --   -0.39578  -0.39468  -0.39350  -0.39162  -0.39121
 Alpha  occ. eigenvalues --   -0.38850  -0.38673  -0.38519  -0.38284  -0.38258
 Alpha  occ. eigenvalues --   -0.37986  -0.37638  -0.37594  -0.37292  -0.36946
 Alpha  occ. eigenvalues --   -0.36913  -0.36775  -0.36698  -0.36414  -0.36228
 Alpha  occ. eigenvalues --   -0.36151  -0.35984  -0.35849  -0.35769  -0.35598
 Alpha  occ. eigenvalues --   -0.35254  -0.35100  -0.34978  -0.34942  -0.34746
 Alpha  occ. eigenvalues --   -0.34562  -0.34272  -0.34040  -0.33777  -0.33748
 Alpha  occ. eigenvalues --   -0.33635  -0.33581  -0.33369  -0.33199  -0.33042
 Alpha  occ. eigenvalues --   -0.32857  -0.32796  -0.32618  -0.32525  -0.32282
 Alpha  occ. eigenvalues --   -0.31990  -0.31858  -0.31758  -0.31716  -0.31451
 Alpha  occ. eigenvalues --   -0.31385  -0.31065  -0.30937  -0.30814  -0.30699
 Alpha  occ. eigenvalues --   -0.30626  -0.30511  -0.30078  -0.29833  -0.29608
 Alpha  occ. eigenvalues --   -0.29413  -0.29329  -0.29136  -0.28986  -0.28835
 Alpha  occ. eigenvalues --   -0.28681  -0.28605  -0.28586  -0.28262  -0.27923
 Alpha  occ. eigenvalues --   -0.27525  -0.27469  -0.26859  -0.26499  -0.26396
 Alpha  occ. eigenvalues --   -0.26067  -0.25993  -0.25910  -0.25484  -0.25281
 Alpha  occ. eigenvalues --   -0.25025  -0.24501  -0.24397  -0.23752  -0.23352
 Alpha  occ. eigenvalues --   -0.23155  -0.22387  -0.21706  -0.21479  -0.20660
 Alpha  occ. eigenvalues --   -0.20150  -0.20044  -0.18569  -0.17930  -0.17069
 Alpha  occ. eigenvalues --   -0.15371
 Alpha virt. eigenvalues --   -0.11107  -0.07365  -0.06274  -0.05336  -0.04341
 Alpha virt. eigenvalues --   -0.02430  -0.02149  -0.01967  -0.01558   0.00279
 Alpha virt. eigenvalues --    0.01478   0.01637   0.02410   0.02614   0.03178

 Mulliken charges:
               1
     1  Mg   0.704429
     2  C   -0.058342
     3  C   -0.039855
     4  C   -0.026906
     5  C   -0.072997
     6  N   -0.142983
     7  C   -0.102714
     8  C    0.056319
     9  C    0.002038
    10  C   -0.038483
    11  C    0.125471
    12  C    0.068387
    13  C    0.084734
    14  C    0.163781
    15  O   -0.233787
    16  O   -0.261527
    17  N   -0.308909
    18  C    0.134294
    19  C   -0.146262
    20  C    0.030886
    21  C    0.159196
    22  C    0.158314
    23  C   -0.140604
    24  O   -0.150438
    25  C    0.155576
    26  N   -0.232145
    27  C   -0.018245
    28  C    0.030989
    29  C    0.047460
    30  C   -0.013641
    31  C    0.101453
    32  C    0.076462
    33  C    0.055620
    34  N   -0.287255
    35  C    0.129699
    36  C   -0.172016
    37  C    0.116859
    38  C    0.131304
    39  C    0.185021
    40  C   -0.128080
    41  O   -0.172313
    42  C    0.159380
    43  C    0.130131
    44  O   -0.191044
    45  O   -0.280776
    46  C    0.209134
    47  C    0.308205
    48  C   -0.085072
    49  C   -0.199120
    50  C    0.183087
    51  C    0.156495
    52  C    0.058417
    53  C    0.094187
    54  C   -0.073316
    55  C    0.115569
    56  C    0.069652
    57  C    0.115401
    58  C    0.099792
    59  C   -0.141333
    60  C    0.125198
    61  C    0.119988
    62  C    0.072684
    63  C    0.135541
    64  C   -0.133585
    65  C    0.073623
    66  C    0.123235
    67  H   -0.074040
    68  H   -0.035729
    69  H   -0.067665
    70  H    0.004329
    71  H   -0.032987
    72  H   -0.003498
    73  H    0.018671
    74  H   -0.006809
    75  H   -0.020407
    76  H   -0.011167
    77  H   -0.028823
    78  H    0.015249
    79  H   -0.000509
    80  H   -0.000478
    81  H    0.014805
    82  H    0.006769
    83  H    0.014069
    84  H   -0.012543
    85  H   -0.019192
    86  H   -0.017641
    87  H   -0.009596
    88  H   -0.004798
    89  H   -0.002903
    90  H   -0.009001
    91  H   -0.017731
    92  H    0.004667
    93  H   -0.006719
    94  H   -0.004137
    95  H   -0.001521
    96  H    0.000274
    97  H    0.016795
    98  H   -0.006301
    99  H    0.022534
   100  H    0.011041
   101  H    0.017964
   102  H    0.017196
   103  H   -0.009593
   104  H   -0.030216
   105  H   -0.029640
   106  H    0.006065
   107  H    0.011884
   108  H   -0.030801
   109  H   -0.033885
   110  H   -0.029684
   111  H   -0.024400
   112  H   -0.039392
   113  H   -0.040540
   114  H   -0.035072
   115  H   -0.026586
   116  H   -0.008278
   117  H   -0.032109
   118  H   -0.052738
   119  H   -0.038830
   120  H   -0.035648
   121  H   -0.030247
   122  H   -0.038883
   123  H   -0.055699
   124  H   -0.036847
   125  H   -0.019500
   126  H   -0.007804
   127  H   -0.007098
   128  H   -0.031970
   129  H   -0.023561
   130  H   -0.026116
   131  H   -0.041489
   132  H   -0.034166
   133  H   -0.028975
   134  H   -0.026888
   135  H   -0.016504
   136  H   -0.010344
   137  H   -0.013766
   138  H   -0.021758
   139  H   -0.012923
   140  H   -0.022433
 Sum of Mulliken charges =  -0.00000

 Dipole moment (field-independent basis, Debye):
    X=             -4.1281    Y=              3.2126    Z=             -0.6975  Tot=              5.2772
 Quadrupole moment (field-independent basis, Debye-Ang):
   XX=           -382.2044   YY=           -434.1357   ZZ=           -401.5585
   XY=             25.1730   XZ=              9.0331   YZ=              1.9463

 Normal termination of Gaussian 16 at Wed Apr 27 11:08:37 2022.
