 Gaussian 16, Revision A.03,
 Gaussian 16:  ES64L-G16RevA.03 25-Dec-2016

 -----------------------------------
 #p cam-b3lyp/Def2SVP td=(nstates=5)
 -----------------------------------

 --------------------------------------------------------
 step_1151_chromophore_10 TDDFT with cam-b3lyp functional
 --------------------------------------------------------
 Symbolic Z-matrix:
 Charge =  0 Multiplicity = 1

                         Standard orientation:
 ---------------------------------------------------------------------
 Center     Atomic      Atomic             Coordinates (Angstroms)
 Number     Number       Type             X           Y           Z
 ---------------------------------------------------------------------
      1         12           0        5.693906    0.999754    0.059271
      2          6           0        4.152348   -2.067924    0.709929
      3          6           0        3.130647    1.748327   -2.157868
      4          6           0        7.191024    3.953639   -0.490937
      5          6           0        8.632210   -0.308777    1.636069
      6          7           0        3.885198   -0.203141   -0.847460
      7          6           0        3.364523   -1.275852   -0.200125
      8          6           0        1.915568   -1.533508   -0.654659
      9          6           0        1.692024   -0.431009   -1.751112
     10          6           0        2.939679    0.404399   -1.545752
     11          6           0        1.417401   -1.037564   -3.157589
     12          6           0        0.904868   -1.702526    0.580782
     13          6           0       -0.027820   -3.059464    0.659140
     14          6           0       -0.945869   -3.404926   -0.504660
     15          8           0       -0.546681   -3.931668   -1.570164
     16          8           0       -2.296419   -3.287154   -0.244418
     17          7           0        5.114579    2.638633   -1.014457
     18          6           0        4.033655    2.776776   -1.820015
     19          6           0        3.966210    4.112984   -2.383705
     20          6           0        5.061441    4.779737   -1.799601
     21          6           0        5.880604    3.797990   -1.011262
     22          6           0        2.665621    4.610311   -3.119237
     23          6           0        5.334003    6.227060   -1.742376
     24          8           0        6.200003    6.640350   -1.014724
     25          6           0        4.500011    7.171048   -2.549748
     26          7           0        7.650058    1.659055    0.488077
     27          6           0        7.992589    2.956574    0.174006
     28          6           0        9.503454    3.149510    0.438330
     29          6           0        9.995064    1.813786    1.125882
     30          6           0        8.691527    1.019697    1.098238
     31          6           0       10.396203    3.598948   -0.814312
     32          6           0       10.614315    2.097682    2.546902
     33          6           0        9.547877    2.384909    3.721964
     34          7           0        6.295169   -0.748255    0.920081
     35          6           0        7.517144   -1.162109    1.534977
     36          6           0        7.408390   -2.511612    2.093467
     37          6           0        6.014553   -2.802666    1.843822
     38          6           0        5.445925   -1.768348    1.111991
     39          6           0        8.510027   -3.319805    2.665006
     40          6           0        5.126998   -3.861978    1.922616
     41          8           0        5.320544   -4.996447    2.412452
     42          6           0        3.847229   -3.433299    1.246949
     43          6           0        3.545568   -4.443021    0.231181
     44          8           0        4.033938   -4.584876   -0.900516
     45          8           0        2.528993   -5.220667    0.749502
     46          6           0        1.931031   -6.195087   -0.180148
     47          6           0       -3.154054   -3.925801   -1.236060
     48          6           0       -4.598640   -3.669541   -0.820656
     49          6           0       -5.693778   -4.310297   -1.283240
     50          6           0       -5.815422   -5.271346   -2.393446
     51          6           0       -7.091815   -3.930503   -0.655418
     52          6           0       -7.720637   -2.656747   -1.270529
     53          6           0       -9.094517   -2.784552   -1.934616
     54          6           0      -10.236050   -2.358169   -0.917955
     55          6           0      -11.540773   -3.047321   -1.319933
     56          6           0      -10.421208   -0.799271   -0.984470
     57          6           0      -11.322148   -0.203892    0.080989
     58          6           0      -10.487751    0.673019    1.079871
     59          6           0      -10.826675    2.175970    0.994172
     60          6           0       -9.496787    2.951078    1.169973
     61          6           0      -11.858544    2.602088    2.047911
     62          6           0      -12.647729    3.796010    1.399945
     63          6           0      -14.127761    3.579487    1.410788
     64          6           0      -14.883145    4.621119    2.239872
     65          6           0      -16.395038    4.063219    2.569149
     66          6           0      -15.056625    5.872460    1.372243
     67          1           0        2.336216    1.991226   -2.866448
     68          1           0        7.775758    4.875044   -0.544298
     69          1           0        9.546998   -0.720175    2.068377
     70          1           0        1.852530   -2.443272   -1.251219
     71          1           0        0.865837    0.231318   -1.492158
     72          1           0        0.644671   -0.384796   -3.562514
     73          1           0        1.143527   -2.092615   -3.183537
     74          1           0        2.310878   -1.057939   -3.782844
     75          1           0        0.146222   -0.921698    0.531424
     76          1           0        1.327956   -1.543645    1.572536
     77          1           0       -0.551217   -2.950183    1.609230
     78          1           0        0.640748   -3.820597    1.062937
     79          1           0        1.931128    3.878747   -3.454327
     80          1           0        3.067133    5.107865   -4.001685
     81          1           0        2.173742    5.327907   -2.462490
     82          1           0        3.525051    7.163353   -2.061711
     83          1           0        4.518577    6.905839   -3.606791
     84          1           0        4.993099    8.120266   -2.341313
     85          1           0        9.480239    3.955811    1.171699
     86          1           0       10.656727    1.275328    0.447482
     87          1           0       10.238902    2.905964   -1.640350
     88          1           0       11.476563    3.603372   -0.669226
     89          1           0       10.109776    4.573210   -1.207854
     90          1           0       11.335060    2.910606    2.461872
     91          1           0       11.148774    1.187467    2.817046
     92          1           0        9.203969    1.501768    4.260881
     93          1           0        8.669281    2.795488    3.225568
     94          1           0        9.868875    3.181626    4.392668
     95          1           0        8.698134   -3.099145    3.714864
     96          1           0        9.435697   -3.111733    2.128459
     97          1           0        8.120998   -4.336761    2.613798
     98          1           0        3.021813   -3.304573    1.947826
     99          1           0        2.116673   -5.947240   -1.225877
    100          1           0        0.849143   -6.163854   -0.053698
    101          1           0        2.324336   -7.201106   -0.031747
    102          1           0       -3.007084   -4.946120   -1.591141
    103          1           0       -2.972529   -3.325958   -2.127442
    104          1           0       -4.730389   -3.111476    0.106943
    105          1           0       -4.802994   -5.279821   -2.797581
    106          1           0       -6.522157   -4.862021   -3.115620
    107          1           0       -6.044148   -6.272798   -2.028155
    108          1           0       -6.871841   -3.585387    0.354722
    109          1           0       -7.828321   -4.722555   -0.789497
    110          1           0       -7.098257   -2.223114   -2.052194
    111          1           0       -7.954851   -1.986784   -0.443791
    112          1           0       -9.143184   -3.798521   -2.333228
    113          1           0       -9.116798   -2.129082   -2.804884
    114          1           0      -10.087419   -2.702309    0.105540
    115          1           0      -12.396870   -2.384268   -1.446085
    116          1           0      -11.769129   -3.891359   -0.669639
    117          1           0      -11.468175   -3.344060   -2.366610
    118          1           0      -10.831964   -0.584673   -1.971360
    119          1           0       -9.498410   -0.226067   -1.072263
    120          1           0      -11.831929   -1.045354    0.550978
    121          1           0      -12.096484    0.402943   -0.387075
    122          1           0       -9.420998    0.451298    1.034607
    123          1           0      -10.702657    0.392339    2.111506
    124          1           0      -11.229050    2.262838   -0.014533
    125          1           0       -9.800678    3.904109    1.602910
    126          1           0       -9.185122    2.908276    0.126240
    127          1           0       -8.805378    2.448625    1.846110
    128          1           0      -11.277854    2.855484    2.935633
    129          1           0      -12.506374    1.748261    2.249536
    130          1           0      -12.325513    4.130522    0.413384
    131          1           0      -12.360621    4.645626    2.020689
    132          1           0      -14.340473    2.658125    1.952522
    133          1           0      -14.430611    3.627653    0.365067
    134          1           0      -14.363560    4.918783    3.151267
    135          1           0      -16.875859    3.809279    1.624974
    136          1           0      -16.956321    4.857268    3.060416
    137          1           0      -16.443070    3.139756    3.146566
    138          1           0      -16.123547    6.050930    1.236857
    139          1           0      -14.513100    5.757877    0.434431
    140          1           0      -14.696691    6.716005    1.961215
 ---------------------------------------------------------------------

 SCF Done:  E(RCAM-B3LYP) =  -3007.13451306     A.U. after   17 cycles

 Excitation energies and oscillator strengths:

 Excited State   1:      Singlet-A      1.6980 eV  730.19 nm  f=0.3344  <S**2>=0.000
     245 -> 248       -0.20219
     246 -> 247        0.67921
     245 <- 248       -0.11246
 This state for optimization and/or second-order correction.
 Total Energy, E(TD-HF/TD-DFT) =  -3007.07211353
 Copying the excited state density for this state as the 1-particle RhoCI density.

 Excited State   2:      Singlet-A      2.2329 eV  555.25 nm  f=0.0414  <S**2>=0.000
     245 -> 247        0.59215
     246 -> 248        0.37626

 Excited State   3:      Singlet-A      3.3231 eV  373.10 nm  f=0.7886  <S**2>=0.000
     241 -> 247       -0.10370
     245 -> 247       -0.35737
     246 -> 248        0.58000
     245 <- 247        0.10959

 Excited State   4:      Singlet-A      3.4415 eV  360.26 nm  f=0.0443  <S**2>=0.000
     241 -> 247        0.47909
     241 -> 249        0.30904
     241 -> 251        0.17752
     242 -> 247       -0.18555
     244 -> 247        0.20839
     246 -> 248        0.10838

 Excited State   5:      Singlet-A      3.5369 eV  350.55 nm  f=0.0087  <S**2>=0.000
     241 -> 247       -0.25656
     242 -> 247       -0.19854
     244 -> 247        0.59604

 The electronic state is 1-A.
 Alpha  occ. eigenvalues --  -46.88524 -19.26327 -19.24639 -19.20719 -19.19414
 Alpha  occ. eigenvalues --  -19.18697 -19.17269 -14.42091 -14.41938 -14.40041
 Alpha  occ. eigenvalues --  -14.38855 -10.41008 -10.39022 -10.34280 -10.33061
 Alpha  occ. eigenvalues --  -10.32505 -10.31501 -10.31485 -10.31462 -10.30894
 Alpha  occ. eigenvalues --  -10.30597 -10.30474 -10.30461 -10.29416 -10.29189
 Alpha  occ. eigenvalues --  -10.28980 -10.28560 -10.28337 -10.28213 -10.28136
 Alpha  occ. eigenvalues --  -10.27995 -10.27861 -10.27772 -10.27688 -10.27645
 Alpha  occ. eigenvalues --  -10.27569 -10.27389 -10.27328 -10.27166 -10.27099
 Alpha  occ. eigenvalues --  -10.27038 -10.26497 -10.26324 -10.26281 -10.26280
 Alpha  occ. eigenvalues --  -10.26152 -10.25933 -10.25896 -10.25881 -10.25720
 Alpha  occ. eigenvalues --  -10.25702 -10.25564 -10.25090 -10.24904 -10.24832
 Alpha  occ. eigenvalues --  -10.24820 -10.24818 -10.24801 -10.24641 -10.24524
 Alpha  occ. eigenvalues --  -10.24488 -10.24255 -10.24227 -10.24222 -10.24095
 Alpha  occ. eigenvalues --  -10.23887  -3.17123  -1.92013  -1.91611  -1.91399
 Alpha  occ. eigenvalues --   -1.16810  -1.15072  -1.11293  -1.07338  -1.07328
 Alpha  occ. eigenvalues --   -1.06409  -1.04772  -1.03306  -1.02793  -1.01906
 Alpha  occ. eigenvalues --   -0.93316  -0.90683  -0.90260  -0.89092  -0.88499
 Alpha  occ. eigenvalues --   -0.88273  -0.87764  -0.87547  -0.87101  -0.86483
 Alpha  occ. eigenvalues --   -0.86109  -0.85418  -0.84441  -0.83349  -0.82917
 Alpha  occ. eigenvalues --   -0.82272  -0.81860  -0.81304  -0.80807  -0.80265
 Alpha  occ. eigenvalues --   -0.80009  -0.78418  -0.77937  -0.76866  -0.76202
 Alpha  occ. eigenvalues --   -0.75832  -0.75035  -0.74824  -0.74631  -0.74126
 Alpha  occ. eigenvalues --   -0.73368  -0.72282  -0.71957  -0.70956  -0.69936
 Alpha  occ. eigenvalues --   -0.68705  -0.68193  -0.67200  -0.66730  -0.65864
 Alpha  occ. eigenvalues --   -0.65194  -0.64668  -0.64609  -0.64475  -0.64054
 Alpha  occ. eigenvalues --   -0.64006  -0.63369  -0.62717  -0.61464  -0.60309
 Alpha  occ. eigenvalues --   -0.59713  -0.59210  -0.59068  -0.58266  -0.57925
 Alpha  occ. eigenvalues --   -0.56958  -0.56822  -0.55934  -0.55711  -0.55296
 Alpha  occ. eigenvalues --   -0.55177  -0.54914  -0.54803  -0.54297  -0.53950
 Alpha  occ. eigenvalues --   -0.53789  -0.53642  -0.53536  -0.53237  -0.52690
 Alpha  occ. eigenvalues --   -0.52232  -0.52176  -0.51755  -0.51680  -0.51483
 Alpha  occ. eigenvalues --   -0.51393  -0.51053  -0.50904  -0.50797  -0.50528
 Alpha  occ. eigenvalues --   -0.50482  -0.49957  -0.49887  -0.49783  -0.49639
 Alpha  occ. eigenvalues --   -0.49049  -0.48966  -0.48867  -0.48609  -0.48423
 Alpha  occ. eigenvalues --   -0.48313  -0.48226  -0.48171  -0.47949  -0.47874
 Alpha  occ. eigenvalues --   -0.47584  -0.47363  -0.47110  -0.46843  -0.46684
 Alpha  occ. eigenvalues --   -0.46539  -0.46064  -0.45988  -0.45587  -0.45460
 Alpha  occ. eigenvalues --   -0.45391  -0.45245  -0.45113  -0.44959  -0.44720
 Alpha  occ. eigenvalues --   -0.44613  -0.44407  -0.44255  -0.44118  -0.44006
 Alpha  occ. eigenvalues --   -0.43810  -0.43535  -0.43371  -0.43204  -0.43080
 Alpha  occ. eigenvalues --   -0.42930  -0.42773  -0.42569  -0.42337  -0.41999
 Alpha  occ. eigenvalues --   -0.41943  -0.41583  -0.41443  -0.41261  -0.41226
 Alpha  occ. eigenvalues --   -0.40595  -0.40517  -0.40475  -0.40447  -0.39862
 Alpha  occ. eigenvalues --   -0.39709  -0.39630  -0.39604  -0.39194  -0.38919
 Alpha  occ. eigenvalues --   -0.38356  -0.38324  -0.37670  -0.37656  -0.37397
 Alpha  occ. eigenvalues --   -0.37148  -0.36778  -0.36728  -0.36150  -0.36125
 Alpha  occ. eigenvalues --   -0.35903  -0.35580  -0.34937  -0.34672  -0.34247
 Alpha  occ. eigenvalues --   -0.34028  -0.33552  -0.33116  -0.31331  -0.31009
 Alpha  occ. eigenvalues --   -0.30014  -0.29841  -0.29758  -0.29007  -0.23843
 Alpha  occ. eigenvalues --   -0.20570
 Alpha virt. eigenvalues --   -0.08012  -0.02486   0.00095   0.02194   0.02612
 Alpha virt. eigenvalues --    0.02780   0.05471   0.05503   0.05779   0.06788
 Alpha virt. eigenvalues --    0.08116   0.08630   0.08764   0.09197   0.09460

 Mulliken charges:
               1
     1  Mg   0.837298
     2  C   -0.076177
     3  C   -0.052702
     4  C   -0.049667
     5  C   -0.078016
     6  N   -0.205555
     7  C   -0.062366
     8  C    0.003541
     9  C   -0.047856
    10  C   -0.016411
    11  C    0.065780
    12  C    0.020103
    13  C    0.015987
    14  C    0.238532
    15  O   -0.274200
    16  O   -0.326619
    17  N   -0.402315
    18  C    0.146879
    19  C   -0.143821
    20  C   -0.035894
    21  C    0.185296
    22  C    0.103577
    23  C   -0.061185
    24  O   -0.189903
    25  C    0.070380
    26  N   -0.305091
    27  C    0.014320
    28  C   -0.033945
    29  C   -0.005669
    30  C    0.002848
    31  C    0.048269
    32  C    0.024632
    33  C   -0.003446
    34  N   -0.376664
    35  C    0.125729
    36  C   -0.159550
    37  C    0.033572
    38  C    0.164576
    39  C    0.130250
    40  C   -0.033285
    41  O   -0.214041
    42  C    0.075000
    43  C    0.216470
    44  O   -0.228525
    45  O   -0.345416
    46  C    0.173482
    47  C    0.273017
    48  C   -0.106271
    49  C   -0.216133
    50  C    0.119880
    51  C    0.093506
    52  C    0.009037
    53  C    0.039308
    54  C   -0.130163
    55  C    0.053068
    56  C    0.019013
    57  C    0.056193
    58  C    0.046846
    59  C   -0.190836
    60  C    0.067468
    61  C    0.064998
    62  C    0.017943
    63  C    0.073347
    64  C   -0.187489
    65  C    0.016543
    66  C    0.060951
    67  H   -0.039634
    68  H    0.002908
    69  H   -0.032237
    70  H    0.037759
    71  H    0.002294
    72  H    0.018971
    73  H    0.044454
    74  H    0.020142
    75  H    0.009041
    76  H    0.019385
    77  H    0.009493
    78  H    0.046131
    79  H    0.028902
    80  H    0.025135
    81  H    0.040534
    82  H    0.034448
    83  H    0.041721
    84  H    0.025334
    85  H    0.014338
    86  H    0.018070
    87  H    0.014521
    88  H    0.019774
    89  H    0.020075
    90  H    0.017796
    91  H    0.009375
    92  H    0.028473
    93  H    0.011818
    94  H    0.019772
    95  H    0.024352
    96  H    0.023114
    97  H    0.043972
    98  H    0.036775
    99  H    0.048304
   100  H    0.029661
   101  H    0.040482
   102  H    0.043056
   103  H    0.020595
   104  H    0.004899
   105  H   -0.006423
   106  H    0.028187
   107  H    0.037395
   108  H    0.000019
   109  H   -0.004035
   110  H    0.000006
   111  H    0.001387
   112  H   -0.011568
   113  H   -0.009946
   114  H   -0.004585
   115  H   -0.000986
   116  H    0.016570
   117  H   -0.006187
   118  H   -0.022443
   119  H   -0.010967
   120  H   -0.006064
   121  H   -0.001981
   122  H   -0.009684
   123  H   -0.024748
   124  H   -0.006628
   125  H    0.003198
   126  H    0.015778
   127  H    0.016072
   128  H   -0.002525
   129  H    0.004092
   130  H    0.001722
   131  H   -0.012396
   132  H   -0.005622
   133  H   -0.000004
   134  H    0.003805
   135  H    0.006259
   136  H    0.013504
   137  H    0.010142
   138  H    0.004189
   139  H    0.009764
   140  H    0.002270
 Sum of Mulliken charges =  -0.00000

 Dipole moment (field-independent basis, Debye):
    X=             -4.6265    Y=              4.2898    Z=             -1.2648  Tot=              6.4348
 Quadrupole moment (field-independent basis, Debye-Ang):
   XX=           -384.8291   YY=           -430.2250   ZZ=           -400.4613
   XY=             30.7177   XZ=              7.0599   YZ=             -0.2100

 Normal termination of Gaussian 16 at Wed Apr 27 09:46:05 2022.
