 Gaussian 16, Revision A.03,
 Gaussian 16:  ES64L-G16RevA.03 25-Dec-2016

 ---------------------------------
 #p PBE1PBE/Def2SVP td=(nstates=5)
 ---------------------------------

 ------------------------------------------------------
 step_1151_chromophore_10 TDDFT with PBE1PBE functional
 ------------------------------------------------------
 Symbolic Z-matrix:
 Charge =  0 Multiplicity = 1

                         Standard orientation:
 ---------------------------------------------------------------------
 Center     Atomic      Atomic             Coordinates (Angstroms)
 Number     Number       Type             X           Y           Z
 ---------------------------------------------------------------------
      1         12           0        5.693906    0.999754    0.059271
      2          6           0        4.152348   -2.067924    0.709929
      3          6           0        3.130647    1.748327   -2.157868
      4          6           0        7.191024    3.953639   -0.490937
      5          6           0        8.632210   -0.308777    1.636069
      6          7           0        3.885198   -0.203141   -0.847460
      7          6           0        3.364523   -1.275852   -0.200125
      8          6           0        1.915568   -1.533508   -0.654659
      9          6           0        1.692024   -0.431009   -1.751112
     10          6           0        2.939679    0.404399   -1.545752
     11          6           0        1.417401   -1.037564   -3.157589
     12          6           0        0.904868   -1.702526    0.580782
     13          6           0       -0.027820   -3.059464    0.659140
     14          6           0       -0.945869   -3.404926   -0.504660
     15          8           0       -0.546681   -3.931668   -1.570164
     16          8           0       -2.296419   -3.287154   -0.244418
     17          7           0        5.114579    2.638633   -1.014457
     18          6           0        4.033655    2.776776   -1.820015
     19          6           0        3.966210    4.112984   -2.383705
     20          6           0        5.061441    4.779737   -1.799601
     21          6           0        5.880604    3.797990   -1.011262
     22          6           0        2.665621    4.610311   -3.119237
     23          6           0        5.334003    6.227060   -1.742376
     24          8           0        6.200003    6.640350   -1.014724
     25          6           0        4.500011    7.171048   -2.549748
     26          7           0        7.650058    1.659055    0.488077
     27          6           0        7.992589    2.956574    0.174006
     28          6           0        9.503454    3.149510    0.438330
     29          6           0        9.995064    1.813786    1.125882
     30          6           0        8.691527    1.019697    1.098238
     31          6           0       10.396203    3.598948   -0.814312
     32          6           0       10.614315    2.097682    2.546902
     33          6           0        9.547877    2.384909    3.721964
     34          7           0        6.295169   -0.748255    0.920081
     35          6           0        7.517144   -1.162109    1.534977
     36          6           0        7.408390   -2.511612    2.093467
     37          6           0        6.014553   -2.802666    1.843822
     38          6           0        5.445925   -1.768348    1.111991
     39          6           0        8.510027   -3.319805    2.665006
     40          6           0        5.126998   -3.861978    1.922616
     41          8           0        5.320544   -4.996447    2.412452
     42          6           0        3.847229   -3.433299    1.246949
     43          6           0        3.545568   -4.443021    0.231181
     44          8           0        4.033938   -4.584876   -0.900516
     45          8           0        2.528993   -5.220667    0.749502
     46          6           0        1.931031   -6.195087   -0.180148
     47          6           0       -3.154054   -3.925801   -1.236060
     48          6           0       -4.598640   -3.669541   -0.820656
     49          6           0       -5.693778   -4.310297   -1.283240
     50          6           0       -5.815422   -5.271346   -2.393446
     51          6           0       -7.091815   -3.930503   -0.655418
     52          6           0       -7.720637   -2.656747   -1.270529
     53          6           0       -9.094517   -2.784552   -1.934616
     54          6           0      -10.236050   -2.358169   -0.917955
     55          6           0      -11.540773   -3.047321   -1.319933
     56          6           0      -10.421208   -0.799271   -0.984470
     57          6           0      -11.322148   -0.203892    0.080989
     58          6           0      -10.487751    0.673019    1.079871
     59          6           0      -10.826675    2.175970    0.994172
     60          6           0       -9.496787    2.951078    1.169973
     61          6           0      -11.858544    2.602088    2.047911
     62          6           0      -12.647729    3.796010    1.399945
     63          6           0      -14.127761    3.579487    1.410788
     64          6           0      -14.883145    4.621119    2.239872
     65          6           0      -16.395038    4.063219    2.569149
     66          6           0      -15.056625    5.872460    1.372243
     67          1           0        2.336216    1.991226   -2.866448
     68          1           0        7.775758    4.875044   -0.544298
     69          1           0        9.546998   -0.720175    2.068377
     70          1           0        1.852530   -2.443272   -1.251219
     71          1           0        0.865837    0.231318   -1.492158
     72          1           0        0.644671   -0.384796   -3.562514
     73          1           0        1.143527   -2.092615   -3.183537
     74          1           0        2.310878   -1.057939   -3.782844
     75          1           0        0.146222   -0.921698    0.531424
     76          1           0        1.327956   -1.543645    1.572536
     77          1           0       -0.551217   -2.950183    1.609230
     78          1           0        0.640748   -3.820597    1.062937
     79          1           0        1.931128    3.878747   -3.454327
     80          1           0        3.067133    5.107865   -4.001685
     81          1           0        2.173742    5.327907   -2.462490
     82          1           0        3.525051    7.163353   -2.061711
     83          1           0        4.518577    6.905839   -3.606791
     84          1           0        4.993099    8.120266   -2.341313
     85          1           0        9.480239    3.955811    1.171699
     86          1           0       10.656727    1.275328    0.447482
     87          1           0       10.238902    2.905964   -1.640350
     88          1           0       11.476563    3.603372   -0.669226
     89          1           0       10.109776    4.573210   -1.207854
     90          1           0       11.335060    2.910606    2.461872
     91          1           0       11.148774    1.187467    2.817046
     92          1           0        9.203969    1.501768    4.260881
     93          1           0        8.669281    2.795488    3.225568
     94          1           0        9.868875    3.181626    4.392668
     95          1           0        8.698134   -3.099145    3.714864
     96          1           0        9.435697   -3.111733    2.128459
     97          1           0        8.120998   -4.336761    2.613798
     98          1           0        3.021813   -3.304573    1.947826
     99          1           0        2.116673   -5.947240   -1.225877
    100          1           0        0.849143   -6.163854   -0.053698
    101          1           0        2.324336   -7.201106   -0.031747
    102          1           0       -3.007084   -4.946120   -1.591141
    103          1           0       -2.972529   -3.325958   -2.127442
    104          1           0       -4.730389   -3.111476    0.106943
    105          1           0       -4.802994   -5.279821   -2.797581
    106          1           0       -6.522157   -4.862021   -3.115620
    107          1           0       -6.044148   -6.272798   -2.028155
    108          1           0       -6.871841   -3.585387    0.354722
    109          1           0       -7.828321   -4.722555   -0.789497
    110          1           0       -7.098257   -2.223114   -2.052194
    111          1           0       -7.954851   -1.986784   -0.443791
    112          1           0       -9.143184   -3.798521   -2.333228
    113          1           0       -9.116798   -2.129082   -2.804884
    114          1           0      -10.087419   -2.702309    0.105540
    115          1           0      -12.396870   -2.384268   -1.446085
    116          1           0      -11.769129   -3.891359   -0.669639
    117          1           0      -11.468175   -3.344060   -2.366610
    118          1           0      -10.831964   -0.584673   -1.971360
    119          1           0       -9.498410   -0.226067   -1.072263
    120          1           0      -11.831929   -1.045354    0.550978
    121          1           0      -12.096484    0.402943   -0.387075
    122          1           0       -9.420998    0.451298    1.034607
    123          1           0      -10.702657    0.392339    2.111506
    124          1           0      -11.229050    2.262838   -0.014533
    125          1           0       -9.800678    3.904109    1.602910
    126          1           0       -9.185122    2.908276    0.126240
    127          1           0       -8.805378    2.448625    1.846110
    128          1           0      -11.277854    2.855484    2.935633
    129          1           0      -12.506374    1.748261    2.249536
    130          1           0      -12.325513    4.130522    0.413384
    131          1           0      -12.360621    4.645626    2.020689
    132          1           0      -14.340473    2.658125    1.952522
    133          1           0      -14.430611    3.627653    0.365067
    134          1           0      -14.363560    4.918783    3.151267
    135          1           0      -16.875859    3.809279    1.624974
    136          1           0      -16.956321    4.857268    3.060416
    137          1           0      -16.443070    3.139756    3.146566
    138          1           0      -16.123547    6.050930    1.236857
    139          1           0      -14.513100    5.757877    0.434431
    140          1           0      -14.696691    6.716005    1.961215
 ---------------------------------------------------------------------

 SCF Done:  E(RPBE1PBE) =  -3005.32309811     A.U. after   15 cycles

 Excitation energies and oscillator strengths:

 Excited State   1:      Singlet-A      1.8257 eV  679.12 nm  f=0.3209  <S**2>=0.000
     245 -> 248       -0.19803
     246 -> 247        0.68566
 This state for optimization and/or second-order correction.
 Total Energy, E(TD-HF/TD-DFT) =  -3005.25600636
 Copying the excited state density for this state as the 1-particle RhoCI density.

 Excited State   2:      Singlet-A      2.2324 eV  555.40 nm  f=0.0511  <S**2>=0.000
     245 -> 247        0.61347
     246 -> 248        0.34299

 Excited State   3:      Singlet-A      2.9367 eV  422.19 nm  f=0.0032  <S**2>=0.000
     243 -> 247        0.43848
     243 -> 249        0.14872
     244 -> 247        0.49587
     244 -> 249        0.13130

 Excited State   4:      Singlet-A      3.1372 eV  395.20 nm  f=0.2455  <S**2>=0.000
     240 -> 247       -0.11660
     243 -> 247        0.38127
     244 -> 247       -0.28194
     245 -> 247       -0.20945
     246 -> 248        0.43871

 Excited State   5:      Singlet-A      3.1557 eV  392.89 nm  f=0.1178  <S**2>=0.000
     240 -> 247        0.31301
     241 -> 247        0.36242
     243 -> 247        0.26941
     244 -> 247       -0.28580
     245 -> 247        0.14248
     246 -> 248       -0.22802

 The electronic state is 1-A.
 Alpha  occ. eigenvalues --  -46.91933 -19.27035 -19.25344 -19.21007 -19.19694
 Alpha  occ. eigenvalues --  -19.18707 -19.17714 -14.41534 -14.41483 -14.39606
 Alpha  occ. eigenvalues --  -14.38647 -10.38059 -10.36062 -10.31187 -10.30317
 Alpha  occ. eigenvalues --  -10.29945 -10.29083 -10.29001 -10.28933 -10.28785
 Alpha  occ. eigenvalues --  -10.28558 -10.27871 -10.27714 -10.27211 -10.26782
 Alpha  occ. eigenvalues --  -10.26677 -10.26134 -10.26058 -10.25865 -10.25822
 Alpha  occ. eigenvalues --  -10.25702 -10.25681 -10.25675 -10.25577 -10.25363
 Alpha  occ. eigenvalues --  -10.25187 -10.25035 -10.24889 -10.24770 -10.24759
 Alpha  occ. eigenvalues --  -10.24728 -10.24288 -10.24044 -10.23753 -10.23643
 Alpha  occ. eigenvalues --  -10.23561 -10.23504 -10.23328 -10.23292 -10.23264
 Alpha  occ. eigenvalues --  -10.23191 -10.23191 -10.22673 -10.22606 -10.22396
 Alpha  occ. eigenvalues --  -10.22378 -10.22366 -10.22244 -10.22192 -10.22037
 Alpha  occ. eigenvalues --  -10.21920 -10.21830 -10.21813 -10.21763 -10.21654
 Alpha  occ. eigenvalues --  -10.21472  -3.14110  -1.86941  -1.86518  -1.86309
 Alpha  occ. eigenvalues --   -1.11641  -1.09858  -1.05842  -1.02199  -1.02187
 Alpha  occ. eigenvalues --   -1.01254  -0.99355  -0.97854  -0.97433  -0.96677
 Alpha  occ. eigenvalues --   -0.87821  -0.84787  -0.84368  -0.83201  -0.82711
 Alpha  occ. eigenvalues --   -0.82496  -0.81876  -0.81809  -0.81273  -0.80799
 Alpha  occ. eigenvalues --   -0.80515  -0.79651  -0.78608  -0.77698  -0.77141
 Alpha  occ. eigenvalues --   -0.76417  -0.75928  -0.75539  -0.75167  -0.74430
 Alpha  occ. eigenvalues --   -0.74310  -0.72599  -0.72191  -0.71202  -0.70408
 Alpha  occ. eigenvalues --   -0.70150  -0.69364  -0.68903  -0.68751  -0.68308
 Alpha  occ. eigenvalues --   -0.67685  -0.66770  -0.66383  -0.65275  -0.64304
 Alpha  occ. eigenvalues --   -0.63114  -0.62403  -0.61654  -0.60936  -0.60325
 Alpha  occ. eigenvalues --   -0.59558  -0.59154  -0.59073  -0.58966  -0.58597
 Alpha  occ. eigenvalues --   -0.58139  -0.57513  -0.56868  -0.56089  -0.54742
 Alpha  occ. eigenvalues --   -0.54167  -0.53808  -0.53603  -0.52727  -0.52594
 Alpha  occ. eigenvalues --   -0.51538  -0.51349  -0.50468  -0.50146  -0.49850
 Alpha  occ. eigenvalues --   -0.49534  -0.49462  -0.49385  -0.48810  -0.48391
 Alpha  occ. eigenvalues --   -0.48251  -0.48169  -0.47891  -0.47676  -0.47260
 Alpha  occ. eigenvalues --   -0.46819  -0.46715  -0.46252  -0.46232  -0.46042
 Alpha  occ. eigenvalues --   -0.45948  -0.45580  -0.45562  -0.45364  -0.45020
 Alpha  occ. eigenvalues --   -0.44940  -0.44509  -0.44436  -0.44299  -0.44266
 Alpha  occ. eigenvalues --   -0.43643  -0.43554  -0.43531  -0.43199  -0.42983
 Alpha  occ. eigenvalues --   -0.42869  -0.42848  -0.42753  -0.42569  -0.42538
 Alpha  occ. eigenvalues --   -0.42303  -0.41986  -0.41714  -0.41426  -0.41307
 Alpha  occ. eigenvalues --   -0.41227  -0.40717  -0.40689  -0.40385  -0.40236
 Alpha  occ. eigenvalues --   -0.40098  -0.40075  -0.39829  -0.39568  -0.39440
 Alpha  occ. eigenvalues --   -0.39374  -0.39127  -0.39095  -0.38872  -0.38765
 Alpha  occ. eigenvalues --   -0.38588  -0.38369  -0.38193  -0.38000  -0.37819
 Alpha  occ. eigenvalues --   -0.37732  -0.37525  -0.37306  -0.37233  -0.36743
 Alpha  occ. eigenvalues --   -0.36652  -0.36530  -0.36251  -0.36185  -0.35978
 Alpha  occ. eigenvalues --   -0.35534  -0.35409  -0.35301  -0.35240  -0.34607
 Alpha  occ. eigenvalues --   -0.34585  -0.34484  -0.34408  -0.33997  -0.33912
 Alpha  occ. eigenvalues --   -0.33364  -0.33048  -0.32678  -0.32544  -0.32263
 Alpha  occ. eigenvalues --   -0.32034  -0.31863  -0.31594  -0.31207  -0.30945
 Alpha  occ. eigenvalues --   -0.30881  -0.30489  -0.29816  -0.29472  -0.29459
 Alpha  occ. eigenvalues --   -0.29021  -0.28530  -0.28498  -0.26650  -0.25726
 Alpha  occ. eigenvalues --   -0.25468  -0.25050  -0.25019  -0.24780  -0.20760
 Alpha  occ. eigenvalues --   -0.18242
 Alpha virt. eigenvalues --   -0.10594  -0.05868  -0.04060  -0.02273  -0.01778
 Alpha virt. eigenvalues --   -0.00017   0.00800   0.01047   0.01323   0.03219
 Alpha virt. eigenvalues --    0.04173   0.04746   0.05415   0.05515   0.06083

 Mulliken charges:
               1
     1  Mg   0.986584
     2  C   -0.076911
     3  C   -0.042679
     4  C   -0.040714
     5  C   -0.065743
     6  N   -0.302582
     7  C    0.011093
     8  C   -0.059893
     9  C   -0.123506
    10  C    0.023094
    11  C    0.008766
    12  C   -0.030480
    13  C   -0.058572
    14  C    0.297038
    15  O   -0.304295
    16  O   -0.359030
    17  N   -0.519534
    18  C    0.162940
    19  C   -0.157952
    20  C   -0.092021
    21  C    0.212658
    22  C    0.039478
    23  C   -0.008666
    24  O   -0.228499
    25  C   -0.005692
    26  N   -0.409500
    27  C    0.048964
    28  C   -0.110084
    29  C   -0.080709
    30  C    0.044654
    31  C   -0.012021
    32  C   -0.037400
    33  C   -0.078580
    34  N   -0.505327
    35  C    0.137620
    36  C   -0.157371
    37  C   -0.014765
    38  C    0.210899
    39  C    0.072412
    40  C    0.054999
    41  O   -0.259097
    42  C   -0.041133
    43  C    0.304691
    44  O   -0.264181
    45  O   -0.377210
    46  C    0.119309
    47  C    0.234270
    48  C   -0.118188
    49  C   -0.256519
    50  C    0.050965
    51  C    0.026025
    52  C   -0.049318
    53  C   -0.014457
    54  C   -0.224405
    55  C   -0.002791
    56  C   -0.029834
    57  C   -0.008757
    58  C   -0.003027
    59  C   -0.276177
    60  C    0.004019
    61  C    0.008119
    62  C   -0.035926
    63  C    0.009597
    64  C   -0.276591
    65  C   -0.048913
    66  C    0.003152
    67  H   -0.006130
    68  H    0.034568
    69  H   -0.000530
    70  H    0.078634
    71  H    0.040049
    72  H    0.045573
    73  H    0.069682
    74  H    0.047589
    75  H    0.042909
    76  H    0.049913
    77  H    0.041973
    78  H    0.081296
    79  H    0.053179
    80  H    0.052732
    81  H    0.067090
    82  H    0.061987
    83  H    0.067639
    84  H    0.052326
    85  H    0.052302
    86  H    0.055334
    87  H    0.042859
    88  H    0.046882
    89  H    0.047612
    90  H    0.050831
    91  H    0.042273
    92  H    0.055578
    93  H    0.042810
    94  H    0.048345
    95  H    0.053989
    96  H    0.050492
    97  H    0.072749
    98  H    0.074260
    99  H    0.068771
   100  H    0.051785
   101  H    0.062544
   102  H    0.068099
   103  H    0.049653
   104  H    0.034175
   105  H    0.023432
   106  H    0.056613
   107  H    0.065104
   108  H    0.033191
   109  H    0.028087
   110  H    0.032299
   111  H    0.035843
   112  H    0.020342
   113  H    0.022658
   114  H    0.032587
   115  H    0.026285
   116  H    0.043815
   117  H    0.021723
   118  H    0.011069
   119  H    0.020931
   120  H    0.027152
   121  H    0.029807
   122  H    0.021932
   123  H    0.009237
   124  H    0.031370
   125  H    0.032171
   126  H    0.044677
   127  H    0.043327
   128  H    0.030281
   129  H    0.036471
   130  H    0.031560
   131  H    0.020158
   132  H    0.028118
   133  H    0.032526
   134  H    0.040051
   135  H    0.034302
   136  H    0.041950
   137  H    0.037874
   138  H    0.031878
   139  H    0.036749
   140  H    0.030313
 Sum of Mulliken charges =  -0.00000

 Dipole moment (field-independent basis, Debye):
    X=             -4.4035    Y=              3.8730    Z=             -0.9997  Tot=              5.9490
 Quadrupole moment (field-independent basis, Debye-Ang):
   XX=           -376.2148   YY=           -428.7014   ZZ=           -397.5832
   XY=             28.8568   XZ=              9.6995   YZ=              0.4438

 Normal termination of Gaussian 16 at Wed Apr 27 10:14:20 2022.
