 Gaussian 16, Revision A.03,
 Gaussian 16:  ES64L-G16RevA.03 25-Dec-2016

 --------------------------------
 #p wB97XD/Def2SVP td=(nstates=5)
 --------------------------------

 -----------------------------------------------------
 step_1151_chromophore_10 TDDFT with wB97XD functional
 -----------------------------------------------------
 Symbolic Z-matrix:
 Charge =  0 Multiplicity = 1

                         Standard orientation:
 ---------------------------------------------------------------------
 Center     Atomic      Atomic             Coordinates (Angstroms)
 Number     Number       Type             X           Y           Z
 ---------------------------------------------------------------------
      1         12           0        5.693906    0.999754    0.059271
      2          6           0        4.152348   -2.067924    0.709929
      3          6           0        3.130647    1.748327   -2.157868
      4          6           0        7.191024    3.953639   -0.490937
      5          6           0        8.632210   -0.308777    1.636069
      6          7           0        3.885198   -0.203141   -0.847460
      7          6           0        3.364523   -1.275852   -0.200125
      8          6           0        1.915568   -1.533508   -0.654659
      9          6           0        1.692024   -0.431009   -1.751112
     10          6           0        2.939679    0.404399   -1.545752
     11          6           0        1.417401   -1.037564   -3.157589
     12          6           0        0.904868   -1.702526    0.580782
     13          6           0       -0.027820   -3.059464    0.659140
     14          6           0       -0.945869   -3.404926   -0.504660
     15          8           0       -0.546681   -3.931668   -1.570164
     16          8           0       -2.296419   -3.287154   -0.244418
     17          7           0        5.114579    2.638633   -1.014457
     18          6           0        4.033655    2.776776   -1.820015
     19          6           0        3.966210    4.112984   -2.383705
     20          6           0        5.061441    4.779737   -1.799601
     21          6           0        5.880604    3.797990   -1.011262
     22          6           0        2.665621    4.610311   -3.119237
     23          6           0        5.334003    6.227060   -1.742376
     24          8           0        6.200003    6.640350   -1.014724
     25          6           0        4.500011    7.171048   -2.549748
     26          7           0        7.650058    1.659055    0.488077
     27          6           0        7.992589    2.956574    0.174006
     28          6           0        9.503454    3.149510    0.438330
     29          6           0        9.995064    1.813786    1.125882
     30          6           0        8.691527    1.019697    1.098238
     31          6           0       10.396203    3.598948   -0.814312
     32          6           0       10.614315    2.097682    2.546902
     33          6           0        9.547877    2.384909    3.721964
     34          7           0        6.295169   -0.748255    0.920081
     35          6           0        7.517144   -1.162109    1.534977
     36          6           0        7.408390   -2.511612    2.093467
     37          6           0        6.014553   -2.802666    1.843822
     38          6           0        5.445925   -1.768348    1.111991
     39          6           0        8.510027   -3.319805    2.665006
     40          6           0        5.126998   -3.861978    1.922616
     41          8           0        5.320544   -4.996447    2.412452
     42          6           0        3.847229   -3.433299    1.246949
     43          6           0        3.545568   -4.443021    0.231181
     44          8           0        4.033938   -4.584876   -0.900516
     45          8           0        2.528993   -5.220667    0.749502
     46          6           0        1.931031   -6.195087   -0.180148
     47          6           0       -3.154054   -3.925801   -1.236060
     48          6           0       -4.598640   -3.669541   -0.820656
     49          6           0       -5.693778   -4.310297   -1.283240
     50          6           0       -5.815422   -5.271346   -2.393446
     51          6           0       -7.091815   -3.930503   -0.655418
     52          6           0       -7.720637   -2.656747   -1.270529
     53          6           0       -9.094517   -2.784552   -1.934616
     54          6           0      -10.236050   -2.358169   -0.917955
     55          6           0      -11.540773   -3.047321   -1.319933
     56          6           0      -10.421208   -0.799271   -0.984470
     57          6           0      -11.322148   -0.203892    0.080989
     58          6           0      -10.487751    0.673019    1.079871
     59          6           0      -10.826675    2.175970    0.994172
     60          6           0       -9.496787    2.951078    1.169973
     61          6           0      -11.858544    2.602088    2.047911
     62          6           0      -12.647729    3.796010    1.399945
     63          6           0      -14.127761    3.579487    1.410788
     64          6           0      -14.883145    4.621119    2.239872
     65          6           0      -16.395038    4.063219    2.569149
     66          6           0      -15.056625    5.872460    1.372243
     67          1           0        2.336216    1.991226   -2.866448
     68          1           0        7.775758    4.875044   -0.544298
     69          1           0        9.546998   -0.720175    2.068377
     70          1           0        1.852530   -2.443272   -1.251219
     71          1           0        0.865837    0.231318   -1.492158
     72          1           0        0.644671   -0.384796   -3.562514
     73          1           0        1.143527   -2.092615   -3.183537
     74          1           0        2.310878   -1.057939   -3.782844
     75          1           0        0.146222   -0.921698    0.531424
     76          1           0        1.327956   -1.543645    1.572536
     77          1           0       -0.551217   -2.950183    1.609230
     78          1           0        0.640748   -3.820597    1.062937
     79          1           0        1.931128    3.878747   -3.454327
     80          1           0        3.067133    5.107865   -4.001685
     81          1           0        2.173742    5.327907   -2.462490
     82          1           0        3.525051    7.163353   -2.061711
     83          1           0        4.518577    6.905839   -3.606791
     84          1           0        4.993099    8.120266   -2.341313
     85          1           0        9.480239    3.955811    1.171699
     86          1           0       10.656727    1.275328    0.447482
     87          1           0       10.238902    2.905964   -1.640350
     88          1           0       11.476563    3.603372   -0.669226
     89          1           0       10.109776    4.573210   -1.207854
     90          1           0       11.335060    2.910606    2.461872
     91          1           0       11.148774    1.187467    2.817046
     92          1           0        9.203969    1.501768    4.260881
     93          1           0        8.669281    2.795488    3.225568
     94          1           0        9.868875    3.181626    4.392668
     95          1           0        8.698134   -3.099145    3.714864
     96          1           0        9.435697   -3.111733    2.128459
     97          1           0        8.120998   -4.336761    2.613798
     98          1           0        3.021813   -3.304573    1.947826
     99          1           0        2.116673   -5.947240   -1.225877
    100          1           0        0.849143   -6.163854   -0.053698
    101          1           0        2.324336   -7.201106   -0.031747
    102          1           0       -3.007084   -4.946120   -1.591141
    103          1           0       -2.972529   -3.325958   -2.127442
    104          1           0       -4.730389   -3.111476    0.106943
    105          1           0       -4.802994   -5.279821   -2.797581
    106          1           0       -6.522157   -4.862021   -3.115620
    107          1           0       -6.044148   -6.272798   -2.028155
    108          1           0       -6.871841   -3.585387    0.354722
    109          1           0       -7.828321   -4.722555   -0.789497
    110          1           0       -7.098257   -2.223114   -2.052194
    111          1           0       -7.954851   -1.986784   -0.443791
    112          1           0       -9.143184   -3.798521   -2.333228
    113          1           0       -9.116798   -2.129082   -2.804884
    114          1           0      -10.087419   -2.702309    0.105540
    115          1           0      -12.396870   -2.384268   -1.446085
    116          1           0      -11.769129   -3.891359   -0.669639
    117          1           0      -11.468175   -3.344060   -2.366610
    118          1           0      -10.831964   -0.584673   -1.971360
    119          1           0       -9.498410   -0.226067   -1.072263
    120          1           0      -11.831929   -1.045354    0.550978
    121          1           0      -12.096484    0.402943   -0.387075
    122          1           0       -9.420998    0.451298    1.034607
    123          1           0      -10.702657    0.392339    2.111506
    124          1           0      -11.229050    2.262838   -0.014533
    125          1           0       -9.800678    3.904109    1.602910
    126          1           0       -9.185122    2.908276    0.126240
    127          1           0       -8.805378    2.448625    1.846110
    128          1           0      -11.277854    2.855484    2.935633
    129          1           0      -12.506374    1.748261    2.249536
    130          1           0      -12.325513    4.130522    0.413384
    131          1           0      -12.360621    4.645626    2.020689
    132          1           0      -14.340473    2.658125    1.952522
    133          1           0      -14.430611    3.627653    0.365067
    134          1           0      -14.363560    4.918783    3.151267
    135          1           0      -16.875859    3.809279    1.624974
    136          1           0      -16.956321    4.857268    3.060416
    137          1           0      -16.443070    3.139756    3.146566
    138          1           0      -16.123547    6.050930    1.236857
    139          1           0      -14.513100    5.757877    0.434431
    140          1           0      -14.696691    6.716005    1.961215
 ---------------------------------------------------------------------

 SCF Done:  E(RwB97XD) =  -3007.83280031     A.U. after   18 cycles

 Excitation energies and oscillator strengths:

 Excited State   1:      Singlet-A      1.6495 eV  751.67 nm  f=0.3330  <S**2>=0.000
     245 -> 248       -0.20642
     246 -> 247        0.67742
     245 <- 248       -0.12164
 This state for optimization and/or second-order correction.
 Total Energy, E(TD-HF/TD-DFT) =  -3007.77218411
 Copying the excited state density for this state as the 1-particle RhoCI density.

 Excited State   2:      Singlet-A      2.1784 eV  569.16 nm  f=0.0408  <S**2>=0.000
     245 -> 247        0.59173
     246 -> 248        0.37523

 Excited State   3:      Singlet-A      3.3341 eV  371.86 nm  f=0.7930  <S**2>=0.000
     239 -> 247       -0.10669
     244 -> 247       -0.10327
     245 -> 247       -0.35248
     246 -> 248        0.58034
     245 <- 247        0.11359

 Excited State   4:      Singlet-A      3.4684 eV  357.47 nm  f=0.0380  <S**2>=0.000
     242 -> 247        0.48919
     242 -> 249       -0.31651
     242 -> 250        0.11130
     242 -> 251        0.18366
     244 -> 247        0.23040

 Excited State   5:      Singlet-A      3.5648 eV  347.80 nm  f=0.0059  <S**2>=0.000
     241 -> 247       -0.31892
     242 -> 247       -0.17924
     242 -> 249        0.12453
     244 -> 247        0.55710

 The electronic state is 1-A.
 Alpha  occ. eigenvalues --  -46.94865 -19.31577 -19.29853 -19.25654 -19.24347
 Alpha  occ. eigenvalues --  -19.23737 -19.22295 -14.46680 -14.46509 -14.44662
 Alpha  occ. eigenvalues --  -14.43448 -10.44838 -10.42859 -10.38238 -10.37018
 Alpha  occ. eigenvalues --  -10.36416 -10.35634 -10.35596 -10.35531 -10.34898
 Alpha  occ. eigenvalues --  -10.34576 -10.34567 -10.34193 -10.33652 -10.33164
 Alpha  occ. eigenvalues --  -10.33002 -10.32528 -10.32344 -10.32294 -10.32188
 Alpha  occ. eigenvalues --  -10.32053 -10.31796 -10.31795 -10.31775 -10.31748
 Alpha  occ. eigenvalues --  -10.31700 -10.31470 -10.31393 -10.31123 -10.31102
 Alpha  occ. eigenvalues --  -10.31099 -10.30490 -10.30323 -10.30165 -10.30099
 Alpha  occ. eigenvalues --  -10.30046 -10.29890 -10.29831 -10.29770 -10.29669
 Alpha  occ. eigenvalues --  -10.29521 -10.29398 -10.29037 -10.28873 -10.28758
 Alpha  occ. eigenvalues --  -10.28754 -10.28741 -10.28667 -10.28566 -10.28408
 Alpha  occ. eigenvalues --  -10.28357 -10.28169 -10.28129 -10.28088 -10.27899
 Alpha  occ. eigenvalues --  -10.27860  -3.20900  -1.94480  -1.94058  -1.93847
 Alpha  occ. eigenvalues --   -1.19002  -1.17217  -1.13529  -1.09529  -1.09506
 Alpha  occ. eigenvalues --   -1.08581  -1.06786  -1.05355  -1.04809  -1.03917
 Alpha  occ. eigenvalues --   -0.95305  -0.92467  -0.92037  -0.90874  -0.90362
 Alpha  occ. eigenvalues --   -0.90206  -0.89540  -0.89417  -0.89075  -0.88390
 Alpha  occ. eigenvalues --   -0.88033  -0.87308  -0.86278  -0.85277  -0.84825
 Alpha  occ. eigenvalues --   -0.84132  -0.83767  -0.83174  -0.82703  -0.82099
 Alpha  occ. eigenvalues --   -0.81968  -0.80412  -0.79846  -0.78760  -0.78062
 Alpha  occ. eigenvalues --   -0.77755  -0.76961  -0.76618  -0.76444  -0.75969
 Alpha  occ. eigenvalues --   -0.75296  -0.74253  -0.73933  -0.72898  -0.71837
 Alpha  occ. eigenvalues --   -0.70711  -0.70055  -0.69220  -0.68585  -0.67827
 Alpha  occ. eigenvalues --   -0.67105  -0.66577  -0.66536  -0.66474  -0.66064
 Alpha  occ. eigenvalues --   -0.65821  -0.65182  -0.64534  -0.63434  -0.62231
 Alpha  occ. eigenvalues --   -0.61764  -0.61190  -0.61025  -0.60197  -0.59921
 Alpha  occ. eigenvalues --   -0.58961  -0.58760  -0.57853  -0.57635  -0.57234
 Alpha  occ. eigenvalues --   -0.57015  -0.56885  -0.56780  -0.56207  -0.55834
 Alpha  occ. eigenvalues --   -0.55693  -0.55577  -0.55477  -0.55178  -0.54669
 Alpha  occ. eigenvalues --   -0.54134  -0.54069  -0.53615  -0.53577  -0.53372
 Alpha  occ. eigenvalues --   -0.53309  -0.52948  -0.52840  -0.52695  -0.52469
 Alpha  occ. eigenvalues --   -0.52384  -0.51928  -0.51838  -0.51646  -0.51547
 Alpha  occ. eigenvalues --   -0.50957  -0.50871  -0.50795  -0.50531  -0.50295
 Alpha  occ. eigenvalues --   -0.50264  -0.50168  -0.50063  -0.49866  -0.49835
 Alpha  occ. eigenvalues --   -0.49514  -0.49297  -0.48999  -0.48711  -0.48567
 Alpha  occ. eigenvalues --   -0.48472  -0.47934  -0.47907  -0.47495  -0.47324
 Alpha  occ. eigenvalues --   -0.47299  -0.47178  -0.47018  -0.46809  -0.46616
 Alpha  occ. eigenvalues --   -0.46533  -0.46289  -0.46169  -0.46030  -0.45880
 Alpha  occ. eigenvalues --   -0.45698  -0.45453  -0.45327  -0.45119  -0.44957
 Alpha  occ. eigenvalues --   -0.44877  -0.44759  -0.44511  -0.44281  -0.43857
 Alpha  occ. eigenvalues --   -0.43803  -0.43499  -0.43371  -0.43238  -0.43100
 Alpha  occ. eigenvalues --   -0.42510  -0.42412  -0.42347  -0.42325  -0.41702
 Alpha  occ. eigenvalues --   -0.41553  -0.41486  -0.41473  -0.41051  -0.40851
 Alpha  occ. eigenvalues --   -0.40238  -0.40147  -0.39607  -0.39582  -0.39320
 Alpha  occ. eigenvalues --   -0.39050  -0.38817  -0.38570  -0.38224  -0.37959
 Alpha  occ. eigenvalues --   -0.37883  -0.37433  -0.36778  -0.36567  -0.36232
 Alpha  occ. eigenvalues --   -0.35974  -0.35383  -0.35326  -0.33486  -0.33036
 Alpha  occ. eigenvalues --   -0.32091  -0.31918  -0.31794  -0.31134  -0.25776
 Alpha  occ. eigenvalues --   -0.22376
 Alpha virt. eigenvalues --   -0.06358  -0.00590   0.02166   0.04516   0.04754
 Alpha virt. eigenvalues --    0.05824   0.07651   0.07756   0.08100   0.09612
 Alpha virt. eigenvalues --    0.10644   0.11628   0.12115   0.12250   0.12805

 Mulliken charges:
               1
     1  Mg   0.976712
     2  C   -0.080625
     3  C   -0.059752
     4  C   -0.062343
     5  C   -0.084594
     6  N   -0.268506
     7  C   -0.022039
     8  C   -0.034084
     9  C   -0.098820
    10  C    0.007856
    11  C    0.017697
    12  C   -0.019268
    13  C   -0.037469
    14  C    0.286406
    15  O   -0.300541
    16  O   -0.357829
    17  N   -0.489282
    18  C    0.161603
    19  C   -0.152496
    20  C   -0.082642
    21  C    0.209298
    22  C    0.055384
    23  C   -0.011795
    24  O   -0.221645
    25  C    0.005606
    26  N   -0.377225
    27  C    0.038985
    28  C   -0.087220
    29  C   -0.054168
    30  C    0.027490
    31  C    0.000549
    32  C   -0.024505
    33  C   -0.057172
    34  N   -0.468239
    35  C    0.132854
    36  C   -0.163401
    37  C   -0.009858
    38  C    0.192664
    39  C    0.084547
    40  C    0.036788
    41  O   -0.249577
    42  C    0.002612
    43  C    0.279705
    44  O   -0.257694
    45  O   -0.374679
    46  C    0.134477
    47  C    0.245550
    48  C   -0.127091
    49  C   -0.241470
    50  C    0.065986
    51  C    0.045694
    52  C   -0.032953
    53  C   -0.000251
    54  C   -0.188793
    55  C    0.004830
    56  C   -0.015018
    57  C    0.007103
    58  C    0.011437
    59  C   -0.241893
    60  C    0.017138
    61  C    0.024796
    62  C   -0.025694
    63  C    0.030694
    64  C   -0.248982
    65  C   -0.033228
    66  C    0.011878
    67  H   -0.014244
    68  H    0.030219
    69  H   -0.006308
    70  H    0.059347
    71  H    0.029877
    72  H    0.040410
    73  H    0.066474
    74  H    0.042441
    75  H    0.033990
    76  H    0.043113
    77  H    0.037742
    78  H    0.067043
    79  H    0.052170
    80  H    0.046772
    81  H    0.062254
    82  H    0.056313
    83  H    0.063517
    84  H    0.051844
    85  H    0.040452
    86  H    0.046299
    87  H    0.035993
    88  H    0.042170
    89  H    0.041610
    90  H    0.042533
    91  H    0.034335
    92  H    0.050333
    93  H    0.029807
    94  H    0.043225
    95  H    0.048081
    96  H    0.044090
    97  H    0.067530
    98  H    0.065627
    99  H    0.065321
   100  H    0.046835
   101  H    0.059396
   102  H    0.063020
   103  H    0.043429
   104  H    0.031500
   105  H    0.015725
   106  H    0.050442
   107  H    0.060721
   108  H    0.025306
   109  H    0.019704
   110  H    0.024154
   111  H    0.022754
   112  H    0.010034
   113  H    0.014473
   114  H    0.020258
   115  H    0.019948
   116  H    0.039915
   117  H    0.014959
   118  H    0.001173
   119  H    0.009599
   120  H    0.018135
   121  H    0.021208
   122  H    0.010972
   123  H   -0.000010
   124  H    0.014627
   125  H    0.025146
   126  H    0.038269
   127  H    0.037411
   128  H    0.022225
   129  H    0.025074
   130  H    0.023692
   131  H    0.010316
   132  H    0.016263
   133  H    0.023829
   134  H    0.030162
   135  H    0.026341
   136  H    0.035780
   137  H    0.032371
   138  H    0.025676
   139  H    0.030237
   140  H    0.025052
 Sum of Mulliken charges =  -0.00000

 Dipole moment (field-independent basis, Debye):
    X=             -4.7428    Y=              4.4655    Z=             -1.3609  Tot=              6.6548
 Quadrupole moment (field-independent basis, Debye-Ang):
   XX=           -380.3427   YY=           -425.9729   ZZ=           -397.0670
   XY=             31.6258   XZ=              7.5280   YZ=             -0.5420

 Normal termination of Gaussian 16 at Wed Apr 27 10:52:37 2022.
