 Gaussian 16, Revision A.03,
 Gaussian 16:  ES64L-G16RevA.03 25-Dec-2016

 --------------------
 #p ZINDO=(nstates=5)
 --------------------

 ------------------------------
 step_1151_chromophore_10 ZINDO
 ------------------------------
 Symbolic Z-matrix:
 Charge =  0 Multiplicity = 1

                         Standard orientation:
 ---------------------------------------------------------------------
 Center     Atomic      Atomic             Coordinates (Angstroms)
 Number     Number       Type             X           Y           Z
 ---------------------------------------------------------------------
      1         12           0        5.693906    0.999754    0.059271
      2          6           0        4.152348   -2.067924    0.709929
      3          6           0        3.130647    1.748327   -2.157868
      4          6           0        7.191024    3.953639   -0.490937
      5          6           0        8.632210   -0.308777    1.636069
      6          7           0        3.885198   -0.203141   -0.847460
      7          6           0        3.364523   -1.275852   -0.200125
      8          6           0        1.915568   -1.533508   -0.654659
      9          6           0        1.692024   -0.431009   -1.751112
     10          6           0        2.939679    0.404399   -1.545752
     11          6           0        1.417401   -1.037564   -3.157589
     12          6           0        0.904868   -1.702526    0.580782
     13          6           0       -0.027820   -3.059464    0.659140
     14          6           0       -0.945869   -3.404926   -0.504660
     15          8           0       -0.546681   -3.931668   -1.570164
     16          8           0       -2.296419   -3.287154   -0.244418
     17          7           0        5.114579    2.638633   -1.014457
     18          6           0        4.033655    2.776776   -1.820015
     19          6           0        3.966210    4.112984   -2.383705
     20          6           0        5.061441    4.779737   -1.799601
     21          6           0        5.880604    3.797990   -1.011262
     22          6           0        2.665621    4.610311   -3.119237
     23          6           0        5.334003    6.227060   -1.742376
     24          8           0        6.200003    6.640350   -1.014724
     25          6           0        4.500011    7.171048   -2.549748
     26          7           0        7.650058    1.659055    0.488077
     27          6           0        7.992589    2.956574    0.174006
     28          6           0        9.503454    3.149510    0.438330
     29          6           0        9.995064    1.813786    1.125882
     30          6           0        8.691527    1.019697    1.098238
     31          6           0       10.396203    3.598948   -0.814312
     32          6           0       10.614315    2.097682    2.546902
     33          6           0        9.547877    2.384909    3.721964
     34          7           0        6.295169   -0.748255    0.920081
     35          6           0        7.517144   -1.162109    1.534977
     36          6           0        7.408390   -2.511612    2.093467
     37          6           0        6.014553   -2.802666    1.843822
     38          6           0        5.445925   -1.768348    1.111991
     39          6           0        8.510027   -3.319805    2.665006
     40          6           0        5.126998   -3.861978    1.922616
     41          8           0        5.320544   -4.996447    2.412452
     42          6           0        3.847229   -3.433299    1.246949
     43          6           0        3.545568   -4.443021    0.231181
     44          8           0        4.033938   -4.584876   -0.900516
     45          8           0        2.528993   -5.220667    0.749502
     46          6           0        1.931031   -6.195087   -0.180148
     47          6           0       -3.154054   -3.925801   -1.236060
     48          6           0       -4.598640   -3.669541   -0.820656
     49          6           0       -5.693778   -4.310297   -1.283240
     50          6           0       -5.815422   -5.271346   -2.393446
     51          6           0       -7.091815   -3.930503   -0.655418
     52          6           0       -7.720637   -2.656747   -1.270529
     53          6           0       -9.094517   -2.784552   -1.934616
     54          6           0      -10.236050   -2.358169   -0.917955
     55          6           0      -11.540773   -3.047321   -1.319933
     56          6           0      -10.421208   -0.799271   -0.984470
     57          6           0      -11.322148   -0.203892    0.080989
     58          6           0      -10.487751    0.673019    1.079871
     59          6           0      -10.826675    2.175970    0.994172
     60          6           0       -9.496787    2.951078    1.169973
     61          6           0      -11.858544    2.602088    2.047911
     62          6           0      -12.647729    3.796010    1.399945
     63          6           0      -14.127761    3.579487    1.410788
     64          6           0      -14.883145    4.621119    2.239872
     65          6           0      -16.395038    4.063219    2.569149
     66          6           0      -15.056625    5.872460    1.372243
     67          1           0        2.336216    1.991226   -2.866448
     68          1           0        7.775758    4.875044   -0.544298
     69          1           0        9.546998   -0.720175    2.068377
     70          1           0        1.852530   -2.443272   -1.251219
     71          1           0        0.865837    0.231318   -1.492158
     72          1           0        0.644671   -0.384796   -3.562514
     73          1           0        1.143527   -2.092615   -3.183537
     74          1           0        2.310878   -1.057939   -3.782844
     75          1           0        0.146222   -0.921698    0.531424
     76          1           0        1.327956   -1.543645    1.572536
     77          1           0       -0.551217   -2.950183    1.609230
     78          1           0        0.640748   -3.820597    1.062937
     79          1           0        1.931128    3.878747   -3.454327
     80          1           0        3.067133    5.107865   -4.001685
     81          1           0        2.173742    5.327907   -2.462490
     82          1           0        3.525051    7.163353   -2.061711
     83          1           0        4.518577    6.905839   -3.606791
     84          1           0        4.993099    8.120266   -2.341313
     85          1           0        9.480239    3.955811    1.171699
     86          1           0       10.656727    1.275328    0.447482
     87          1           0       10.238902    2.905964   -1.640350
     88          1           0       11.476563    3.603372   -0.669226
     89          1           0       10.109776    4.573210   -1.207854
     90          1           0       11.335060    2.910606    2.461872
     91          1           0       11.148774    1.187467    2.817046
     92          1           0        9.203969    1.501768    4.260881
     93          1           0        8.669281    2.795488    3.225568
     94          1           0        9.868875    3.181626    4.392668
     95          1           0        8.698134   -3.099145    3.714864
     96          1           0        9.435697   -3.111733    2.128459
     97          1           0        8.120998   -4.336761    2.613798
     98          1           0        3.021813   -3.304573    1.947826
     99          1           0        2.116673   -5.947240   -1.225877
    100          1           0        0.849143   -6.163854   -0.053698
    101          1           0        2.324336   -7.201106   -0.031747
    102          1           0       -3.007084   -4.946120   -1.591141
    103          1           0       -2.972529   -3.325958   -2.127442
    104          1           0       -4.730389   -3.111476    0.106943
    105          1           0       -4.802994   -5.279821   -2.797581
    106          1           0       -6.522157   -4.862021   -3.115620
    107          1           0       -6.044148   -6.272798   -2.028155
    108          1           0       -6.871841   -3.585387    0.354722
    109          1           0       -7.828321   -4.722555   -0.789497
    110          1           0       -7.098257   -2.223114   -2.052194
    111          1           0       -7.954851   -1.986784   -0.443791
    112          1           0       -9.143184   -3.798521   -2.333228
    113          1           0       -9.116798   -2.129082   -2.804884
    114          1           0      -10.087419   -2.702309    0.105540
    115          1           0      -12.396870   -2.384268   -1.446085
    116          1           0      -11.769129   -3.891359   -0.669639
    117          1           0      -11.468175   -3.344060   -2.366610
    118          1           0      -10.831964   -0.584673   -1.971360
    119          1           0       -9.498410   -0.226067   -1.072263
    120          1           0      -11.831929   -1.045354    0.550978
    121          1           0      -12.096484    0.402943   -0.387075
    122          1           0       -9.420998    0.451298    1.034607
    123          1           0      -10.702657    0.392339    2.111506
    124          1           0      -11.229050    2.262838   -0.014533
    125          1           0       -9.800678    3.904109    1.602910
    126          1           0       -9.185122    2.908276    0.126240
    127          1           0       -8.805378    2.448625    1.846110
    128          1           0      -11.277854    2.855484    2.935633
    129          1           0      -12.506374    1.748261    2.249536
    130          1           0      -12.325513    4.130522    0.413384
    131          1           0      -12.360621    4.645626    2.020689
    132          1           0      -14.340473    2.658125    1.952522
    133          1           0      -14.430611    3.627653    0.365067
    134          1           0      -14.363560    4.918783    3.151267
    135          1           0      -16.875859    3.809279    1.624974
    136          1           0      -16.956321    4.857268    3.060416
    137          1           0      -16.443070    3.139756    3.146566
    138          1           0      -16.123547    6.050930    1.236857
    139          1           0      -14.513100    5.757877    0.434431
    140          1           0      -14.696691    6.716005    1.961215
 ---------------------------------------------------------------------

 SCF Done:  E(RZINDO/S) =  -474.041063158     A.U. after   20 cycles

 Excitation energies and oscillator strengths:

 Excited State   1:      Singlet-A      1.2647 eV  980.32 nm  f=0.5320  <S**2>=0.000
     175 ->178        -0.19386
     176 ->177         0.66273
 This state for optimization and/or second-order correction.
 Total Energy, E(CIS/TDA) =  -473.994585071
 Copying the excited state density for this state as the 1-particle RhoCI density.

 Excited State   2:      Singlet-A      1.8521 eV  669.42 nm  f=0.0028  <S**2>=0.000
     175 ->177         0.48454
     176 ->178         0.49056

 Excited State   3:      Singlet-A      2.8145 eV  440.52 nm  f=0.2592  <S**2>=0.000
     171 ->177        -0.13367
     171 ->179         0.12121
     171 ->181        -0.13109
     175 ->177        -0.23226
     176 ->178         0.26601
     176 ->179         0.49034
     176 ->181        -0.16574

 Excited State   4:      Singlet-A      2.9122 eV  425.74 nm  f=0.5173  <S**2>=0.000
     168 ->177         0.23500
     168 ->179         0.26117
     168 ->181         0.18586
     168 ->186        -0.17396
     175 ->177         0.28752
     176 ->178        -0.28519
     176 ->179         0.25191

 Excited State   5:      Singlet-A      2.9350 eV  422.43 nm  f=0.0821  <S**2>=0.000
     171 ->177         0.29019
     171 ->178        -0.15137
     171 ->179        -0.31079
     171 ->181         0.30539
     171 ->186         0.14628
     171 ->187        -0.14261
     175 ->177        -0.11825
     176 ->178         0.13130
     176 ->179         0.18888

 The electronic state is 1-A.
 Alpha  occ. eigenvalues --   -1.83957  -1.80335  -1.78755  -1.72484  -1.72272
 Alpha  occ. eigenvalues --   -1.69950  -1.66976  -1.62412  -1.62000  -1.58156
 Alpha  occ. eigenvalues --   -1.56512  -1.52033  -1.47030  -1.46746  -1.43882
 Alpha  occ. eigenvalues --   -1.42455  -1.41244  -1.38956  -1.38885  -1.36849
 Alpha  occ. eigenvalues --   -1.34882  -1.33263  -1.32955  -1.31243  -1.27655
 Alpha  occ. eigenvalues --   -1.26511  -1.24223  -1.22346  -1.20574  -1.18203
 Alpha  occ. eigenvalues --   -1.17065  -1.16041  -1.14666  -1.14433  -1.12148
 Alpha  occ. eigenvalues --   -1.12027  -1.10681  -1.10131  -1.05066  -1.03217
 Alpha  occ. eigenvalues --   -1.02049  -1.01040  -0.98901  -0.98403  -0.96949
 Alpha  occ. eigenvalues --   -0.95936  -0.94026  -0.93382  -0.92283  -0.91959
 Alpha  occ. eigenvalues --   -0.90390  -0.90045  -0.89994  -0.88011  -0.87732
 Alpha  occ. eigenvalues --   -0.85941  -0.84753  -0.83387  -0.81698  -0.80038
 Alpha  occ. eigenvalues --   -0.79542  -0.78864  -0.78222  -0.76348  -0.75991
 Alpha  occ. eigenvalues --   -0.75727  -0.74998  -0.74279  -0.73927  -0.72671
 Alpha  occ. eigenvalues --   -0.72506  -0.72010  -0.71263  -0.70861  -0.70420
 Alpha  occ. eigenvalues --   -0.69683  -0.68630  -0.68503  -0.68228  -0.67799
 Alpha  occ. eigenvalues --   -0.67495  -0.67110  -0.66386  -0.65889  -0.65434
 Alpha  occ. eigenvalues --   -0.65128  -0.64595  -0.63933  -0.63546  -0.63066
 Alpha  occ. eigenvalues --   -0.62909  -0.62533  -0.62236  -0.62050  -0.61701
 Alpha  occ. eigenvalues --   -0.61195  -0.60902  -0.60708  -0.60389  -0.60109
 Alpha  occ. eigenvalues --   -0.60045  -0.59416  -0.59323  -0.58951  -0.58307
 Alpha  occ. eigenvalues --   -0.57634  -0.57574  -0.57517  -0.56852  -0.56529
 Alpha  occ. eigenvalues --   -0.55983  -0.55471  -0.55222  -0.54841  -0.54489
 Alpha  occ. eigenvalues --   -0.53820  -0.53639  -0.52979  -0.52666  -0.52463
 Alpha  occ. eigenvalues --   -0.52173  -0.52027  -0.51815  -0.51563  -0.51154
 Alpha  occ. eigenvalues --   -0.50878  -0.50747  -0.50541  -0.50370  -0.50297
 Alpha  occ. eigenvalues --   -0.50075  -0.49909  -0.49465  -0.49421  -0.49144
 Alpha  occ. eigenvalues --   -0.49083  -0.48644  -0.48397  -0.48231  -0.47610
 Alpha  occ. eigenvalues --   -0.47387  -0.47163  -0.46986  -0.46797  -0.46502
 Alpha  occ. eigenvalues --   -0.46328  -0.46018  -0.45536  -0.45350  -0.45300
 Alpha  occ. eigenvalues --   -0.45154  -0.44963  -0.44956  -0.43893  -0.43500
 Alpha  occ. eigenvalues --   -0.43404  -0.43029  -0.42639  -0.42403  -0.42313
 Alpha  occ. eigenvalues --   -0.41812  -0.40731  -0.40499  -0.39345  -0.38320
 Alpha  occ. eigenvalues --   -0.37687  -0.36883  -0.35510  -0.34685  -0.33916
 Alpha  occ. eigenvalues --   -0.33403  -0.32157  -0.31655  -0.31226  -0.26309
 Alpha  occ. eigenvalues --   -0.21197
 Alpha virt. eigenvalues --   -0.07824  -0.02617  -0.00750   0.00454   0.01491
 Alpha virt. eigenvalues --    0.02617   0.02967   0.03331   0.04514   0.04834
 Alpha virt. eigenvalues --    0.06084   0.06954   0.06984   0.07310   0.08190

 Mulliken charges:
               1
     1  Mg   0.431279
     2  C   -0.044747
     3  C   -0.107678
     4  C   -0.070645
     5  C   -0.070730
     6  N   -0.259657
     7  C    0.098354
     8  C    0.001506
     9  C    0.014143
    10  C    0.167184
    11  C   -0.046479
    12  C   -0.029479
    13  C   -0.009616
    14  C    0.473739
    15  O   -0.523183
    16  O   -0.256123
    17  N   -0.328484
    18  C    0.141517
    19  C    0.005912
    20  C   -0.028282
    21  C    0.146608
    22  C   -0.041433
    23  C    0.328427
    24  O   -0.520506
    25  C   -0.037003
    26  N   -0.263817
    27  C    0.148476
    28  C    0.001560
    29  C    0.001285
    30  C    0.097419
    31  C   -0.053168
    32  C   -0.027381
    33  C   -0.060610
    34  N   -0.331886
    35  C    0.062059
    36  C    0.016171
    37  C   -0.060666
    38  C    0.124605
    39  C   -0.031986
    40  C    0.331305
    41  O   -0.564130
    42  C    0.068249
    43  C    0.499862
    44  O   -0.530151
    45  O   -0.272487
    46  C    0.071105
    47  C    0.104831
    48  C   -0.100790
    49  C   -0.007858
    50  C   -0.040127
    51  C   -0.036900
    52  C   -0.043884
    53  C   -0.038785
    54  C   -0.007200
    55  C   -0.064120
    56  C   -0.032301
    57  C   -0.035832
    58  C   -0.044170
    59  C   -0.022026
    60  C   -0.066488
    61  C   -0.034749
    62  C   -0.037767
    63  C   -0.028780
    64  C   -0.021056
    65  C   -0.068754
    66  C   -0.061324
    67  H    0.022730
    68  H    0.053499
    69  H    0.030010
    70  H    0.048170
    71  H    0.024926
    72  H    0.019946
    73  H    0.041153
    74  H    0.025402
    75  H    0.013248
    76  H    0.031798
    77  H    0.023576
    78  H    0.056388
    79  H    0.037277
    80  H    0.025829
    81  H    0.033202
    82  H    0.044307
    83  H    0.042805
    84  H    0.037855
    85  H    0.030407
    86  H    0.036284
    87  H    0.018074
    88  H    0.023560
    89  H    0.022664
    90  H    0.024193
    91  H    0.015662
    92  H    0.031274
    93  H    0.016498
    94  H    0.021895
    95  H    0.030971
    96  H    0.031460
    97  H    0.041652
    98  H    0.052345
    99  H    0.049143
   100  H    0.030965
   101  H    0.044471
   102  H    0.066510
   103  H    0.039274
   104  H    0.033615
   105  H    0.017228
   106  H    0.035951
   107  H    0.038556
   108  H    0.025045
   109  H    0.031707
   110  H    0.021007
   111  H    0.021035
   112  H    0.017621
   113  H    0.017345
   114  H    0.027796
   115  H    0.016674
   116  H    0.021860
   117  H    0.011447
   118  H    0.007054
   119  H    0.015774
   120  H    0.019041
   121  H    0.019632
   122  H    0.019065
   123  H    0.005640
   124  H    0.023369
   125  H    0.022706
   126  H    0.026470
   127  H    0.026028
   128  H    0.026288
   129  H    0.021271
   130  H    0.022726
   131  H    0.007756
   132  H    0.018735
   133  H    0.027457
   134  H    0.030047
   135  H    0.017393
   136  H    0.018924
   137  H    0.016967
   138  H    0.020450
   139  H    0.026042
   140  H    0.012493
 Sum of Mulliken charges =   0.00000

 Dipole moment (field-independent basis, Debye):
    X=             -7.4087    Y=              7.7459    Z=             -2.3526  Tot=             10.9737
 N-N= 4.219095288587D+03 E-N= 0.000000000000D+00  KE=-9.112789802795D+03
 Leave Link  601 at Wed Apr 27 11:08:44 2022, MaxMem=  6710886400 cpu:               0.7 elap:               0.0
 (Enter /sw/apps/gaussian-16.0/g16/l9999.exe)
 1\1\GINC-BP1-COMPUTE190\SP\RZINDO CIS\STO-3G\C55H74Mg1N4O6\OF15641\27-
 Apr-2022\0\\#p ZINDO=(nstates=5)\\step_1151_chromophore_10 ZINDO\\0,1\
 Mg,0,40.811,8.047,29.139\C,0,42.59,9.716,31.641\C,0,39.013,6.394,31.60
 5\C,0,39.099,6.509,26.695\C,0,43.327,9.131,26.831\N,0,40.973,7.89,31.4
 82\C,0,41.574,8.866,32.208\C,0,41.081,8.839,33.667\C,0,40.104,7.609,33
 .683\C,0,40.018,7.319,32.198\C,0,40.583,6.481,34.642\C,0,40.615,10.285
 ,34.185\C,0,41.288,10.885,35.565\C,0,41.195,10.081,36.854\O,0,41.928,9

 Normal termination of Gaussian 16 at Wed Apr 27 11:08:44 2022.
