 Gaussian 16, Revision A.03,
 Gaussian 16:  ES64L-G16RevA.03 25-Dec-2016

 ------------------------------
 #p blyp/Def2SVP td=(nstates=5)
 ------------------------------

 --------------------------------------------------
 step_401_chromophore_14 TDDFT with blyp functional
 --------------------------------------------------
 Symbolic Z-matrix:
 Charge =  0 Multiplicity = 1

                         Standard orientation:
 ---------------------------------------------------------------------
 Center     Atomic      Atomic             Coordinates (Angstroms)
 Number     Number       Type             X           Y           Z
 ---------------------------------------------------------------------
      1         12           0        5.148906    1.213934   -0.235609
      2          6           0        5.159599   -2.285686    0.478796
      3          6           0        4.057626    0.540211   -3.380749
      4          6           0        4.723831    4.451495   -0.492057
      5          6           0        5.442305    1.601302    3.410705
      6          7           0        4.784618   -0.743155   -1.348802
      7          6           0        4.763304   -2.011144   -0.790380
      8          6           0        4.291552   -2.988557   -1.961079
      9          6           0        3.813591   -2.055463   -3.061958
     10          6           0        4.235129   -0.634509   -2.588717
     11          6           0        4.336801   -2.393410   -4.447013
     12          6           0        3.218330   -4.063027   -1.573122
     13          6           0        1.792910   -3.638992   -1.025153
     14          6           0        0.394283   -4.218779   -1.575570
     15          8           0        0.284295   -4.895627   -2.610411
     16          8           0       -0.591499   -4.010869   -0.684690
     17          7           0        4.584972    2.331800   -1.793059
     18          6           0        4.276188    1.899034   -3.048543
     19          6           0        4.133174    3.026093   -3.898987
     20          6           0        4.613639    4.174231   -3.149557
     21          6           0        4.702630    3.724939   -1.752240
     22          6           0        3.807036    2.890414   -5.393424
     23          6           0        4.971115    5.613639   -3.642994
     24          8           0        4.759603    6.009339   -4.830174
     25          6           0        5.706832    6.692337   -2.814507
     26          7           0        4.939701    2.733940    1.238833
     27          6           0        4.820022    4.028203    0.834456
     28          6           0        4.750460    5.031129    2.107081
     29          6           0        4.829735    4.052362    3.360111
     30          6           0        5.033285    2.710907    2.641865
     31          6           0        5.865441    6.180446    2.211536
     32          6           0        3.656989    4.068179    4.383858
     33          6           0        4.038140    4.044731    5.795289
     34          7           0        5.474707   -0.028572    1.602954
     35          6           0        5.588104    0.292027    2.935395
     36          6           0        5.879609   -0.853255    3.687518
     37          6           0        5.742584   -1.952916    2.758185
     38          6           0        5.407148   -1.356574    1.489092
     39          6           0        6.228029   -0.967131    5.144812
     40          6           0        5.776267   -3.361255    2.642039
     41          8           0        5.983086   -4.249557    3.478416
     42          6           0        5.315355   -3.681041    1.122135
     43          6           0        6.359067   -4.531198    0.465720
     44          8           0        6.127634   -5.568617   -0.184948
     45          8           0        7.590310   -4.014732    0.647449
     46          6           0        8.689070   -4.691899   -0.012171
     47          6           0       -1.960220   -4.196616   -1.138359
     48          6           0       -2.839971   -3.287139   -0.416638
     49          6           0       -3.485685   -2.141375   -0.779344
     50          6           0       -3.595224   -1.661004   -2.244608
     51          6           0       -4.126558   -1.259543    0.251543
     52          6           0       -5.638541   -0.817696    0.074676
     53          6           0       -6.310038   -0.381128    1.366678
     54          6           0       -7.807830    0.013699    1.180231
     55          6           0       -8.193378    0.970214    2.298573
     56          6           0       -8.784917   -1.230904    0.928926
     57          6           0       -9.943421   -0.903269   -0.080033
     58          6           0      -11.327686   -1.366116    0.430436
     59          6           0      -12.267988   -0.176925    0.787719
     60          6           0      -12.578144   -0.367351    2.288991
     61          6           0      -13.574577   -0.246121   -0.106284
     62          6           0      -14.081799    1.197749   -0.417569
     63          6           0      -15.429232    1.377372    0.306689
     64          6           0      -16.678947    1.623392   -0.584829
     65          6           0      -16.989768    3.129143   -0.749187
     66          6           0      -17.970009    0.813627   -0.241520
     67          1           0        3.439271    0.309030   -4.250602
     68          1           0        4.660826    5.532206   -0.641805
     69          1           0        5.533927    1.632329    4.498321
     70          1           0        5.192592   -3.479631   -2.327994
     71          1           0        2.724102   -2.025058   -3.070814
     72          1           0        5.233501   -1.824058   -4.690993
     73          1           0        3.551206   -2.288960   -5.195629
     74          1           0        4.640465   -3.437554   -4.518363
     75          1           0        3.542984   -4.694090   -0.745409
     76          1           0        3.008020   -4.609264   -2.492200
     77          1           0        1.733942   -2.559244   -1.161270
     78          1           0        1.785417   -3.840578    0.046045
     79          1           0        2.741472    3.066165   -5.540336
     80          1           0        4.148709    1.964154   -5.854066
     81          1           0        4.348938    3.565242   -6.055818
     82          1           0        6.663985    6.290935   -2.481426
     83          1           0        5.011128    6.949215   -2.015052
     84          1           0        5.768688    7.594428   -3.423482
     85          1           0        3.768086    5.494007    2.013404
     86          1           0        5.727356    4.206075    3.959366
     87          1           0        6.590762    6.023715    1.413904
     88          1           0        6.428907    6.277891    3.139560
     89          1           0        5.465506    7.157786    1.939768
     90          1           0        2.978015    3.245248    4.160090
     91          1           0        2.969962    4.913410    4.346061
     92          1           0        3.233658    3.500799    6.290567
     93          1           0        4.056306    5.092100    6.097065
     94          1           0        5.023779    3.602462    5.937952
     95          1           0        6.813379   -1.882663    5.225884
     96          1           0        5.308322   -1.189710    5.685700
     97          1           0        6.803383   -0.089625    5.439082
     98          1           0        4.358360   -4.197140    1.205197
     99          1           0        9.451571   -4.004454   -0.380690
    100          1           0        8.366150   -5.247977   -0.892348
    101          1           0        9.081711   -5.345379    0.767404
    102          1           0       -2.119041   -5.199656   -0.740811
    103          1           0       -2.084781   -4.117468   -2.218852
    104          1           0       -2.854168   -3.555070    0.640193
    105          1           0       -3.436476   -0.585722   -2.158005
    106          1           0       -4.629698   -1.701086   -2.585093
    107          1           0       -2.880216   -2.083499   -2.950622
    108          1           0       -3.464189   -0.399652    0.352611
    109          1           0       -4.006480   -1.764593    1.210538
    110          1           0       -6.193680   -1.507104   -0.562117
    111          1           0       -5.448850    0.026413   -0.588956
    112          1           0       -5.786127    0.513082    1.704220
    113          1           0       -6.338638   -1.193960    2.093091
    114          1           0       -7.921483    0.637910    0.293709
    115          1           0       -8.332432    1.935136    1.809903
    116          1           0       -7.527957    0.930486    3.160070
    117          1           0       -9.179242    0.620014    2.606459
    118          1           0       -8.996867   -1.552403    1.948844
    119          1           0       -8.184260   -2.004855    0.449058
    120          1           0       -9.718817   -1.412056   -1.017158
    121          1           0      -10.083713    0.154960   -0.301359
    122          1           0      -11.134252   -2.055482    1.252843
    123          1           0      -11.835030   -2.027790   -0.271676
    124          1           0      -11.798743    0.791766    0.614426
    125          1           0      -11.665957   -0.393661    2.885667
    126          1           0      -13.095050   -1.313101    2.448603
    127          1           0      -13.180678    0.478777    2.618091
    128          1           0      -14.316421   -0.833514    0.434133
    129          1           0      -13.463290   -0.788089   -1.045494
    130          1           0      -14.329055    1.104001   -1.474443
    131          1           0      -13.354724    1.973681   -0.179970
    132          1           0      -15.326720    2.104768    1.111802
    133          1           0      -15.590304    0.517279    0.956092
    134          1           0      -16.415958    1.375529   -1.612326
    135          1           0      -17.926494    3.382584   -0.251068
    136          1           0      -17.069193    3.359660   -1.811595
    137          1           0      -16.228049    3.782729   -0.323666
    138          1           0      -18.837416    1.438884   -0.455805
    139          1           0      -17.943652    0.358183    0.748743
    140          1           0      -17.970054   -0.044816   -0.913242
 ---------------------------------------------------------------------

 SCF Done:  E(RB-LYP) =  -3007.36670510     A.U. after   21 cycles

 Excitation energies and oscillator strengths:

 Excited State   1:      Singlet-A      1.5004 eV  826.36 nm  f=0.0006  <S**2>=0.000
     244 -> 247        0.11080
     245 -> 247        0.69648
 This state for optimization and/or second-order correction.
 Total Energy, E(TD-HF/TD-DFT) =  -3007.31156770
 Copying the excited state density for this state as the 1-particle RhoCI density.

 Excited State   2:      Singlet-A      1.5910 eV  779.30 nm  f=0.0005  <S**2>=0.000
     243 -> 247        0.62529
     244 -> 247        0.32645

 Excited State   3:      Singlet-A      1.7960 eV  690.32 nm  f=0.2935  <S**2>=0.000
     244 -> 248       -0.16124
     246 -> 247        0.69017
     246 <- 247       -0.15674

 Excited State   4:      Singlet-A      2.0080 eV  617.46 nm  f=0.0999  <S**2>=0.000
     242 -> 247        0.14018
     243 -> 247       -0.30190
     244 -> 247        0.55788
     246 -> 248        0.21186

 Excited State   5:      Singlet-A      2.1434 eV  578.46 nm  f=0.0004  <S**2>=0.000
     241 -> 247        0.70613

 The electronic state is 1-A.
 Alpha  occ. eigenvalues --  -46.28245 -18.82547 -18.82060 -18.76254 -18.76137
 Alpha  occ. eigenvalues --  -18.75384 -18.75357 -14.04319 -14.03793 -14.01622
 Alpha  occ. eigenvalues --  -14.00803 -10.04294 -10.03950 -10.00541  -9.99176
 Alpha  occ. eigenvalues --   -9.97850  -9.97708  -9.97551  -9.97470  -9.97411
 Alpha  occ. eigenvalues --   -9.97377  -9.96992  -9.96196  -9.95640  -9.95174
 Alpha  occ. eigenvalues --   -9.94836  -9.94632  -9.94483  -9.94359  -9.94197
 Alpha  occ. eigenvalues --   -9.94113  -9.94082  -9.94041  -9.94037  -9.93761
 Alpha  occ. eigenvalues --   -9.93685  -9.93674  -9.93504  -9.93316  -9.93300
 Alpha  occ. eigenvalues --   -9.92864  -9.92696  -9.92628  -9.92546  -9.92496
 Alpha  occ. eigenvalues --   -9.92479  -9.92286  -9.92206  -9.92176  -9.92108
 Alpha  occ. eigenvalues --   -9.92022  -9.92020  -9.91857  -9.91792  -9.91778
 Alpha  occ. eigenvalues --   -9.91639  -9.91543  -9.91187  -9.91115  -9.91020
 Alpha  occ. eigenvalues --   -9.90995  -9.90991  -9.90977  -9.90642  -9.90510
 Alpha  occ. eigenvalues --   -9.90400  -2.92759  -1.73183  -1.72651  -1.72468
 Alpha  occ. eigenvalues --   -0.98342  -0.98075  -0.90091  -0.89054  -0.88912
 Alpha  occ. eigenvalues --   -0.88722  -0.86633  -0.85893  -0.85475  -0.84856
 Alpha  occ. eigenvalues --   -0.75663  -0.73768  -0.73378  -0.72847  -0.72298
 Alpha  occ. eigenvalues --   -0.72034  -0.71629  -0.70737  -0.70685  -0.70456
 Alpha  occ. eigenvalues --   -0.69149  -0.69053  -0.68335  -0.68039  -0.67404
 Alpha  occ. eigenvalues --   -0.66832  -0.66034  -0.65565  -0.65383  -0.64686
 Alpha  occ. eigenvalues --   -0.64449  -0.62768  -0.62246  -0.61689  -0.61051
 Alpha  occ. eigenvalues --   -0.60872  -0.60174  -0.59863  -0.59461  -0.58776
 Alpha  occ. eigenvalues --   -0.58470  -0.58117  -0.57190  -0.55589  -0.54573
 Alpha  occ. eigenvalues --   -0.54195  -0.53480  -0.52849  -0.52487  -0.51985
 Alpha  occ. eigenvalues --   -0.51354  -0.51211  -0.51156  -0.50668  -0.50237
 Alpha  occ. eigenvalues --   -0.49526  -0.49306  -0.48943  -0.48754  -0.46712
 Alpha  occ. eigenvalues --   -0.46421  -0.46319  -0.45624  -0.45122  -0.44788
 Alpha  occ. eigenvalues --   -0.43828  -0.43611  -0.43129  -0.42502  -0.42450
 Alpha  occ. eigenvalues --   -0.42192  -0.42099  -0.41834  -0.41343  -0.41325
 Alpha  occ. eigenvalues --   -0.41074  -0.40618  -0.40575  -0.39976  -0.39925
 Alpha  occ. eigenvalues --   -0.39847  -0.39739  -0.39683  -0.39638  -0.39249
 Alpha  occ. eigenvalues --   -0.39031  -0.38753  -0.38611  -0.38543  -0.38305
 Alpha  occ. eigenvalues --   -0.38207  -0.38084  -0.37978  -0.37834  -0.37574
 Alpha  occ. eigenvalues --   -0.37118  -0.37005  -0.36697  -0.36479  -0.36360
 Alpha  occ. eigenvalues --   -0.36196  -0.36136  -0.35760  -0.35677  -0.35581
 Alpha  occ. eigenvalues --   -0.35243  -0.35160  -0.35107  -0.35048  -0.34789
 Alpha  occ. eigenvalues --   -0.34680  -0.34524  -0.34367  -0.34217  -0.34034
 Alpha  occ. eigenvalues --   -0.33932  -0.33689  -0.33517  -0.33464  -0.33260
 Alpha  occ. eigenvalues --   -0.33203  -0.32998  -0.32698  -0.32484  -0.32400
 Alpha  occ. eigenvalues --   -0.32328  -0.31995  -0.31781  -0.31689  -0.31644
 Alpha  occ. eigenvalues --   -0.31300  -0.31145  -0.31020  -0.30992  -0.30699
 Alpha  occ. eigenvalues --   -0.30614  -0.30436  -0.30433  -0.30029  -0.29873
 Alpha  occ. eigenvalues --   -0.29711  -0.29568  -0.29490  -0.29193  -0.29123
 Alpha  occ. eigenvalues --   -0.28693  -0.28587  -0.28293  -0.27803  -0.27639
 Alpha  occ. eigenvalues --   -0.27513  -0.27070  -0.27044  -0.27001  -0.26709
 Alpha  occ. eigenvalues --   -0.26344  -0.26225  -0.26131  -0.25461  -0.25208
 Alpha  occ. eigenvalues --   -0.24944  -0.24894  -0.24358  -0.24297  -0.23163
 Alpha  occ. eigenvalues --   -0.22850  -0.22834  -0.21763  -0.21357  -0.20833
 Alpha  occ. eigenvalues --   -0.20390  -0.20178  -0.18319  -0.18048  -0.17948
 Alpha  occ. eigenvalues --   -0.16673
 Alpha virt. eigenvalues --   -0.12516  -0.07483  -0.06590  -0.05111  -0.03298
 Alpha virt. eigenvalues --   -0.02989  -0.02678  -0.02065  -0.01837  -0.00456
 Alpha virt. eigenvalues --    0.00562   0.01390   0.02343   0.02385   0.02940

 Mulliken charges:
               1
     1  Mg   0.682997
     2  C    0.002098
     3  C   -0.041583
     4  C   -0.019569
     5  C   -0.081333
     6  N   -0.214785
     7  C   -0.114716
     8  C    0.089217
     9  C   -0.025590
    10  C   -0.026916
    11  C    0.140550
    12  C    0.124276
    13  C    0.028812
    14  C    0.093077
    15  O   -0.208871
    16  O   -0.251981
    17  N   -0.353818
    18  C    0.171886
    19  C   -0.120932
    20  C    0.030676
    21  C    0.109314
    22  C    0.154868
    23  C   -0.069032
    24  O   -0.206787
    25  C    0.133539
    26  N   -0.239545
    27  C    0.044412
    28  C    0.036620
    29  C    0.023652
    30  C    0.053317
    31  C    0.098251
    32  C    0.087065
    33  C    0.070025
    34  N   -0.197759
    35  C    0.085141
    36  C   -0.190347
    37  C    0.094089
    38  C    0.092088
    39  C    0.191998
    40  C   -0.072949
    41  O   -0.148355
    42  C    0.045637
    43  C    0.118853
    44  O   -0.199319
    45  O   -0.253766
    46  C    0.210916
    47  C    0.361536
    48  C   -0.120719
    49  C   -0.130916
    50  C    0.141962
    51  C    0.117630
    52  C    0.049733
    53  C    0.128593
    54  C   -0.133880
    55  C    0.146857
    56  C    0.098728
    57  C    0.087175
    58  C    0.106325
    59  C   -0.073754
    60  C    0.096951
    61  C    0.066807
    62  C    0.105934
    63  C    0.090338
    64  C   -0.090356
    65  C    0.094047
    66  C    0.115514
    67  H   -0.039205
    68  H   -0.084559
    69  H   -0.065429
    70  H   -0.014102
    71  H   -0.014024
    72  H   -0.007261
    73  H   -0.007768
    74  H   -0.007029
    75  H    0.004946
    76  H   -0.011980
    77  H   -0.000286
    78  H    0.001887
    79  H    0.007035
    80  H   -0.010419
    81  H   -0.000714
    82  H    0.020575
    83  H    0.010696
    84  H   -0.004140
    85  H   -0.012730
    86  H   -0.021063
    87  H   -0.012272
    88  H    0.006143
    89  H   -0.010148
    90  H   -0.027422
    91  H   -0.031464
    92  H   -0.003531
    93  H   -0.006632
    94  H   -0.001554
    95  H    0.007284
    96  H    0.009907
    97  H    0.003617
    98  H    0.006043
    99  H    0.013387
   100  H    0.019863
   101  H    0.024539
   102  H   -0.024833
   103  H   -0.003636
   104  H   -0.043476
   105  H   -0.020001
   106  H    0.004399
   107  H    0.005259
   108  H   -0.012277
   109  H   -0.040023
   110  H   -0.015289
   111  H   -0.036996
   112  H   -0.029421
   113  H   -0.023434
   114  H   -0.051038
   115  H   -0.011906
   116  H   -0.009594
   117  H   -0.035344
   118  H   -0.022745
   119  H   -0.035056
   120  H   -0.032637
   121  H   -0.022863
   122  H   -0.043651
   123  H   -0.049048
   124  H   -0.029288
   125  H   -0.009943
   126  H   -0.010886
   127  H   -0.022672
   128  H   -0.032005
   129  H   -0.032654
   130  H   -0.033054
   131  H   -0.016442
   132  H   -0.045742
   133  H   -0.049877
   134  H   -0.036246
   135  H   -0.020306
   136  H   -0.017761
   137  H   -0.021357
   138  H   -0.012747
   139  H   -0.010379
   140  H   -0.021150
 Sum of Mulliken charges =  -0.00000

 Dipole moment (field-independent basis, Debye):
    X=             -1.4360    Y=              5.5532    Z=              2.3660  Tot=              6.2047
 Quadrupole moment (field-independent basis, Debye-Ang):
   XX=           -375.1785   YY=           -447.6553   ZZ=           -418.2696
   XY=             26.0560   XZ=              8.1941   YZ=             35.7715

 Normal termination of Gaussian 16 at Fri Apr 29 17:11:26 2022.
