 Gaussian 16, Revision A.03,
 Gaussian 16:  ES64L-G16RevA.03 25-Dec-2016

 -----------------------------------
 #p cam-b3lyp/Def2SVP td=(nstates=5)
 -----------------------------------

 -------------------------------------------------------
 step_401_chromophore_14 TDDFT with cam-b3lyp functional
 -------------------------------------------------------
 Symbolic Z-matrix:
 Charge =  0 Multiplicity = 1

                         Standard orientation:
 ---------------------------------------------------------------------
 Center     Atomic      Atomic             Coordinates (Angstroms)
 Number     Number       Type             X           Y           Z
 ---------------------------------------------------------------------
      1         12           0        5.148906    1.213934   -0.235609
      2          6           0        5.159599   -2.285686    0.478796
      3          6           0        4.057626    0.540211   -3.380749
      4          6           0        4.723831    4.451495   -0.492057
      5          6           0        5.442305    1.601302    3.410705
      6          7           0        4.784618   -0.743155   -1.348802
      7          6           0        4.763304   -2.011144   -0.790380
      8          6           0        4.291552   -2.988557   -1.961079
      9          6           0        3.813591   -2.055463   -3.061958
     10          6           0        4.235129   -0.634509   -2.588717
     11          6           0        4.336801   -2.393410   -4.447013
     12          6           0        3.218330   -4.063027   -1.573122
     13          6           0        1.792910   -3.638992   -1.025153
     14          6           0        0.394283   -4.218779   -1.575570
     15          8           0        0.284295   -4.895627   -2.610411
     16          8           0       -0.591499   -4.010869   -0.684690
     17          7           0        4.584972    2.331800   -1.793059
     18          6           0        4.276188    1.899034   -3.048543
     19          6           0        4.133174    3.026093   -3.898987
     20          6           0        4.613639    4.174231   -3.149557
     21          6           0        4.702630    3.724939   -1.752240
     22          6           0        3.807036    2.890414   -5.393424
     23          6           0        4.971115    5.613639   -3.642994
     24          8           0        4.759603    6.009339   -4.830174
     25          6           0        5.706832    6.692337   -2.814507
     26          7           0        4.939701    2.733940    1.238833
     27          6           0        4.820022    4.028203    0.834456
     28          6           0        4.750460    5.031129    2.107081
     29          6           0        4.829735    4.052362    3.360111
     30          6           0        5.033285    2.710907    2.641865
     31          6           0        5.865441    6.180446    2.211536
     32          6           0        3.656989    4.068179    4.383858
     33          6           0        4.038140    4.044731    5.795289
     34          7           0        5.474707   -0.028572    1.602954
     35          6           0        5.588104    0.292027    2.935395
     36          6           0        5.879609   -0.853255    3.687518
     37          6           0        5.742584   -1.952916    2.758185
     38          6           0        5.407148   -1.356574    1.489092
     39          6           0        6.228029   -0.967131    5.144812
     40          6           0        5.776267   -3.361255    2.642039
     41          8           0        5.983086   -4.249557    3.478416
     42          6           0        5.315355   -3.681041    1.122135
     43          6           0        6.359067   -4.531198    0.465720
     44          8           0        6.127634   -5.568617   -0.184948
     45          8           0        7.590310   -4.014732    0.647449
     46          6           0        8.689070   -4.691899   -0.012171
     47          6           0       -1.960220   -4.196616   -1.138359
     48          6           0       -2.839971   -3.287139   -0.416638
     49          6           0       -3.485685   -2.141375   -0.779344
     50          6           0       -3.595224   -1.661004   -2.244608
     51          6           0       -4.126558   -1.259543    0.251543
     52          6           0       -5.638541   -0.817696    0.074676
     53          6           0       -6.310038   -0.381128    1.366678
     54          6           0       -7.807830    0.013699    1.180231
     55          6           0       -8.193378    0.970214    2.298573
     56          6           0       -8.784917   -1.230904    0.928926
     57          6           0       -9.943421   -0.903269   -0.080033
     58          6           0      -11.327686   -1.366116    0.430436
     59          6           0      -12.267988   -0.176925    0.787719
     60          6           0      -12.578144   -0.367351    2.288991
     61          6           0      -13.574577   -0.246121   -0.106284
     62          6           0      -14.081799    1.197749   -0.417569
     63          6           0      -15.429232    1.377372    0.306689
     64          6           0      -16.678947    1.623392   -0.584829
     65          6           0      -16.989768    3.129143   -0.749187
     66          6           0      -17.970009    0.813627   -0.241520
     67          1           0        3.439271    0.309030   -4.250602
     68          1           0        4.660826    5.532206   -0.641805
     69          1           0        5.533927    1.632329    4.498321
     70          1           0        5.192592   -3.479631   -2.327994
     71          1           0        2.724102   -2.025058   -3.070814
     72          1           0        5.233501   -1.824058   -4.690993
     73          1           0        3.551206   -2.288960   -5.195629
     74          1           0        4.640465   -3.437554   -4.518363
     75          1           0        3.542984   -4.694090   -0.745409
     76          1           0        3.008020   -4.609264   -2.492200
     77          1           0        1.733942   -2.559244   -1.161270
     78          1           0        1.785417   -3.840578    0.046045
     79          1           0        2.741472    3.066165   -5.540336
     80          1           0        4.148709    1.964154   -5.854066
     81          1           0        4.348938    3.565242   -6.055818
     82          1           0        6.663985    6.290935   -2.481426
     83          1           0        5.011128    6.949215   -2.015052
     84          1           0        5.768688    7.594428   -3.423482
     85          1           0        3.768086    5.494007    2.013404
     86          1           0        5.727356    4.206075    3.959366
     87          1           0        6.590762    6.023715    1.413904
     88          1           0        6.428907    6.277891    3.139560
     89          1           0        5.465506    7.157786    1.939768
     90          1           0        2.978015    3.245248    4.160090
     91          1           0        2.969962    4.913410    4.346061
     92          1           0        3.233658    3.500799    6.290567
     93          1           0        4.056306    5.092100    6.097065
     94          1           0        5.023779    3.602462    5.937952
     95          1           0        6.813379   -1.882663    5.225884
     96          1           0        5.308322   -1.189710    5.685700
     97          1           0        6.803383   -0.089625    5.439082
     98          1           0        4.358360   -4.197140    1.205197
     99          1           0        9.451571   -4.004454   -0.380690
    100          1           0        8.366150   -5.247977   -0.892348
    101          1           0        9.081711   -5.345379    0.767404
    102          1           0       -2.119041   -5.199656   -0.740811
    103          1           0       -2.084781   -4.117468   -2.218852
    104          1           0       -2.854168   -3.555070    0.640193
    105          1           0       -3.436476   -0.585722   -2.158005
    106          1           0       -4.629698   -1.701086   -2.585093
    107          1           0       -2.880216   -2.083499   -2.950622
    108          1           0       -3.464189   -0.399652    0.352611
    109          1           0       -4.006480   -1.764593    1.210538
    110          1           0       -6.193680   -1.507104   -0.562117
    111          1           0       -5.448850    0.026413   -0.588956
    112          1           0       -5.786127    0.513082    1.704220
    113          1           0       -6.338638   -1.193960    2.093091
    114          1           0       -7.921483    0.637910    0.293709
    115          1           0       -8.332432    1.935136    1.809903
    116          1           0       -7.527957    0.930486    3.160070
    117          1           0       -9.179242    0.620014    2.606459
    118          1           0       -8.996867   -1.552403    1.948844
    119          1           0       -8.184260   -2.004855    0.449058
    120          1           0       -9.718817   -1.412056   -1.017158
    121          1           0      -10.083713    0.154960   -0.301359
    122          1           0      -11.134252   -2.055482    1.252843
    123          1           0      -11.835030   -2.027790   -0.271676
    124          1           0      -11.798743    0.791766    0.614426
    125          1           0      -11.665957   -0.393661    2.885667
    126          1           0      -13.095050   -1.313101    2.448603
    127          1           0      -13.180678    0.478777    2.618091
    128          1           0      -14.316421   -0.833514    0.434133
    129          1           0      -13.463290   -0.788089   -1.045494
    130          1           0      -14.329055    1.104001   -1.474443
    131          1           0      -13.354724    1.973681   -0.179970
    132          1           0      -15.326720    2.104768    1.111802
    133          1           0      -15.590304    0.517279    0.956092
    134          1           0      -16.415958    1.375529   -1.612326
    135          1           0      -17.926494    3.382584   -0.251068
    136          1           0      -17.069193    3.359660   -1.811595
    137          1           0      -16.228049    3.782729   -0.323666
    138          1           0      -18.837416    1.438884   -0.455805
    139          1           0      -17.943652    0.358183    0.748743
    140          1           0      -17.970054   -0.044816   -0.913242
 ---------------------------------------------------------------------

 SCF Done:  E(RCAM-B3LYP) =  -3007.14336444     A.U. after   18 cycles

 Excitation energies and oscillator strengths:

 Excited State   1:      Singlet-A      1.6700 eV  742.43 nm  f=0.3891  <S**2>=0.000
     245 -> 248       -0.17184
     246 -> 247        0.68816
     245 <- 248       -0.10762
 This state for optimization and/or second-order correction.
 Total Energy, E(TD-HF/TD-DFT) =  -3007.08199411
 Copying the excited state density for this state as the 1-particle RhoCI density.

 Excited State   2:      Singlet-A      2.2035 eV  562.67 nm  f=0.1390  <S**2>=0.000
     245 -> 247        0.64857
     246 -> 248        0.26058

 Excited State   3:      Singlet-A      3.0406 eV  407.76 nm  f=0.0063  <S**2>=0.000
     243 -> 247        0.19046
     244 -> 247        0.65213

 Excited State   4:      Singlet-A      3.1385 eV  395.05 nm  f=0.0075  <S**2>=0.000
     240 -> 249        0.12779
     240 -> 250        0.10886
     243 -> 247        0.60531
     243 -> 249        0.15262
     244 -> 247       -0.18022

 Excited State   5:      Singlet-A      3.2755 eV  378.52 nm  f=0.0006  <S**2>=0.000
     240 -> 247        0.12193
     242 -> 247        0.59514
     242 -> 249       -0.22644
     242 -> 250        0.13168
     242 -> 251       -0.11987

 The electronic state is 1-A.
 Alpha  occ. eigenvalues --  -46.89904 -19.25430 -19.24928 -19.19198 -19.19167
 Alpha  occ. eigenvalues --  -19.18783 -19.18319 -14.43276 -14.42738 -14.40214
 Alpha  occ. eigenvalues --  -14.39125 -10.39644 -10.39384 -10.35995 -10.34454
 Alpha  occ. eigenvalues --  -10.32570 -10.32203 -10.32091 -10.31823 -10.31600
 Alpha  occ. eigenvalues --  -10.31594 -10.31498 -10.30755 -10.29817 -10.29338
 Alpha  occ. eigenvalues --  -10.29140 -10.29065 -10.29061 -10.28593 -10.28480
 Alpha  occ. eigenvalues --  -10.28345 -10.28309 -10.28304 -10.28290 -10.28036
 Alpha  occ. eigenvalues --  -10.27974 -10.27711 -10.27608 -10.27396 -10.27127
 Alpha  occ. eigenvalues --  -10.26769 -10.26536 -10.26509 -10.26290 -10.26262
 Alpha  occ. eigenvalues --  -10.26186 -10.26182 -10.25977 -10.25937 -10.25756
 Alpha  occ. eigenvalues --  -10.25660 -10.25658 -10.25563 -10.25516 -10.25496
 Alpha  occ. eigenvalues --  -10.25406 -10.25286 -10.25010 -10.24822 -10.24677
 Alpha  occ. eigenvalues --  -10.24619 -10.24583 -10.24520 -10.24290 -10.24154
 Alpha  occ. eigenvalues --  -10.23976  -3.18316  -1.93218  -1.92772  -1.92613
 Alpha  occ. eigenvalues --   -1.16798  -1.16494  -1.08273  -1.07521  -1.06772
 Alpha  occ. eigenvalues --   -1.06652  -1.04290  -1.03597  -1.03158  -1.02418
 Alpha  occ. eigenvalues --   -0.92758  -0.90613  -0.90080  -0.89623  -0.89085
 Alpha  occ. eigenvalues --   -0.88709  -0.88365  -0.87290  -0.87215  -0.86942
 Alpha  occ. eigenvalues --   -0.85824  -0.85353  -0.84572  -0.84300  -0.83551
 Alpha  occ. eigenvalues --   -0.82924  -0.82137  -0.81383  -0.81305  -0.80796
 Alpha  occ. eigenvalues --   -0.80246  -0.78377  -0.77869  -0.77368  -0.76437
 Alpha  occ. eigenvalues --   -0.76320  -0.75510  -0.75190  -0.74735  -0.73978
 Alpha  occ. eigenvalues --   -0.73546  -0.73130  -0.72127  -0.70469  -0.69189
 Alpha  occ. eigenvalues --   -0.68739  -0.67966  -0.67343  -0.66914  -0.66053
 Alpha  occ. eigenvalues --   -0.65536  -0.65428  -0.65053  -0.64747  -0.64282
 Alpha  occ. eigenvalues --   -0.63265  -0.63208  -0.62760  -0.62611  -0.60212
 Alpha  occ. eigenvalues --   -0.60054  -0.59759  -0.59069  -0.58626  -0.58199
 Alpha  occ. eigenvalues --   -0.57329  -0.56934  -0.56398  -0.55780  -0.55607
 Alpha  occ. eigenvalues --   -0.55198  -0.55084  -0.54614  -0.54398  -0.54091
 Alpha  occ. eigenvalues --   -0.53975  -0.53557  -0.53370  -0.52838  -0.52583
 Alpha  occ. eigenvalues --   -0.52434  -0.52398  -0.52356  -0.52209  -0.51969
 Alpha  occ. eigenvalues --   -0.51829  -0.51296  -0.51159  -0.51003  -0.50875
 Alpha  occ. eigenvalues --   -0.50703  -0.50325  -0.50288  -0.50101  -0.49902
 Alpha  occ. eigenvalues --   -0.49440  -0.49227  -0.48983  -0.48764  -0.48469
 Alpha  occ. eigenvalues --   -0.48377  -0.48356  -0.48257  -0.47706  -0.47656
 Alpha  occ. eigenvalues --   -0.47517  -0.47160  -0.47091  -0.46991  -0.46872
 Alpha  occ. eigenvalues --   -0.46699  -0.46531  -0.46314  -0.46168  -0.46009
 Alpha  occ. eigenvalues --   -0.45692  -0.45575  -0.45301  -0.45181  -0.44941
 Alpha  occ. eigenvalues --   -0.44850  -0.44549  -0.44387  -0.44178  -0.43958
 Alpha  occ. eigenvalues --   -0.43818  -0.43739  -0.43496  -0.43323  -0.43207
 Alpha  occ. eigenvalues --   -0.42883  -0.42762  -0.42333  -0.42221  -0.42036
 Alpha  occ. eigenvalues --   -0.41926  -0.41901  -0.41680  -0.41598  -0.41475
 Alpha  occ. eigenvalues --   -0.41253  -0.41094  -0.40858  -0.40458  -0.40201
 Alpha  occ. eigenvalues --   -0.39865  -0.39750  -0.39199  -0.38788  -0.38645
 Alpha  occ. eigenvalues --   -0.38361  -0.38092  -0.37823  -0.37751  -0.37508
 Alpha  occ. eigenvalues --   -0.37452  -0.36886  -0.36775  -0.36345  -0.36135
 Alpha  occ. eigenvalues --   -0.36091  -0.35728  -0.35466  -0.34332  -0.33926
 Alpha  occ. eigenvalues --   -0.33470  -0.33433  -0.33160  -0.31975  -0.30915
 Alpha  occ. eigenvalues --   -0.30274  -0.30213  -0.30020  -0.29182  -0.24909
 Alpha  occ. eigenvalues --   -0.22043
 Alpha virt. eigenvalues --   -0.09872  -0.02242  -0.00230   0.01742   0.02034
 Alpha virt. eigenvalues --    0.04224   0.05045   0.05257   0.05770   0.06100
 Alpha virt. eigenvalues --    0.07313   0.08346   0.08603   0.08649   0.09355

 Mulliken charges:
               1
     1  Mg   0.813670
     2  C   -0.030969
     3  C   -0.055620
     4  C   -0.042717
     5  C   -0.081037
     6  N   -0.285638
     7  C   -0.069034
     8  C    0.042497
     9  C   -0.084898
    10  C    0.004399
    11  C    0.076987
    12  C    0.074950
    13  C   -0.032975
    14  C    0.174341
    15  O   -0.252253
    16  O   -0.315497
    17  N   -0.443773
    18  C    0.177668
    19  C   -0.121213
    20  C   -0.035478
    21  C    0.136091
    22  C    0.095813
    23  C    0.003018
    24  O   -0.244861
    25  C    0.057889
    26  N   -0.311438
    27  C    0.063586
    28  C   -0.010741
    29  C   -0.033664
    30  C    0.070509
    31  C    0.040914
    32  C    0.033378
    33  C    0.007258
    34  N   -0.283485
    35  C    0.082477
    36  C   -0.178652
    37  C    0.007686
    38  C    0.130107
    39  C    0.137584
    40  C    0.030174
    41  O   -0.189966
    42  C   -0.030580
    43  C    0.207900
    44  O   -0.241130
    45  O   -0.315214
    46  C    0.170980
    47  C    0.321532
    48  C   -0.145032
    49  C   -0.146380
    50  C    0.081122
    51  C    0.063109
    52  C   -0.004986
    53  C    0.068977
    54  C   -0.181442
    55  C    0.086761
    56  C    0.045072
    57  C    0.032937
    58  C    0.050585
    59  C   -0.129712
    60  C    0.045647
    61  C    0.018178
    62  C    0.043357
    63  C    0.037294
    64  C   -0.150041
    65  C    0.035529
    66  C    0.055896
    67  H   -0.004182
    68  H   -0.050525
    69  H   -0.030557
    70  H    0.021054
    71  H    0.019338
    72  H    0.019632
    73  H    0.017787
    74  H    0.018944
    75  H    0.033222
    76  H    0.021548
    77  H    0.027574
    78  H    0.033180
    79  H    0.034648
    80  H    0.016716
    81  H    0.030605
    82  H    0.047700
    83  H    0.035214
    84  H    0.031962
    85  H    0.021398
    86  H    0.013964
    87  H    0.011806
    88  H    0.030516
    89  H    0.013717
    90  H    0.003600
    91  H   -0.002449
    92  H    0.021587
    93  H    0.016503
    94  H    0.017284
    95  H    0.035431
    96  H    0.036814
    97  H    0.026107
    98  H    0.045067
    99  H    0.035553
   100  H    0.045420
   101  H    0.046955
   102  H    0.007968
   103  H    0.026645
   104  H   -0.009999
   105  H    0.004188
   106  H    0.028460
   107  H    0.028975
   108  H    0.016083
   109  H   -0.009100
   110  H    0.009462
   111  H   -0.009255
   112  H   -0.000102
   113  H    0.003766
   114  H   -0.018416
   115  H    0.012403
   116  H    0.015506
   117  H   -0.014384
   118  H    0.003322
   119  H   -0.005754
   120  H   -0.002484
   121  H    0.003022
   122  H   -0.013213
   123  H   -0.018014
   124  H   -0.001223
   125  H    0.010986
   126  H    0.011941
   127  H    0.000547
   128  H   -0.004599
   129  H   -0.003030
   130  H   -0.003259
   131  H    0.011588
   132  H   -0.016314
   133  H   -0.021447
   134  H   -0.004741
   135  H    0.003229
   136  H    0.006199
   137  H    0.003168
   138  H    0.011397
   139  H    0.013013
   140  H    0.002886
 Sum of Mulliken charges =  -0.00000

 Dipole moment (field-independent basis, Debye):
    X=             -1.3087    Y=              6.2466    Z=              1.9240  Tot=              6.6659
 Quadrupole moment (field-independent basis, Debye-Ang):
   XX=           -374.7636   YY=           -445.0673   ZZ=           -416.8543
   XY=             29.6666   XZ=              5.5577   YZ=             36.0672

 Normal termination of Gaussian 16 at Fri Apr 29 16:20:40 2022.
