 Gaussian 16, Revision A.03,
 Gaussian 16:  ES64L-G16RevA.03 25-Dec-2016

 ---------------------------------
 #p PBE1PBE/Def2SVP td=(nstates=5)
 ---------------------------------

 -----------------------------------------------------
 step_401_chromophore_14 TDDFT with PBE1PBE functional
 -----------------------------------------------------
 Symbolic Z-matrix:
 Charge =  0 Multiplicity = 1

                         Standard orientation:
 ---------------------------------------------------------------------
 Center     Atomic      Atomic             Coordinates (Angstroms)
 Number     Number       Type             X           Y           Z
 ---------------------------------------------------------------------
      1         12           0        5.148906    1.213934   -0.235609
      2          6           0        5.159599   -2.285686    0.478796
      3          6           0        4.057626    0.540211   -3.380749
      4          6           0        4.723831    4.451495   -0.492057
      5          6           0        5.442305    1.601302    3.410705
      6          7           0        4.784618   -0.743155   -1.348802
      7          6           0        4.763304   -2.011144   -0.790380
      8          6           0        4.291552   -2.988557   -1.961079
      9          6           0        3.813591   -2.055463   -3.061958
     10          6           0        4.235129   -0.634509   -2.588717
     11          6           0        4.336801   -2.393410   -4.447013
     12          6           0        3.218330   -4.063027   -1.573122
     13          6           0        1.792910   -3.638992   -1.025153
     14          6           0        0.394283   -4.218779   -1.575570
     15          8           0        0.284295   -4.895627   -2.610411
     16          8           0       -0.591499   -4.010869   -0.684690
     17          7           0        4.584972    2.331800   -1.793059
     18          6           0        4.276188    1.899034   -3.048543
     19          6           0        4.133174    3.026093   -3.898987
     20          6           0        4.613639    4.174231   -3.149557
     21          6           0        4.702630    3.724939   -1.752240
     22          6           0        3.807036    2.890414   -5.393424
     23          6           0        4.971115    5.613639   -3.642994
     24          8           0        4.759603    6.009339   -4.830174
     25          6           0        5.706832    6.692337   -2.814507
     26          7           0        4.939701    2.733940    1.238833
     27          6           0        4.820022    4.028203    0.834456
     28          6           0        4.750460    5.031129    2.107081
     29          6           0        4.829735    4.052362    3.360111
     30          6           0        5.033285    2.710907    2.641865
     31          6           0        5.865441    6.180446    2.211536
     32          6           0        3.656989    4.068179    4.383858
     33          6           0        4.038140    4.044731    5.795289
     34          7           0        5.474707   -0.028572    1.602954
     35          6           0        5.588104    0.292027    2.935395
     36          6           0        5.879609   -0.853255    3.687518
     37          6           0        5.742584   -1.952916    2.758185
     38          6           0        5.407148   -1.356574    1.489092
     39          6           0        6.228029   -0.967131    5.144812
     40          6           0        5.776267   -3.361255    2.642039
     41          8           0        5.983086   -4.249557    3.478416
     42          6           0        5.315355   -3.681041    1.122135
     43          6           0        6.359067   -4.531198    0.465720
     44          8           0        6.127634   -5.568617   -0.184948
     45          8           0        7.590310   -4.014732    0.647449
     46          6           0        8.689070   -4.691899   -0.012171
     47          6           0       -1.960220   -4.196616   -1.138359
     48          6           0       -2.839971   -3.287139   -0.416638
     49          6           0       -3.485685   -2.141375   -0.779344
     50          6           0       -3.595224   -1.661004   -2.244608
     51          6           0       -4.126558   -1.259543    0.251543
     52          6           0       -5.638541   -0.817696    0.074676
     53          6           0       -6.310038   -0.381128    1.366678
     54          6           0       -7.807830    0.013699    1.180231
     55          6           0       -8.193378    0.970214    2.298573
     56          6           0       -8.784917   -1.230904    0.928926
     57          6           0       -9.943421   -0.903269   -0.080033
     58          6           0      -11.327686   -1.366116    0.430436
     59          6           0      -12.267988   -0.176925    0.787719
     60          6           0      -12.578144   -0.367351    2.288991
     61          6           0      -13.574577   -0.246121   -0.106284
     62          6           0      -14.081799    1.197749   -0.417569
     63          6           0      -15.429232    1.377372    0.306689
     64          6           0      -16.678947    1.623392   -0.584829
     65          6           0      -16.989768    3.129143   -0.749187
     66          6           0      -17.970009    0.813627   -0.241520
     67          1           0        3.439271    0.309030   -4.250602
     68          1           0        4.660826    5.532206   -0.641805
     69          1           0        5.533927    1.632329    4.498321
     70          1           0        5.192592   -3.479631   -2.327994
     71          1           0        2.724102   -2.025058   -3.070814
     72          1           0        5.233501   -1.824058   -4.690993
     73          1           0        3.551206   -2.288960   -5.195629
     74          1           0        4.640465   -3.437554   -4.518363
     75          1           0        3.542984   -4.694090   -0.745409
     76          1           0        3.008020   -4.609264   -2.492200
     77          1           0        1.733942   -2.559244   -1.161270
     78          1           0        1.785417   -3.840578    0.046045
     79          1           0        2.741472    3.066165   -5.540336
     80          1           0        4.148709    1.964154   -5.854066
     81          1           0        4.348938    3.565242   -6.055818
     82          1           0        6.663985    6.290935   -2.481426
     83          1           0        5.011128    6.949215   -2.015052
     84          1           0        5.768688    7.594428   -3.423482
     85          1           0        3.768086    5.494007    2.013404
     86          1           0        5.727356    4.206075    3.959366
     87          1           0        6.590762    6.023715    1.413904
     88          1           0        6.428907    6.277891    3.139560
     89          1           0        5.465506    7.157786    1.939768
     90          1           0        2.978015    3.245248    4.160090
     91          1           0        2.969962    4.913410    4.346061
     92          1           0        3.233658    3.500799    6.290567
     93          1           0        4.056306    5.092100    6.097065
     94          1           0        5.023779    3.602462    5.937952
     95          1           0        6.813379   -1.882663    5.225884
     96          1           0        5.308322   -1.189710    5.685700
     97          1           0        6.803383   -0.089625    5.439082
     98          1           0        4.358360   -4.197140    1.205197
     99          1           0        9.451571   -4.004454   -0.380690
    100          1           0        8.366150   -5.247977   -0.892348
    101          1           0        9.081711   -5.345379    0.767404
    102          1           0       -2.119041   -5.199656   -0.740811
    103          1           0       -2.084781   -4.117468   -2.218852
    104          1           0       -2.854168   -3.555070    0.640193
    105          1           0       -3.436476   -0.585722   -2.158005
    106          1           0       -4.629698   -1.701086   -2.585093
    107          1           0       -2.880216   -2.083499   -2.950622
    108          1           0       -3.464189   -0.399652    0.352611
    109          1           0       -4.006480   -1.764593    1.210538
    110          1           0       -6.193680   -1.507104   -0.562117
    111          1           0       -5.448850    0.026413   -0.588956
    112          1           0       -5.786127    0.513082    1.704220
    113          1           0       -6.338638   -1.193960    2.093091
    114          1           0       -7.921483    0.637910    0.293709
    115          1           0       -8.332432    1.935136    1.809903
    116          1           0       -7.527957    0.930486    3.160070
    117          1           0       -9.179242    0.620014    2.606459
    118          1           0       -8.996867   -1.552403    1.948844
    119          1           0       -8.184260   -2.004855    0.449058
    120          1           0       -9.718817   -1.412056   -1.017158
    121          1           0      -10.083713    0.154960   -0.301359
    122          1           0      -11.134252   -2.055482    1.252843
    123          1           0      -11.835030   -2.027790   -0.271676
    124          1           0      -11.798743    0.791766    0.614426
    125          1           0      -11.665957   -0.393661    2.885667
    126          1           0      -13.095050   -1.313101    2.448603
    127          1           0      -13.180678    0.478777    2.618091
    128          1           0      -14.316421   -0.833514    0.434133
    129          1           0      -13.463290   -0.788089   -1.045494
    130          1           0      -14.329055    1.104001   -1.474443
    131          1           0      -13.354724    1.973681   -0.179970
    132          1           0      -15.326720    2.104768    1.111802
    133          1           0      -15.590304    0.517279    0.956092
    134          1           0      -16.415958    1.375529   -1.612326
    135          1           0      -17.926494    3.382584   -0.251068
    136          1           0      -17.069193    3.359660   -1.811595
    137          1           0      -16.228049    3.782729   -0.323666
    138          1           0      -18.837416    1.438884   -0.455805
    139          1           0      -17.943652    0.358183    0.748743
    140          1           0      -17.970054   -0.044816   -0.913242
 ---------------------------------------------------------------------

 SCF Done:  E(RPBE1PBE) =  -3005.33245670     A.U. after   15 cycles

 Excitation energies and oscillator strengths:

 Excited State   1:      Singlet-A      1.8338 eV  676.09 nm  f=0.3714  <S**2>=0.000
     245 -> 248       -0.16471
     246 -> 247        0.69564
     246 <- 247       -0.11492
 This state for optimization and/or second-order correction.
 Total Energy, E(TD-HF/TD-DFT) =  -3005.26506447
 Copying the excited state density for this state as the 1-particle RhoCI density.

 Excited State   2:      Singlet-A      2.2138 eV  560.04 nm  f=0.1293  <S**2>=0.000
     245 -> 247        0.65448
     246 -> 248        0.23506

 Excited State   3:      Singlet-A      2.6092 eV  475.18 nm  f=0.0043  <S**2>=0.000
     242 -> 247        0.21322
     244 -> 247        0.65044

 Excited State   4:      Singlet-A      2.6415 eV  469.36 nm  f=0.0043  <S**2>=0.000
     243 -> 247        0.66941
     243 -> 249        0.11324

 Excited State   5:      Singlet-A      2.7841 eV  445.34 nm  f=0.0069  <S**2>=0.000
     242 -> 247        0.64488
     244 -> 247       -0.22709

 The electronic state is 1-A.
 Alpha  occ. eigenvalues --  -46.93264 -19.26061 -19.25616 -19.19489 -19.19481
 Alpha  occ. eigenvalues --  -19.18923 -19.18713 -14.42799 -14.42229 -14.39812
 Alpha  occ. eigenvalues --  -14.38832 -10.36705 -10.36415 -10.33113 -10.31706
 Alpha  occ. eigenvalues --  -10.30210 -10.29765 -10.29711 -10.29706 -10.29283
 Alpha  occ. eigenvalues --  -10.28934 -10.28812 -10.28251 -10.27634 -10.26989
 Alpha  occ. eigenvalues --  -10.26842 -10.26832 -10.26666 -10.26470 -10.26160
 Alpha  occ. eigenvalues --  -10.26108 -10.26085 -10.25968 -10.25956 -10.25795
 Alpha  occ. eigenvalues --  -10.25618 -10.25437 -10.25116 -10.25064 -10.24587
 Alpha  occ. eigenvalues --  -10.24135 -10.24007 -10.23917 -10.23891 -10.23818
 Alpha  occ. eigenvalues --  -10.23749 -10.23527 -10.23507 -10.23488 -10.23369
 Alpha  occ. eigenvalues --  -10.23244 -10.23240 -10.23221 -10.23095 -10.23091
 Alpha  occ. eigenvalues --  -10.22944 -10.22926 -10.22843 -10.22392 -10.22284
 Alpha  occ. eigenvalues --  -10.22012 -10.21977 -10.21914 -10.21861 -10.21742
 Alpha  occ. eigenvalues --  -10.21358  -3.15260  -1.88101  -1.87634  -1.87480
 Alpha  occ. eigenvalues --   -1.11584  -1.11338  -1.03136  -1.02139  -1.01634
 Alpha  occ. eigenvalues --   -1.01479  -0.98973  -0.98210  -0.97721  -0.97042
 Alpha  occ. eigenvalues --   -0.87153  -0.84736  -0.84368  -0.83719  -0.83304
 Alpha  occ. eigenvalues --   -0.82830  -0.82629  -0.81564  -0.81397  -0.81339
 Alpha  occ. eigenvalues --   -0.80016  -0.79555  -0.78817  -0.78569  -0.77744
 Alpha  occ. eigenvalues --   -0.77162  -0.76380  -0.75711  -0.75504  -0.74994
 Alpha  occ. eigenvalues --   -0.74403  -0.72714  -0.72143  -0.71574  -0.70666
 Alpha  occ. eigenvalues --   -0.70561  -0.69836  -0.69280  -0.68858  -0.68173
 Alpha  occ. eigenvalues --   -0.67991  -0.67449  -0.66546  -0.64747  -0.63620
 Alpha  occ. eigenvalues --   -0.63193  -0.62248  -0.61701  -0.61229  -0.60476
 Alpha  occ. eigenvalues --   -0.60047  -0.59656  -0.59644  -0.59154  -0.58402
 Alpha  occ. eigenvalues --   -0.57763  -0.57441  -0.57193  -0.56855  -0.54625
 Alpha  occ. eigenvalues --   -0.54572  -0.54428  -0.53681  -0.53140  -0.52855
 Alpha  occ. eigenvalues --   -0.51718  -0.51299  -0.50909  -0.50148  -0.50105
 Alpha  occ. eigenvalues --   -0.49744  -0.49658  -0.49024  -0.48980  -0.48707
 Alpha  occ. eigenvalues --   -0.48388  -0.48144  -0.48009  -0.47422  -0.47172
 Alpha  occ. eigenvalues --   -0.47026  -0.46829  -0.46817  -0.46685  -0.46468
 Alpha  occ. eigenvalues --   -0.46402  -0.45894  -0.45698  -0.45540  -0.45403
 Alpha  occ. eigenvalues --   -0.45150  -0.44986  -0.44794  -0.44673  -0.44491
 Alpha  occ. eigenvalues --   -0.44113  -0.43789  -0.43573  -0.43360  -0.43128
 Alpha  occ. eigenvalues --   -0.43034  -0.42981  -0.42858  -0.42349  -0.42256
 Alpha  occ. eigenvalues --   -0.42165  -0.41866  -0.41779  -0.41718  -0.41481
 Alpha  occ. eigenvalues --   -0.41358  -0.41202  -0.40979  -0.40821  -0.40699
 Alpha  occ. eigenvalues --   -0.40359  -0.40326  -0.40011  -0.39731  -0.39696
 Alpha  occ. eigenvalues --   -0.39530  -0.39239  -0.39121  -0.38897  -0.38681
 Alpha  occ. eigenvalues --   -0.38648  -0.38487  -0.38280  -0.38174  -0.38015
 Alpha  occ. eigenvalues --   -0.37744  -0.37534  -0.37127  -0.37069  -0.36906
 Alpha  occ. eigenvalues --   -0.36798  -0.36678  -0.36438  -0.36383  -0.36331
 Alpha  occ. eigenvalues --   -0.36150  -0.35881  -0.35598  -0.35328  -0.34962
 Alpha  occ. eigenvalues --   -0.34777  -0.34541  -0.34011  -0.33709  -0.33443
 Alpha  occ. eigenvalues --   -0.33201  -0.33005  -0.32808  -0.32657  -0.32449
 Alpha  occ. eigenvalues --   -0.32293  -0.31743  -0.31585  -0.31313  -0.31134
 Alpha  occ. eigenvalues --   -0.31029  -0.30675  -0.30353  -0.29536  -0.29276
 Alpha  occ. eigenvalues --   -0.28588  -0.28282  -0.28123  -0.27590  -0.26050
 Alpha  occ. eigenvalues --   -0.25622  -0.25349  -0.24978  -0.24820  -0.21834
 Alpha  occ. eigenvalues --   -0.19672
 Alpha virt. eigenvalues --   -0.12245  -0.05789  -0.04407  -0.02597  -0.00750
 Alpha virt. eigenvalues --   -0.00272   0.00398   0.00902   0.01391   0.02374
 Alpha virt. eigenvalues --    0.03216   0.04381   0.05136   0.05348   0.05936

 Mulliken charges:
               1
     1  Mg   0.956697
     2  C   -0.049346
     3  C   -0.046018
     4  C   -0.047230
     5  C   -0.066778
     6  N   -0.388263
     7  C    0.019768
     8  C   -0.027694
     9  C   -0.169332
    10  C    0.051209
    11  C    0.018438
    12  C    0.024037
    13  C   -0.107194
    14  C    0.238413
    15  O   -0.284467
    16  O   -0.346195
    17  N   -0.556690
    18  C    0.198325
    19  C   -0.148604
    20  C   -0.084126
    21  C    0.163708
    22  C    0.040631
    23  C    0.050704
    24  O   -0.276602
    25  C   -0.018249
    26  N   -0.412811
    27  C    0.092460
    28  C   -0.077953
    29  C   -0.111591
    30  C    0.106700
    31  C   -0.018271
    32  C   -0.018749
    33  C   -0.068362
    34  N   -0.406591
    35  C    0.097764
    36  C   -0.185241
    37  C   -0.046774
    38  C    0.181514
    39  C    0.080432
    40  C    0.126098
    41  O   -0.234888
    42  C   -0.143304
    43  C    0.300488
    44  O   -0.278460
    45  O   -0.345709
    46  C    0.117528
    47  C    0.274889
    48  C   -0.156646
    49  C   -0.183669
    50  C    0.019575
    51  C    0.001415
    52  C   -0.068341
    53  C    0.003896
    54  C   -0.256766
    55  C    0.019900
    56  C   -0.012932
    57  C   -0.030540
    58  C    0.002216
    59  C   -0.218211
    60  C   -0.018956
    61  C   -0.028409
    62  C   -0.026294
    63  C   -0.012243
    64  C   -0.241784
    65  C   -0.023427
    66  C   -0.007053
    67  H    0.026556
    68  H   -0.013435
    69  H    0.003225
    70  H    0.059280
    71  H    0.057875
    72  H    0.047723
    73  H    0.044982
    74  H    0.046345
    75  H    0.066792
    76  H    0.054326
    77  H    0.060858
    78  H    0.064957
    79  H    0.062072
    80  H    0.041403
    81  H    0.057123
    82  H    0.073924
    83  H    0.060500
    84  H    0.059368
    85  H    0.057784
    86  H    0.051913
    87  H    0.039937
    88  H    0.056029
    89  H    0.040979
    90  H    0.036372
    91  H    0.030077
    92  H    0.049666
    93  H    0.045133
    94  H    0.043296
    95  H    0.064167
    96  H    0.065859
    97  H    0.052239
    98  H    0.082409
    99  H    0.057334
   100  H    0.065686
   101  H    0.068973
   102  H    0.036885
   103  H    0.052010
   104  H    0.019764
   105  H    0.032822
   106  H    0.056206
   107  H    0.055364
   108  H    0.049401
   109  H    0.023358
   110  H    0.040785
   111  H    0.024936
   112  H    0.033147
   113  H    0.037087
   114  H    0.021099
   115  H    0.040015
   116  H    0.042296
   117  H    0.019426
   118  H    0.033965
   119  H    0.028542
   120  H    0.030430
   121  H    0.034264
   122  H    0.019267
   123  H    0.014230
   124  H    0.034371
   125  H    0.040979
   126  H    0.039377
   127  H    0.030326
   128  H    0.026658
   129  H    0.028117
   130  H    0.031245
   131  H    0.042198
   132  H    0.015857
   133  H    0.010763
   134  H    0.033288
   135  H    0.030289
   136  H    0.033406
   137  H    0.030767
   138  H    0.038296
   139  H    0.039881
   140  H    0.031115
 Sum of Mulliken charges =  -0.00000

 Dipole moment (field-independent basis, Debye):
    X=             -1.3656    Y=              6.1312    Z=              2.2456  Tot=              6.6708
 Quadrupole moment (field-independent basis, Debye-Ang):
   XX=           -371.5843   YY=           -442.2604   ZZ=           -412.4818
   XY=             29.0707   XZ=              7.3696   YZ=             37.3475

 Normal termination of Gaussian 16 at Fri Apr 29 16:34:41 2022.
