 Gaussian 16, Revision A.03,
 Gaussian 16:  ES64L-G16RevA.03 25-Dec-2016

 --------------------------------
 #p wB97XD/Def2SVP td=(nstates=5)
 --------------------------------

 ----------------------------------------------------
 step_401_chromophore_14 TDDFT with wB97XD functional
 ----------------------------------------------------
 Symbolic Z-matrix:
 Charge =  0 Multiplicity = 1

                         Standard orientation:
 ---------------------------------------------------------------------
 Center     Atomic      Atomic             Coordinates (Angstroms)
 Number     Number       Type             X           Y           Z
 ---------------------------------------------------------------------
      1         12           0        5.148906    1.213934   -0.235609
      2          6           0        5.159599   -2.285686    0.478796
      3          6           0        4.057626    0.540211   -3.380749
      4          6           0        4.723831    4.451495   -0.492057
      5          6           0        5.442305    1.601302    3.410705
      6          7           0        4.784618   -0.743155   -1.348802
      7          6           0        4.763304   -2.011144   -0.790380
      8          6           0        4.291552   -2.988557   -1.961079
      9          6           0        3.813591   -2.055463   -3.061958
     10          6           0        4.235129   -0.634509   -2.588717
     11          6           0        4.336801   -2.393410   -4.447013
     12          6           0        3.218330   -4.063027   -1.573122
     13          6           0        1.792910   -3.638992   -1.025153
     14          6           0        0.394283   -4.218779   -1.575570
     15          8           0        0.284295   -4.895627   -2.610411
     16          8           0       -0.591499   -4.010869   -0.684690
     17          7           0        4.584972    2.331800   -1.793059
     18          6           0        4.276188    1.899034   -3.048543
     19          6           0        4.133174    3.026093   -3.898987
     20          6           0        4.613639    4.174231   -3.149557
     21          6           0        4.702630    3.724939   -1.752240
     22          6           0        3.807036    2.890414   -5.393424
     23          6           0        4.971115    5.613639   -3.642994
     24          8           0        4.759603    6.009339   -4.830174
     25          6           0        5.706832    6.692337   -2.814507
     26          7           0        4.939701    2.733940    1.238833
     27          6           0        4.820022    4.028203    0.834456
     28          6           0        4.750460    5.031129    2.107081
     29          6           0        4.829735    4.052362    3.360111
     30          6           0        5.033285    2.710907    2.641865
     31          6           0        5.865441    6.180446    2.211536
     32          6           0        3.656989    4.068179    4.383858
     33          6           0        4.038140    4.044731    5.795289
     34          7           0        5.474707   -0.028572    1.602954
     35          6           0        5.588104    0.292027    2.935395
     36          6           0        5.879609   -0.853255    3.687518
     37          6           0        5.742584   -1.952916    2.758185
     38          6           0        5.407148   -1.356574    1.489092
     39          6           0        6.228029   -0.967131    5.144812
     40          6           0        5.776267   -3.361255    2.642039
     41          8           0        5.983086   -4.249557    3.478416
     42          6           0        5.315355   -3.681041    1.122135
     43          6           0        6.359067   -4.531198    0.465720
     44          8           0        6.127634   -5.568617   -0.184948
     45          8           0        7.590310   -4.014732    0.647449
     46          6           0        8.689070   -4.691899   -0.012171
     47          6           0       -1.960220   -4.196616   -1.138359
     48          6           0       -2.839971   -3.287139   -0.416638
     49          6           0       -3.485685   -2.141375   -0.779344
     50          6           0       -3.595224   -1.661004   -2.244608
     51          6           0       -4.126558   -1.259543    0.251543
     52          6           0       -5.638541   -0.817696    0.074676
     53          6           0       -6.310038   -0.381128    1.366678
     54          6           0       -7.807830    0.013699    1.180231
     55          6           0       -8.193378    0.970214    2.298573
     56          6           0       -8.784917   -1.230904    0.928926
     57          6           0       -9.943421   -0.903269   -0.080033
     58          6           0      -11.327686   -1.366116    0.430436
     59          6           0      -12.267988   -0.176925    0.787719
     60          6           0      -12.578144   -0.367351    2.288991
     61          6           0      -13.574577   -0.246121   -0.106284
     62          6           0      -14.081799    1.197749   -0.417569
     63          6           0      -15.429232    1.377372    0.306689
     64          6           0      -16.678947    1.623392   -0.584829
     65          6           0      -16.989768    3.129143   -0.749187
     66          6           0      -17.970009    0.813627   -0.241520
     67          1           0        3.439271    0.309030   -4.250602
     68          1           0        4.660826    5.532206   -0.641805
     69          1           0        5.533927    1.632329    4.498321
     70          1           0        5.192592   -3.479631   -2.327994
     71          1           0        2.724102   -2.025058   -3.070814
     72          1           0        5.233501   -1.824058   -4.690993
     73          1           0        3.551206   -2.288960   -5.195629
     74          1           0        4.640465   -3.437554   -4.518363
     75          1           0        3.542984   -4.694090   -0.745409
     76          1           0        3.008020   -4.609264   -2.492200
     77          1           0        1.733942   -2.559244   -1.161270
     78          1           0        1.785417   -3.840578    0.046045
     79          1           0        2.741472    3.066165   -5.540336
     80          1           0        4.148709    1.964154   -5.854066
     81          1           0        4.348938    3.565242   -6.055818
     82          1           0        6.663985    6.290935   -2.481426
     83          1           0        5.011128    6.949215   -2.015052
     84          1           0        5.768688    7.594428   -3.423482
     85          1           0        3.768086    5.494007    2.013404
     86          1           0        5.727356    4.206075    3.959366
     87          1           0        6.590762    6.023715    1.413904
     88          1           0        6.428907    6.277891    3.139560
     89          1           0        5.465506    7.157786    1.939768
     90          1           0        2.978015    3.245248    4.160090
     91          1           0        2.969962    4.913410    4.346061
     92          1           0        3.233658    3.500799    6.290567
     93          1           0        4.056306    5.092100    6.097065
     94          1           0        5.023779    3.602462    5.937952
     95          1           0        6.813379   -1.882663    5.225884
     96          1           0        5.308322   -1.189710    5.685700
     97          1           0        6.803383   -0.089625    5.439082
     98          1           0        4.358360   -4.197140    1.205197
     99          1           0        9.451571   -4.004454   -0.380690
    100          1           0        8.366150   -5.247977   -0.892348
    101          1           0        9.081711   -5.345379    0.767404
    102          1           0       -2.119041   -5.199656   -0.740811
    103          1           0       -2.084781   -4.117468   -2.218852
    104          1           0       -2.854168   -3.555070    0.640193
    105          1           0       -3.436476   -0.585722   -2.158005
    106          1           0       -4.629698   -1.701086   -2.585093
    107          1           0       -2.880216   -2.083499   -2.950622
    108          1           0       -3.464189   -0.399652    0.352611
    109          1           0       -4.006480   -1.764593    1.210538
    110          1           0       -6.193680   -1.507104   -0.562117
    111          1           0       -5.448850    0.026413   -0.588956
    112          1           0       -5.786127    0.513082    1.704220
    113          1           0       -6.338638   -1.193960    2.093091
    114          1           0       -7.921483    0.637910    0.293709
    115          1           0       -8.332432    1.935136    1.809903
    116          1           0       -7.527957    0.930486    3.160070
    117          1           0       -9.179242    0.620014    2.606459
    118          1           0       -8.996867   -1.552403    1.948844
    119          1           0       -8.184260   -2.004855    0.449058
    120          1           0       -9.718817   -1.412056   -1.017158
    121          1           0      -10.083713    0.154960   -0.301359
    122          1           0      -11.134252   -2.055482    1.252843
    123          1           0      -11.835030   -2.027790   -0.271676
    124          1           0      -11.798743    0.791766    0.614426
    125          1           0      -11.665957   -0.393661    2.885667
    126          1           0      -13.095050   -1.313101    2.448603
    127          1           0      -13.180678    0.478777    2.618091
    128          1           0      -14.316421   -0.833514    0.434133
    129          1           0      -13.463290   -0.788089   -1.045494
    130          1           0      -14.329055    1.104001   -1.474443
    131          1           0      -13.354724    1.973681   -0.179970
    132          1           0      -15.326720    2.104768    1.111802
    133          1           0      -15.590304    0.517279    0.956092
    134          1           0      -16.415958    1.375529   -1.612326
    135          1           0      -17.926494    3.382584   -0.251068
    136          1           0      -17.069193    3.359660   -1.811595
    137          1           0      -16.228049    3.782729   -0.323666
    138          1           0      -18.837416    1.438884   -0.455805
    139          1           0      -17.943652    0.358183    0.748743
    140          1           0      -17.970054   -0.044816   -0.913242
 ---------------------------------------------------------------------

 SCF Done:  E(RwB97XD) =  -3007.83968782     A.U. after   19 cycles

 Excitation energies and oscillator strengths:

 Excited State   1:      Singlet-A      1.6113 eV  769.45 nm  f=0.3886  <S**2>=0.000
     245 -> 248       -0.17726
     246 -> 247        0.68592
     245 <- 248       -0.11669
 This state for optimization and/or second-order correction.
 Total Energy, E(TD-HF/TD-DFT) =  -3007.78047256
 Copying the excited state density for this state as the 1-particle RhoCI density.

 Excited State   2:      Singlet-A      2.1466 eV  577.58 nm  f=0.1344  <S**2>=0.000
     245 -> 247        0.64585
     246 -> 248        0.26385

 Excited State   3:      Singlet-A      3.0735 eV  403.39 nm  f=0.0049  <S**2>=0.000
     240 -> 247       -0.11335
     243 -> 247        0.23839
     244 -> 247        0.62091

 Excited State   4:      Singlet-A      3.1603 eV  392.32 nm  f=0.0071  <S**2>=0.000
     240 -> 249        0.10955
     240 -> 250       -0.11002
     243 -> 247        0.55819
     243 -> 249        0.17857
     244 -> 247       -0.24604
     246 -> 248        0.10244

 Excited State   5:      Singlet-A      3.3282 eV  372.52 nm  f=0.0002  <S**2>=0.000
     240 -> 247        0.28979
     240 -> 249        0.12325
     242 -> 247        0.49932
     242 -> 249       -0.19005
     242 -> 250       -0.18021
     243 -> 249        0.15601

 The electronic state is 1-A.
 Alpha  occ. eigenvalues --  -46.96243 -19.30627 -19.30167 -19.24155 -19.24125
 Alpha  occ. eigenvalues --  -19.23861 -19.23367 -14.47898 -14.47347 -14.44850
 Alpha  occ. eigenvalues --  -14.43704 -10.43474 -10.43223 -10.40040 -10.38466
 Alpha  occ. eigenvalues --  -10.36637 -10.36327 -10.36151 -10.35822 -10.35515
 Alpha  occ. eigenvalues --  -10.35454 -10.35299 -10.34832 -10.33889 -10.33543
 Alpha  occ. eigenvalues --  -10.33233 -10.33091 -10.33023 -10.32642 -10.32527
 Alpha  occ. eigenvalues --  -10.32447 -10.32386 -10.32367 -10.32317 -10.32135
 Alpha  occ. eigenvalues --  -10.32062 -10.31740 -10.31527 -10.31406 -10.31001
 Alpha  occ. eigenvalues --  -10.30676 -10.30507 -10.30367 -10.30150 -10.30146
 Alpha  occ. eigenvalues --  -10.30136 -10.30115 -10.29914 -10.29812 -10.29744
 Alpha  occ. eigenvalues --  -10.29591 -10.29514 -10.29493 -10.29445 -10.29441
 Alpha  occ. eigenvalues --  -10.29318 -10.29200 -10.29040 -10.28735 -10.28611
 Alpha  occ. eigenvalues --  -10.28449 -10.28392 -10.28326 -10.28208 -10.28078
 Alpha  occ. eigenvalues --  -10.27779  -3.22118  -1.95705  -1.95239  -1.95077
 Alpha  occ. eigenvalues --   -1.18966  -1.18698  -1.10494  -1.09772  -1.08964
 Alpha  occ. eigenvalues --   -1.08834  -1.06295  -1.05659  -1.05157  -1.04457
 Alpha  occ. eigenvalues --   -0.94714  -0.92408  -0.91925  -0.91381  -0.90940
 Alpha  occ. eigenvalues --   -0.90487  -0.90321  -0.89157  -0.89043  -0.88874
 Alpha  occ. eigenvalues --   -0.87825  -0.87217  -0.86436  -0.86199  -0.85398
 Alpha  occ. eigenvalues --   -0.84807  -0.84057  -0.83334  -0.83191  -0.82734
 Alpha  occ. eigenvalues --   -0.82061  -0.80314  -0.79787  -0.79299  -0.78308
 Alpha  occ. eigenvalues --   -0.78216  -0.77458  -0.76975  -0.76542  -0.75817
 Alpha  occ. eigenvalues --   -0.75524  -0.75050  -0.74104  -0.72391  -0.71156
 Alpha  occ. eigenvalues --   -0.70676  -0.69856  -0.69341  -0.68836  -0.67971
 Alpha  occ. eigenvalues --   -0.67523  -0.67284  -0.67057  -0.66699  -0.66077
 Alpha  occ. eigenvalues --   -0.65169  -0.65077  -0.64674  -0.64482  -0.62122
 Alpha  occ. eigenvalues --   -0.62068  -0.61770  -0.61063  -0.60591  -0.60203
 Alpha  occ. eigenvalues --   -0.59222  -0.58798  -0.58376  -0.57622  -0.57523
 Alpha  occ. eigenvalues --   -0.57137  -0.57045  -0.56476  -0.56336  -0.56058
 Alpha  occ. eigenvalues --   -0.55828  -0.55480  -0.55320  -0.54770  -0.54533
 Alpha  occ. eigenvalues --   -0.54346  -0.54291  -0.54236  -0.54067  -0.53914
 Alpha  occ. eigenvalues --   -0.53768  -0.53219  -0.53126  -0.52891  -0.52760
 Alpha  occ. eigenvalues --   -0.52655  -0.52257  -0.52141  -0.51987  -0.51807
 Alpha  occ. eigenvalues --   -0.51410  -0.51119  -0.50915  -0.50674  -0.50423
 Alpha  occ. eigenvalues --   -0.50272  -0.50253  -0.50153  -0.49599  -0.49521
 Alpha  occ. eigenvalues --   -0.49458  -0.49113  -0.49020  -0.48927  -0.48731
 Alpha  occ. eigenvalues --   -0.48589  -0.48468  -0.48199  -0.48093  -0.47939
 Alpha  occ. eigenvalues --   -0.47559  -0.47482  -0.47223  -0.47002  -0.46900
 Alpha  occ. eigenvalues --   -0.46715  -0.46427  -0.46315  -0.46060  -0.45844
 Alpha  occ. eigenvalues --   -0.45731  -0.45654  -0.45434  -0.45260  -0.45128
 Alpha  occ. eigenvalues --   -0.44794  -0.44712  -0.44206  -0.44149  -0.44006
 Alpha  occ. eigenvalues --   -0.43828  -0.43776  -0.43562  -0.43511  -0.43435
 Alpha  occ. eigenvalues --   -0.43169  -0.43087  -0.42698  -0.42361  -0.42035
 Alpha  occ. eigenvalues --   -0.41758  -0.41598  -0.41047  -0.40726  -0.40486
 Alpha  occ. eigenvalues --   -0.40211  -0.40030  -0.39844  -0.39653  -0.39380
 Alpha  occ. eigenvalues --   -0.39339  -0.38736  -0.38608  -0.38340  -0.38046
 Alpha  occ. eigenvalues --   -0.38020  -0.37681  -0.37316  -0.36366  -0.36031
 Alpha  occ. eigenvalues --   -0.35512  -0.35364  -0.34992  -0.34193  -0.32990
 Alpha  occ. eigenvalues --   -0.32285  -0.32195  -0.32116  -0.31317  -0.26831
 Alpha  occ. eigenvalues --   -0.23844
 Alpha virt. eigenvalues --   -0.08241  -0.00332   0.01824   0.03915   0.05110
 Alpha virt. eigenvalues --    0.06399   0.07223   0.07649   0.08271   0.08669
 Alpha virt. eigenvalues --    0.09823   0.11148   0.11806   0.12044   0.12792

 Mulliken charges:
               1
     1  Mg   0.949003
     2  C   -0.048440
     3  C   -0.066698
     4  C   -0.056028
     5  C   -0.082620
     6  N   -0.354175
     7  C   -0.023220
     8  C   -0.001698
     9  C   -0.139836
    10  C    0.035409
    11  C    0.027815
    12  C    0.039352
    13  C   -0.089995
    14  C    0.229995
    15  O   -0.282201
    16  O   -0.345412
    17  N   -0.528061
    18  C    0.193679
    19  C   -0.139374
    20  C   -0.076225
    21  C    0.158997
    22  C    0.051262
    23  C    0.044601
    24  O   -0.272162
    25  C   -0.003868
    26  N   -0.382662
    27  C    0.081913
    28  C   -0.058302
    29  C   -0.081207
    30  C    0.094168
    31  C   -0.005735
    32  C   -0.009898
    33  C   -0.051143
    34  N   -0.367710
    35  C    0.090925
    36  C   -0.184753
    37  C   -0.042944
    38  C    0.164178
    39  C    0.090953
    40  C    0.108037
    41  O   -0.226222
    42  C   -0.101992
    43  C    0.275759
    44  O   -0.272288
    45  O   -0.345490
    46  C    0.132331
    47  C    0.289470
    48  C   -0.165061
    49  C   -0.174094
    50  C    0.032031
    51  C    0.019861
    52  C   -0.050547
    53  C    0.022699
    54  C   -0.228723
    55  C    0.034374
    56  C    0.001437
    57  C   -0.012070
    58  C    0.014007
    59  C   -0.187481
    60  C   -0.001062
    61  C   -0.014760
    62  C   -0.008988
    63  C    0.001855
    64  C   -0.211690
    65  C   -0.012522
    66  C    0.006279
    67  H    0.021343
    68  H   -0.026210
    69  H   -0.006186
    70  H    0.049042
    71  H    0.045238
    72  H    0.041472
    73  H    0.040483
    74  H    0.040961
    75  H    0.055570
    76  H    0.046543
    77  H    0.050831
    78  H    0.059324
    79  H    0.058766
    80  H    0.037159
    81  H    0.053940
    82  H    0.069927
    83  H    0.056017
    84  H    0.058553
    85  H    0.048672
    86  H    0.038064
    87  H    0.032088
    88  H    0.051783
    89  H    0.035424
    90  H    0.028137
    91  H    0.022568
    92  H    0.044869
    93  H    0.039032
    94  H    0.035591
    95  H    0.059744
    96  H    0.060911
    97  H    0.046972
    98  H    0.074972
    99  H    0.053620
   100  H    0.061699
   101  H    0.065295
   102  H    0.033613
   103  H    0.046502
   104  H    0.016301
   105  H    0.025653
   106  H    0.050574
   107  H    0.051164
   108  H    0.041548
   109  H    0.014486
   110  H    0.030595
   111  H    0.014571
   112  H    0.024712
   113  H    0.027864
   114  H    0.006381
   115  H    0.035309
   116  H    0.037270
   117  H    0.007525
   118  H    0.024178
   119  H    0.019025
   120  H    0.024429
   121  H    0.023000
   122  H    0.008716
   123  H    0.006540
   124  H    0.019846
   125  H    0.031795
   126  H    0.032416
   127  H    0.023438
   128  H    0.015687
   129  H    0.020697
   130  H    0.021119
   131  H    0.035716
   132  H    0.007872
   133  H   -0.002352
   134  H    0.020479
   135  H    0.023525
   136  H    0.028352
   137  H    0.024544
   138  H    0.032389
   139  H    0.034279
   140  H    0.024997
 Sum of Mulliken charges =  -0.00000

 Dipole moment (field-independent basis, Debye):
    X=             -1.2964    Y=              6.4170    Z=              1.8739  Tot=              6.8096
 Quadrupole moment (field-independent basis, Debye-Ang):
   XX=           -370.6402   YY=           -441.2646   ZZ=           -412.3337
   XY=             30.2955   XZ=              5.2483   YZ=             36.2339

 Normal termination of Gaussian 16 at Fri Apr 29 16:58:58 2022.
