 Gaussian 16, Revision A.03,
 Gaussian 16:  ES64L-G16RevA.03 25-Dec-2016

 --------------------
 #p ZINDO=(nstates=5)
 --------------------

 -----------------------------
 step_401_chromophore_14 ZINDO
 -----------------------------
 Symbolic Z-matrix:
 Charge =  0 Multiplicity = 1

                         Standard orientation:
 ---------------------------------------------------------------------
 Center     Atomic      Atomic             Coordinates (Angstroms)
 Number     Number       Type             X           Y           Z
 ---------------------------------------------------------------------
      1         12           0        5.148906    1.213934   -0.235609
      2          6           0        5.159599   -2.285686    0.478796
      3          6           0        4.057626    0.540211   -3.380749
      4          6           0        4.723831    4.451495   -0.492057
      5          6           0        5.442305    1.601302    3.410705
      6          7           0        4.784618   -0.743155   -1.348802
      7          6           0        4.763304   -2.011144   -0.790380
      8          6           0        4.291552   -2.988557   -1.961079
      9          6           0        3.813591   -2.055463   -3.061958
     10          6           0        4.235129   -0.634509   -2.588717
     11          6           0        4.336801   -2.393410   -4.447013
     12          6           0        3.218330   -4.063027   -1.573122
     13          6           0        1.792910   -3.638992   -1.025153
     14          6           0        0.394283   -4.218779   -1.575570
     15          8           0        0.284295   -4.895627   -2.610411
     16          8           0       -0.591499   -4.010869   -0.684690
     17          7           0        4.584972    2.331800   -1.793059
     18          6           0        4.276188    1.899034   -3.048543
     19          6           0        4.133174    3.026093   -3.898987
     20          6           0        4.613639    4.174231   -3.149557
     21          6           0        4.702630    3.724939   -1.752240
     22          6           0        3.807036    2.890414   -5.393424
     23          6           0        4.971115    5.613639   -3.642994
     24          8           0        4.759603    6.009339   -4.830174
     25          6           0        5.706832    6.692337   -2.814507
     26          7           0        4.939701    2.733940    1.238833
     27          6           0        4.820022    4.028203    0.834456
     28          6           0        4.750460    5.031129    2.107081
     29          6           0        4.829735    4.052362    3.360111
     30          6           0        5.033285    2.710907    2.641865
     31          6           0        5.865441    6.180446    2.211536
     32          6           0        3.656989    4.068179    4.383858
     33          6           0        4.038140    4.044731    5.795289
     34          7           0        5.474707   -0.028572    1.602954
     35          6           0        5.588104    0.292027    2.935395
     36          6           0        5.879609   -0.853255    3.687518
     37          6           0        5.742584   -1.952916    2.758185
     38          6           0        5.407148   -1.356574    1.489092
     39          6           0        6.228029   -0.967131    5.144812
     40          6           0        5.776267   -3.361255    2.642039
     41          8           0        5.983086   -4.249557    3.478416
     42          6           0        5.315355   -3.681041    1.122135
     43          6           0        6.359067   -4.531198    0.465720
     44          8           0        6.127634   -5.568617   -0.184948
     45          8           0        7.590310   -4.014732    0.647449
     46          6           0        8.689070   -4.691899   -0.012171
     47          6           0       -1.960220   -4.196616   -1.138359
     48          6           0       -2.839971   -3.287139   -0.416638
     49          6           0       -3.485685   -2.141375   -0.779344
     50          6           0       -3.595224   -1.661004   -2.244608
     51          6           0       -4.126558   -1.259543    0.251543
     52          6           0       -5.638541   -0.817696    0.074676
     53          6           0       -6.310038   -0.381128    1.366678
     54          6           0       -7.807830    0.013699    1.180231
     55          6           0       -8.193378    0.970214    2.298573
     56          6           0       -8.784917   -1.230904    0.928926
     57          6           0       -9.943421   -0.903269   -0.080033
     58          6           0      -11.327686   -1.366116    0.430436
     59          6           0      -12.267988   -0.176925    0.787719
     60          6           0      -12.578144   -0.367351    2.288991
     61          6           0      -13.574577   -0.246121   -0.106284
     62          6           0      -14.081799    1.197749   -0.417569
     63          6           0      -15.429232    1.377372    0.306689
     64          6           0      -16.678947    1.623392   -0.584829
     65          6           0      -16.989768    3.129143   -0.749187
     66          6           0      -17.970009    0.813627   -0.241520
     67          1           0        3.439271    0.309030   -4.250602
     68          1           0        4.660826    5.532206   -0.641805
     69          1           0        5.533927    1.632329    4.498321
     70          1           0        5.192592   -3.479631   -2.327994
     71          1           0        2.724102   -2.025058   -3.070814
     72          1           0        5.233501   -1.824058   -4.690993
     73          1           0        3.551206   -2.288960   -5.195629
     74          1           0        4.640465   -3.437554   -4.518363
     75          1           0        3.542984   -4.694090   -0.745409
     76          1           0        3.008020   -4.609264   -2.492200
     77          1           0        1.733942   -2.559244   -1.161270
     78          1           0        1.785417   -3.840578    0.046045
     79          1           0        2.741472    3.066165   -5.540336
     80          1           0        4.148709    1.964154   -5.854066
     81          1           0        4.348938    3.565242   -6.055818
     82          1           0        6.663985    6.290935   -2.481426
     83          1           0        5.011128    6.949215   -2.015052
     84          1           0        5.768688    7.594428   -3.423482
     85          1           0        3.768086    5.494007    2.013404
     86          1           0        5.727356    4.206075    3.959366
     87          1           0        6.590762    6.023715    1.413904
     88          1           0        6.428907    6.277891    3.139560
     89          1           0        5.465506    7.157786    1.939768
     90          1           0        2.978015    3.245248    4.160090
     91          1           0        2.969962    4.913410    4.346061
     92          1           0        3.233658    3.500799    6.290567
     93          1           0        4.056306    5.092100    6.097065
     94          1           0        5.023779    3.602462    5.937952
     95          1           0        6.813379   -1.882663    5.225884
     96          1           0        5.308322   -1.189710    5.685700
     97          1           0        6.803383   -0.089625    5.439082
     98          1           0        4.358360   -4.197140    1.205197
     99          1           0        9.451571   -4.004454   -0.380690
    100          1           0        8.366150   -5.247977   -0.892348
    101          1           0        9.081711   -5.345379    0.767404
    102          1           0       -2.119041   -5.199656   -0.740811
    103          1           0       -2.084781   -4.117468   -2.218852
    104          1           0       -2.854168   -3.555070    0.640193
    105          1           0       -3.436476   -0.585722   -2.158005
    106          1           0       -4.629698   -1.701086   -2.585093
    107          1           0       -2.880216   -2.083499   -2.950622
    108          1           0       -3.464189   -0.399652    0.352611
    109          1           0       -4.006480   -1.764593    1.210538
    110          1           0       -6.193680   -1.507104   -0.562117
    111          1           0       -5.448850    0.026413   -0.588956
    112          1           0       -5.786127    0.513082    1.704220
    113          1           0       -6.338638   -1.193960    2.093091
    114          1           0       -7.921483    0.637910    0.293709
    115          1           0       -8.332432    1.935136    1.809903
    116          1           0       -7.527957    0.930486    3.160070
    117          1           0       -9.179242    0.620014    2.606459
    118          1           0       -8.996867   -1.552403    1.948844
    119          1           0       -8.184260   -2.004855    0.449058
    120          1           0       -9.718817   -1.412056   -1.017158
    121          1           0      -10.083713    0.154960   -0.301359
    122          1           0      -11.134252   -2.055482    1.252843
    123          1           0      -11.835030   -2.027790   -0.271676
    124          1           0      -11.798743    0.791766    0.614426
    125          1           0      -11.665957   -0.393661    2.885667
    126          1           0      -13.095050   -1.313101    2.448603
    127          1           0      -13.180678    0.478777    2.618091
    128          1           0      -14.316421   -0.833514    0.434133
    129          1           0      -13.463290   -0.788089   -1.045494
    130          1           0      -14.329055    1.104001   -1.474443
    131          1           0      -13.354724    1.973681   -0.179970
    132          1           0      -15.326720    2.104768    1.111802
    133          1           0      -15.590304    0.517279    0.956092
    134          1           0      -16.415958    1.375529   -1.612326
    135          1           0      -17.926494    3.382584   -0.251068
    136          1           0      -17.069193    3.359660   -1.811595
    137          1           0      -16.228049    3.782729   -0.323666
    138          1           0      -18.837416    1.438884   -0.455805
    139          1           0      -17.943652    0.358183    0.748743
    140          1           0      -17.970054   -0.044816   -0.913242
 ---------------------------------------------------------------------

 SCF Done:  E(RZINDO/S) =  -473.907098076     A.U. after   20 cycles

 Excitation energies and oscillator strengths:

 Excited State   1:      Singlet-A      1.2307 eV 1007.40 nm  f=0.6434  <S**2>=0.000
     175 ->178        -0.18174
     176 ->177         0.66529
 This state for optimization and/or second-order correction.
 Total Energy, E(CIS/TDA) =  -473.861869269
 Copying the excited state density for this state as the 1-particle RhoCI density.

 Excited State   2:      Singlet-A      1.9387 eV  639.53 nm  f=0.0751  <S**2>=0.000
     175 ->177         0.56163
     176 ->178         0.39981

 Excited State   3:      Singlet-A      2.8241 eV  439.01 nm  f=0.0013  <S**2>=0.000
     168 ->177         0.25378
     168 ->178        -0.17689
     168 ->179        -0.36069
     168 ->180         0.28844
     168 ->185        -0.24350
     169 ->179        -0.10311
     171 ->177         0.15747

 Excited State   4:      Singlet-A      2.9330 eV  422.71 nm  f=0.0031  <S**2>=0.000
     170 ->177        -0.28007
     170 ->179        -0.26595
     170 ->180        -0.25558
     170 ->185        -0.11718
     170 ->188         0.15781
     170 ->201         0.10179
     174 ->177         0.39766

 Excited State   5:      Singlet-A      3.0158 eV  411.12 nm  f=0.0530  <S**2>=0.000
     170 ->177         0.22146
     170 ->179         0.19082
     170 ->180         0.17828
     170 ->188        -0.10339
     171 ->177        -0.22427
     174 ->177         0.43436
     176 ->178         0.14050
     176 ->179        -0.20757

 The electronic state is 1-A.
 Alpha  occ. eigenvalues --   -1.83461  -1.80724  -1.77650  -1.73339  -1.72972
 Alpha  occ. eigenvalues --   -1.69882  -1.64552  -1.60434  -1.56899  -1.55879
 Alpha  occ. eigenvalues --   -1.54415  -1.51135  -1.50626  -1.47816  -1.47052
 Alpha  occ. eigenvalues --   -1.44977  -1.42778  -1.39000  -1.38211  -1.37802
 Alpha  occ. eigenvalues --   -1.35000  -1.34590  -1.32531  -1.30442  -1.29163
 Alpha  occ. eigenvalues --   -1.27909  -1.25866  -1.22284  -1.21416  -1.18783
 Alpha  occ. eigenvalues --   -1.16379  -1.15106  -1.15030  -1.13874  -1.13369
 Alpha  occ. eigenvalues --   -1.13001  -1.09812  -1.09307  -1.05566  -1.04340
 Alpha  occ. eigenvalues --   -1.03315  -1.01327  -1.00358  -0.98142  -0.96802
 Alpha  occ. eigenvalues --   -0.95890  -0.94371  -0.93902  -0.92915  -0.91759
 Alpha  occ. eigenvalues --   -0.90755  -0.90398  -0.89593  -0.88592  -0.87099
 Alpha  occ. eigenvalues --   -0.85965  -0.84558  -0.83316  -0.82312  -0.80736
 Alpha  occ. eigenvalues --   -0.80011  -0.78710  -0.78153  -0.77322  -0.76176
 Alpha  occ. eigenvalues --   -0.76026  -0.75704  -0.74834  -0.74269  -0.73329
 Alpha  occ. eigenvalues --   -0.72669  -0.72306  -0.71997  -0.71138  -0.71028
 Alpha  occ. eigenvalues --   -0.69921  -0.69352  -0.69016  -0.68190  -0.68109
 Alpha  occ. eigenvalues --   -0.67859  -0.66846  -0.66663  -0.66474  -0.66295
 Alpha  occ. eigenvalues --   -0.65766  -0.64922  -0.64567  -0.64441  -0.64264
 Alpha  occ. eigenvalues --   -0.64020  -0.63188  -0.62825  -0.62528  -0.62341
 Alpha  occ. eigenvalues --   -0.62085  -0.61551  -0.60810  -0.60556  -0.60234
 Alpha  occ. eigenvalues --   -0.59845  -0.59640  -0.59063  -0.58586  -0.58134
 Alpha  occ. eigenvalues --   -0.57784  -0.57660  -0.57071  -0.56593  -0.56418
 Alpha  occ. eigenvalues --   -0.56310  -0.56130  -0.55472  -0.55439  -0.55162
 Alpha  occ. eigenvalues --   -0.55101  -0.54346  -0.54140  -0.53933  -0.53461
 Alpha  occ. eigenvalues --   -0.53386  -0.52571  -0.52519  -0.52156  -0.51912
 Alpha  occ. eigenvalues --   -0.51688  -0.51560  -0.51317  -0.50997  -0.50846
 Alpha  occ. eigenvalues --   -0.50405  -0.50240  -0.49723  -0.49460  -0.49301
 Alpha  occ. eigenvalues --   -0.48793  -0.48671  -0.48525  -0.48178  -0.47876
 Alpha  occ. eigenvalues --   -0.47730  -0.47419  -0.47270  -0.47116  -0.46917
 Alpha  occ. eigenvalues --   -0.46160  -0.46048  -0.45943  -0.45256  -0.45078
 Alpha  occ. eigenvalues --   -0.45003  -0.44827  -0.44754  -0.44532  -0.44231
 Alpha  occ. eigenvalues --   -0.44040  -0.43681  -0.43107  -0.42872  -0.42300
 Alpha  occ. eigenvalues --   -0.41251  -0.41186  -0.40302  -0.39615  -0.38939
 Alpha  occ. eigenvalues --   -0.38344  -0.37237  -0.36133  -0.35424  -0.34636
 Alpha  occ. eigenvalues --   -0.33774  -0.33575  -0.32426  -0.32018  -0.27692
 Alpha  occ. eigenvalues --   -0.22727
 Alpha virt. eigenvalues --   -0.09763  -0.02761  -0.01214   0.00765   0.01149
 Alpha virt. eigenvalues --    0.01731   0.02072   0.02381   0.03916   0.04299
 Alpha virt. eigenvalues --    0.05318   0.05924   0.06270   0.06947   0.07248

 Mulliken charges:
               1
     1  Mg   0.432507
     2  C   -0.021307
     3  C   -0.082990
     4  C   -0.082001
     5  C   -0.061054
     6  N   -0.289332
     7  C    0.105753
     8  C    0.009814
     9  C    0.012022
    10  C    0.148827
    11  C   -0.047438
    12  C   -0.027769
    13  C   -0.005035
    14  C    0.462810
    15  O   -0.524627
    16  O   -0.255305
    17  N   -0.330375
    18  C    0.138040
    19  C    0.041910
    20  C   -0.030888
    21  C    0.125043
    22  C   -0.041442
    23  C    0.310931
    24  O   -0.532331
    25  C   -0.023231
    26  N   -0.269652
    27  C    0.141854
    28  C   -0.000077
    29  C    0.000756
    30  C    0.101056
    31  C   -0.056412
    32  C   -0.024559
    33  C   -0.051887
    34  N   -0.332565
    35  C    0.092045
    36  C    0.028828
    37  C   -0.077510
    38  C    0.122221
    39  C   -0.040922
    40  C    0.320827
    41  O   -0.536038
    42  C    0.047804
    43  C    0.491883
    44  O   -0.542146
    45  O   -0.252582
    46  C    0.076312
    47  C    0.115306
    48  C   -0.091264
    49  C   -0.001850
    50  C   -0.048629
    51  C   -0.022838
    52  C   -0.036210
    53  C   -0.025411
    54  C   -0.030211
    55  C   -0.060906
    56  C   -0.037965
    57  C   -0.034675
    58  C   -0.041519
    59  C   -0.015279
    60  C   -0.052725
    61  C   -0.041954
    62  C   -0.041027
    63  C   -0.034633
    64  C   -0.013681
    65  C   -0.058355
    66  C   -0.058072
    67  H    0.031640
    68  H    0.023501
    69  H    0.031946
    70  H    0.042139
    71  H    0.033751
    72  H    0.024611
    73  H    0.022146
    74  H    0.019258
    75  H    0.036190
    76  H    0.035073
    77  H    0.033212
    78  H    0.036444
    79  H    0.038740
    80  H    0.024332
    81  H    0.035393
    82  H    0.043697
    83  H    0.035154
    84  H    0.045112
    85  H    0.033773
    86  H    0.033174
    87  H    0.016142
    88  H    0.032874
    89  H    0.017995
    90  H    0.014896
    91  H    0.015933
    92  H    0.022966
    93  H    0.018265
    94  H    0.022785
    95  H    0.034777
    96  H    0.041057
    97  H    0.031506
    98  H    0.059183
    99  H    0.032023
   100  H    0.048275
   101  H    0.045378
   102  H    0.042325
   103  H    0.054508
   104  H    0.018980
   105  H    0.017140
   106  H    0.032339
   107  H    0.033556
   108  H    0.027070
   109  H    0.011726
   110  H    0.029008
   111  H    0.011477
   112  H    0.022535
   113  H    0.026499
   114  H    0.010313
   115  H    0.023341
   116  H    0.028001
   117  H    0.011602
   118  H    0.030702
   119  H    0.015292
   120  H    0.017621
   121  H    0.025241
   122  H    0.015583
   123  H    0.013819
   124  H    0.029749
   125  H    0.015922
   126  H    0.022833
   127  H    0.010698
   128  H    0.021732
   129  H    0.017323
   130  H    0.019976
   131  H    0.034730
   132  H    0.012265
   133  H    0.012536
   134  H    0.016839
   135  H    0.016848
   136  H    0.016265
   137  H    0.015625
   138  H    0.027364
   139  H    0.025608
   140  H    0.011799
 Sum of Mulliken charges =  -0.00000

 Dipole moment (field-independent basis, Debye):
    X=             -1.7626    Y=              8.9908    Z=              1.9724  Tot=              9.3718
 N-N= 4.238417148872D+03 E-N= 0.000000000000D+00  KE=-9.150009510584D+03
 Leave Link  601 at Fri Apr 29 17:11:32 2022, MaxMem=  6710886400 cpu:               0.8 elap:               0.0
 (Enter /sw/apps/gaussian-16.0/g16/l9999.exe)
 1\1\GINC-BP1-COMPUTE070\SP\RZINDO CIS\STO-3G\C55H74Mg1N4O6\OF15641\29-
 Apr-2022\0\\#p ZINDO=(nstates=5)\\step_401_chromophore_14 ZINDO\\0,1\M
 g,0,46.48,44.453,43.569\C,0,42.927,44.089,43.608\C,0,46.779,41.173,42.
 739\C,0,49.646,45.141,43.088\C,0,45.758,48.06,43.572\N,0,44.946,42.781
 ,43.338\C,0,43.569,42.932,43.304\C,0,42.987,41.489,42.947\C,0,44.207,4
 0.682,42.533\C,0,45.421,41.59,42.883\C,0,44.299,39.306,43.169\C,0,41.8
 46,41.451,41.873\C,0,42.087,41.984,40.4\C,0,41.699,41.175,39.062\O,0,4

 Normal termination of Gaussian 16 at Fri Apr 29 17:11:32 2022.
