 Gaussian 16, Revision A.03,
 Gaussian 16:  ES64L-G16RevA.03 25-Dec-2016

 ------------------------------
 #p blyp/Def2SVP td=(nstates=5)
 ------------------------------

 --------------------------------------------------
 step_1351_chromophore_1 TDDFT with blyp functional
 --------------------------------------------------
 Symbolic Z-matrix:
 Charge =  0 Multiplicity = 1

                         Standard orientation:
 ---------------------------------------------------------------------
 Center     Atomic      Atomic             Coordinates (Angstroms)
 Number     Number       Type             X           Y           Z
 ---------------------------------------------------------------------
      1         12           0        6.225173    0.288924    0.102781
      2          6           0        3.986684   -2.168278   -0.348497
      3          6           0        3.587368    2.582526   -0.758758
      4          6           0        8.440501    2.940602    0.052599
      5          6           0        8.793212   -1.762001    0.616892
      6          7           0        3.959039    0.291028   -0.327225
      7          6           0        3.343310   -0.932131   -0.586038
      8          6           0        1.945299   -0.686445   -1.174843
      9          6           0        1.915553    0.910427   -1.382664
     10          6           0        3.214497    1.291719   -0.785110
     11          6           0        1.796268    1.341816   -2.894879
     12          6           0        0.730465   -1.223843   -0.257667
     13          6           0       -0.671541   -0.630369   -0.354747
     14          6           0       -1.863333   -1.537896   -0.593762
     15          8           0       -2.486448   -1.629107   -1.680238
     16          8           0       -2.241779   -2.200180    0.579317
     17          7           0        6.012406    2.497396   -0.178829
     18          6           0        4.861001    3.226311   -0.595403
     19          6           0        5.166351    4.664383   -0.640487
     20          6           0        6.599550    4.803010   -0.294324
     21          6           0        7.091383    3.349159   -0.075876
     22          6           0        4.087786    5.701972   -1.010550
     23          6           0        7.467644    6.014260   -0.052420
     24          8           0        8.615609    5.914236    0.276868
     25          6           0        6.731596    7.440460   -0.206647
     26          7           0        8.334643    0.593587    0.210483
     27          6           0        9.014330    1.687031    0.108617
     28          6           0       10.484035    1.336691    0.147123
     29          6           0       10.569803   -0.080353    0.714916
     30          6           0        9.108327   -0.459037    0.494061
     31          6           0       11.007639    1.560722   -1.233774
     32          6           0       11.000050   -0.200731    2.240980
     33          6           0       10.028062    0.587567    3.197210
     34          7           0        6.438088   -1.658600    0.126176
     35          6           0        7.559171   -2.390143    0.387259
     36          6           0        7.157041   -3.790703    0.357432
     37          6           0        5.788822   -3.730108    0.073255
     38          6           0        5.358654   -2.399992   -0.040395
     39          6           0        8.022801   -5.016913    0.538215
     40          6           0        4.617578   -4.562456   -0.207259
     41          8           0        4.531340   -5.772064   -0.282622
     42          6           0        3.488789   -3.593025   -0.508547
     43          6           0        2.271713   -3.924782    0.262973
     44          8           0        1.911952   -3.522440    1.330938
     45          8           0        1.599499   -4.787125   -0.512134
     46          6           0        0.325704   -5.369376    0.000169
     47          6           0       -3.537465   -2.934604    0.458298
     48          6           0       -4.735875   -2.095031    0.097896
     49          6           0       -5.910539   -2.464958   -0.354250
     50          6           0       -6.295140   -3.886391   -0.713849
     51          6           0       -6.920449   -1.334041   -0.860058
     52          6           0       -8.170779   -1.055761    0.009919
     53          6           0       -8.157640    0.370167    0.498707
     54          6           0       -9.619475    0.949946    0.392303
     55          6           0      -10.098816    1.335517   -1.004701
     56          6           0       -9.789643    2.051462    1.471160
     57          6           0      -11.187049    2.707064    1.557250
     58          6           0      -11.964387    2.343537    2.815570
     59          6           0      -13.383920    1.854031    2.472698
     60          6           0      -14.138253    1.640775    3.847884
     61          6           0      -13.494295    0.546357    1.697346
     62          6           0      -14.657724    0.469479    0.693358
     63          6           0      -14.216164    0.151892   -0.815577
     64          6           0      -14.928979    1.071397   -1.855209
     65          6           0      -16.229571    0.448268   -2.449692
     66          6           0      -13.934088    1.392197   -2.885610
     67          1           0        2.721426    3.224937   -0.937382
     68          1           0        9.218109    3.705963    0.015257
     69          1           0        9.615453   -2.403765    0.940164
     70          1           0        1.812811   -1.148172   -2.153579
     71          1           0        1.128670    1.387399   -0.799540
     72          1           0        2.585877    1.900873   -3.395923
     73          1           0        0.902928    1.940936   -3.072959
     74          1           0        1.640425    0.484423   -3.550691
     75          1           0        1.036345   -1.197923    0.788157
     76          1           0        0.638157   -2.255152   -0.601009
     77          1           0       -0.788497    0.004663   -1.233266
     78          1           0       -0.851389   -0.079292    0.568115
     79          1           0        4.389437    6.533554   -1.646753
     80          1           0        3.684567    6.099082   -0.079033
     81          1           0        3.278891    5.152444   -1.491426
     82          1           0        6.896881    7.811813   -1.217298
     83          1           0        7.156284    8.059570    0.582537
     84          1           0        5.663598    7.410242    0.011602
     85          1           0       11.017917    1.986422    0.839430
     86          1           0       11.176140   -0.745910    0.101399
     87          1           0       11.664569    2.429974   -1.276452
     88          1           0       10.199655    1.745528   -1.941834
     89          1           0       11.549453    0.654497   -1.505993
     90          1           0       11.918883    0.386342    2.244426
     91          1           0       11.206006   -1.218605    2.571710
     92          1           0       10.512927    1.213628    3.947093
     93          1           0        9.419510   -0.104965    3.778211
     94          1           0        9.441155    1.321708    2.645407
     95          1           0        9.088163   -4.783091    0.547791
     96          1           0        7.878440   -5.698076   -0.300291
     97          1           0        7.704816   -5.464767    1.480074
     98          1           0        3.197352   -3.657152   -1.556722
     99          1           0        0.203952   -5.284002    1.079839
    100          1           0        0.235212   -6.379030   -0.399819
    101          1           0       -0.443692   -4.703654   -0.391179
    102          1           0       -3.661063   -3.514433    1.371785
    103          1           0       -3.298846   -3.670095   -0.310199
    104          1           0       -4.444008   -1.051829   -0.021464
    105          1           0       -5.486589   -4.614481   -0.639144
    106          1           0       -6.644887   -3.767838   -1.738665
    107          1           0       -7.149459   -4.212694   -0.120796
    108          1           0       -7.350687   -1.548572   -1.838183
    109          1           0       -6.314422   -0.438403   -0.999036
    110          1           0       -8.012732   -1.742251    0.841061
    111          1           0       -9.033364   -1.405408   -0.557529
    112          1           0       -7.496064    1.026738   -0.065762
    113          1           0       -7.907595    0.303662    1.557650
    114          1           0      -10.351105    0.238298    0.775366
    115          1           0       -9.717164    0.615126   -1.728082
    116          1           0       -9.823315    2.368383   -1.221254
    117          1           0      -11.182174    1.219677   -0.978471
    118          1           0       -9.115883    2.896839    1.332068
    119          1           0       -9.434582    1.632330    2.412273
    120          1           0      -11.712903    2.608036    0.607523
    121          1           0      -11.021793    3.779084    1.663364
    122          1           0      -12.055717    3.302341    3.324265
    123          1           0      -11.354642    1.718453    3.468194
    124          1           0      -13.917433    2.603337    1.888489
    125          1           0      -14.769444    0.753732    3.807846
    126          1           0      -14.868327    2.445102    3.937664
    127          1           0      -13.516523    1.641718    4.743784
    128          1           0      -13.564038   -0.303629    2.376048
    129          1           0      -12.522410    0.361569    1.238206
    130          1           0      -15.310528    1.341351    0.737344
    131          1           0      -15.353258   -0.336807    0.923860
    132          1           0      -14.685769   -0.824827   -0.934591
    133          1           0      -13.134498    0.032345   -0.857051
    134          1           0      -15.074316    2.020116   -1.339619
    135          1           0      -16.625005   -0.476124   -2.027239
    136          1           0      -16.105231    0.216912   -3.506793
    137          1           0      -16.986196    1.231766   -2.417202
    138          1           0      -13.454944    0.527425   -3.344570
    139          1           0      -13.107136    2.012128   -2.540025
    140          1           0      -14.424237    1.874699   -3.730809
 ---------------------------------------------------------------------

 SCF Done:  E(RB-LYP) =  -3007.35398478     A.U. after   22 cycles

 Excitation energies and oscillator strengths:

 Excited State   1:      Singlet-A      1.8467 eV  671.40 nm  f=0.2986  <S**2>=0.000
     245 -> 247        0.11907
     245 -> 248       -0.19390
     246 -> 247        0.67846
     246 <- 247       -0.14106
 This state for optimization and/or second-order correction.
 Total Energy, E(TD-HF/TD-DFT) =  -3007.28612156
 Copying the excited state density for this state as the 1-particle RhoCI density.

 Excited State   2:      Singlet-A      1.9279 eV  643.09 nm  f=0.0026  <S**2>=0.000
     244 -> 247        0.69865
     245 -> 247       -0.10157

 Excited State   3:      Singlet-A      1.9868 eV  624.04 nm  f=0.0894  <S**2>=0.000
     243 -> 247        0.30437
     244 -> 247        0.10085
     245 -> 247        0.58251
     246 -> 247       -0.11215
     246 -> 248        0.18482

 Excited State   4:      Singlet-A      2.0358 eV  609.02 nm  f=0.0247  <S**2>=0.000
     243 -> 247        0.63732
     245 -> 247       -0.27561
     246 -> 248       -0.10257

 Excited State   5:      Singlet-A      2.3363 eV  530.68 nm  f=0.0001  <S**2>=0.000
     241 -> 247        0.70293

 The electronic state is 1-A.
 Alpha  occ. eigenvalues --  -46.27453 -18.82361 -18.81708 -18.77267 -18.76268
 Alpha  occ. eigenvalues --  -18.76061 -18.75398 -14.03248 -14.02495 -14.01229
 Alpha  occ. eigenvalues --  -14.00576 -10.04556 -10.03155 -10.00114  -9.99198
 Alpha  occ. eigenvalues --   -9.98156  -9.97688  -9.97120  -9.96379  -9.96332
 Alpha  occ. eigenvalues --   -9.95601  -9.95553  -9.95350  -9.95210  -9.95149
 Alpha  occ. eigenvalues --   -9.94959  -9.94534  -9.94376  -9.94053  -9.93747
 Alpha  occ. eigenvalues --   -9.93568  -9.93449  -9.93412  -9.93408  -9.93405
 Alpha  occ. eigenvalues --   -9.93284  -9.93259  -9.92915  -9.92758  -9.92533
 Alpha  occ. eigenvalues --   -9.92403  -9.92308  -9.92249  -9.92105  -9.91954
 Alpha  occ. eigenvalues --   -9.91897  -9.91815  -9.91814  -9.91715  -9.91634
 Alpha  occ. eigenvalues --   -9.91534  -9.91489  -9.91343  -9.91243  -9.91158
 Alpha  occ. eigenvalues --   -9.91044  -9.91026  -9.91005  -9.90884  -9.90691
 Alpha  occ. eigenvalues --   -9.90515  -9.90457  -9.90403  -9.90357  -9.90248
 Alpha  occ. eigenvalues --   -9.90232  -2.92051  -1.72486  -1.71937  -1.71759
 Alpha  occ. eigenvalues --   -0.98412  -0.96487  -0.92911  -0.91479  -0.90320
 Alpha  occ. eigenvalues --   -0.88772  -0.88575  -0.87043  -0.86167  -0.82760
 Alpha  occ. eigenvalues --   -0.76016  -0.73392  -0.72831  -0.72812  -0.72361
 Alpha  occ. eigenvalues --   -0.72189  -0.71917  -0.71581  -0.71086  -0.69824
 Alpha  occ. eigenvalues --   -0.69346  -0.68849  -0.68181  -0.67925  -0.67133
 Alpha  occ. eigenvalues --   -0.66368  -0.65986  -0.65144  -0.64621  -0.63852
 Alpha  occ. eigenvalues --   -0.63650  -0.62482  -0.62225  -0.61479  -0.60709
 Alpha  occ. eigenvalues --   -0.60454  -0.60345  -0.60126  -0.59512  -0.58812
 Alpha  occ. eigenvalues --   -0.58476  -0.58007  -0.57276  -0.56086  -0.55448
 Alpha  occ. eigenvalues --   -0.54172  -0.53675  -0.52807  -0.52238  -0.51717
 Alpha  occ. eigenvalues --   -0.51447  -0.50827  -0.50520  -0.50281  -0.49706
 Alpha  occ. eigenvalues --   -0.48895  -0.48629  -0.48276  -0.48162  -0.46703
 Alpha  occ. eigenvalues --   -0.46511  -0.45995  -0.45819  -0.45422  -0.44640
 Alpha  occ. eigenvalues --   -0.44102  -0.43874  -0.43067  -0.42941  -0.42497
 Alpha  occ. eigenvalues --   -0.42109  -0.42035  -0.41579  -0.41189  -0.41112
 Alpha  occ. eigenvalues --   -0.41000  -0.40909  -0.40278  -0.39927  -0.39893
 Alpha  occ. eigenvalues --   -0.39713  -0.39587  -0.38993  -0.38896  -0.38811
 Alpha  occ. eigenvalues --   -0.38777  -0.38682  -0.38484  -0.38096  -0.38055
 Alpha  occ. eigenvalues --   -0.37809  -0.37660  -0.37552  -0.37352  -0.37285
 Alpha  occ. eigenvalues --   -0.37033  -0.36872  -0.36740  -0.36626  -0.36388
 Alpha  occ. eigenvalues --   -0.36263  -0.36032  -0.35948  -0.35848  -0.35733
 Alpha  occ. eigenvalues --   -0.35392  -0.35209  -0.35102  -0.34903  -0.34708
 Alpha  occ. eigenvalues --   -0.34394  -0.34265  -0.34116  -0.33929  -0.33793
 Alpha  occ. eigenvalues --   -0.33778  -0.33587  -0.33478  -0.33388  -0.32933
 Alpha  occ. eigenvalues --   -0.32824  -0.32778  -0.32448  -0.32416  -0.32156
 Alpha  occ. eigenvalues --   -0.32015  -0.31928  -0.31779  -0.31607  -0.31421
 Alpha  occ. eigenvalues --   -0.31222  -0.31114  -0.30859  -0.30837  -0.30750
 Alpha  occ. eigenvalues --   -0.30625  -0.30479  -0.30294  -0.30091  -0.29933
 Alpha  occ. eigenvalues --   -0.29882  -0.29673  -0.29580  -0.29448  -0.29261
 Alpha  occ. eigenvalues --   -0.28828  -0.28821  -0.28404  -0.27827  -0.27633
 Alpha  occ. eigenvalues --   -0.27592  -0.27374  -0.26801  -0.26466  -0.26393
 Alpha  occ. eigenvalues --   -0.26208  -0.25975  -0.25358  -0.25231  -0.24952
 Alpha  occ. eigenvalues --   -0.24901  -0.24144  -0.23811  -0.23737  -0.23279
 Alpha  occ. eigenvalues --   -0.23172  -0.22376  -0.22194  -0.21720  -0.20680
 Alpha  occ. eigenvalues --   -0.20191  -0.20106  -0.18942  -0.18605  -0.17157
 Alpha  occ. eigenvalues --   -0.16055
 Alpha virt. eigenvalues --   -0.11605  -0.06571  -0.06087  -0.04246  -0.04110
 Alpha virt. eigenvalues --   -0.01643  -0.01268  -0.00993  -0.00826   0.00237
 Alpha virt. eigenvalues --    0.01042   0.01880   0.02217   0.02552   0.02895

 Mulliken charges:
               1
     1  Mg   0.686604
     2  C    0.085743
     3  C   -0.040905
     4  C   -0.024912
     5  C   -0.096830
     6  N   -0.177863
     7  C   -0.068180
     8  C    0.003782
     9  C    0.020966
    10  C   -0.019065
    11  C    0.106000
    12  C    0.083878
    13  C    0.179272
    14  C    0.064317
    15  O   -0.214978
    16  O   -0.292994
    17  N   -0.268969
    18  C    0.120122
    19  C   -0.120299
    20  C   -0.001953
    21  C    0.106414
    22  C    0.156684
    23  C   -0.068712
    24  O   -0.132599
    25  C    0.084460
    26  N   -0.149717
    27  C   -0.050643
    28  C    0.024484
    29  C    0.011634
    30  C    0.038214
    31  C    0.161833
    32  C    0.107748
    33  C    0.041238
    34  N   -0.322464
    35  C    0.124941
    36  C   -0.181749
    37  C    0.075343
    38  C    0.037484
    39  C    0.178347
    40  C   -0.040699
    41  O   -0.114166
    42  C    0.048679
    43  C    0.077808
    44  O   -0.154884
    45  O   -0.269757
    46  C    0.209355
    47  C    0.300986
    48  C   -0.078756
    49  C   -0.143402
    50  C    0.156813
    51  C    0.074025
    52  C    0.095540
    53  C    0.135110
    54  C   -0.118648
    55  C    0.126789
    56  C    0.072115
    57  C    0.084013
    58  C    0.129744
    59  C   -0.086787
    60  C    0.109248
    61  C    0.139737
    62  C    0.053958
    63  C    0.080422
    64  C   -0.053618
    65  C    0.112626
    66  C    0.090445
    67  H   -0.069475
    68  H   -0.050768
    69  H   -0.070210
    70  H   -0.022097
    71  H   -0.007956
    72  H    0.002176
    73  H   -0.013335
    74  H   -0.014444
    75  H    0.005481
    76  H    0.008111
    77  H   -0.010877
    78  H   -0.000936
    79  H    0.010585
    80  H    0.013822
    81  H   -0.009970
    82  H    0.021050
    83  H   -0.001865
    84  H   -0.017673
    85  H   -0.038373
    86  H   -0.039749
    87  H   -0.000830
    88  H    0.001383
    89  H   -0.019564
    90  H   -0.021936
    91  H   -0.008024
    92  H   -0.014547
    93  H   -0.001305
    94  H    0.010226
    95  H   -0.021164
    96  H    0.011208
    97  H    0.015051
    98  H    0.004884
    99  H    0.025021
   100  H    0.032434
   101  H    0.006811
   102  H    0.003848
   103  H   -0.001288
   104  H   -0.024150
   105  H   -0.012492
   106  H   -0.001208
   107  H   -0.006229
   108  H   -0.033632
   109  H   -0.027685
   110  H   -0.033016
   111  H   -0.021884
   112  H   -0.021397
   113  H   -0.035302
   114  H   -0.028086
   115  H   -0.023404
   116  H   -0.011692
   117  H    0.005576
   118  H   -0.051333
   119  H   -0.044682
   120  H   -0.034658
   121  H   -0.051936
   122  H   -0.041207
   123  H   -0.031814
   124  H   -0.035729
   125  H   -0.025752
   126  H   -0.029576
   127  H   -0.009376
   128  H   -0.043915
   129  H   -0.058107
   130  H   -0.032704
   131  H   -0.040815
   132  H   -0.043896
   133  H   -0.020754
   134  H   -0.029755
   135  H   -0.009592
   136  H   -0.023189
   137  H   -0.011992
   138  H   -0.028159
   139  H   -0.011027
   140  H   -0.034513
 Sum of Mulliken charges =  -0.00000

 Dipole moment (field-independent basis, Debye):
    X=             -1.6649    Y=              1.5488    Z=             -0.7661  Tot=              2.3995
 Quadrupole moment (field-independent basis, Debye-Ang):
   XX=           -374.9772   YY=           -419.4390   ZZ=           -409.2365
   XY=             -2.7651   XZ=             -0.2258   YZ=             -6.0251

 Normal termination of Gaussian 16 at Wed Apr 27 22:56:23 2022.
