 Gaussian 16, Revision A.03,
 Gaussian 16:  ES64L-G16RevA.03 25-Dec-2016

 -----------------------------------
 #p cam-b3lyp/Def2SVP td=(nstates=5)
 -----------------------------------

 -------------------------------------------------------
 step_1351_chromophore_1 TDDFT with cam-b3lyp functional
 -------------------------------------------------------
 Symbolic Z-matrix:
 Charge =  0 Multiplicity = 1

                         Standard orientation:
 ---------------------------------------------------------------------
 Center     Atomic      Atomic             Coordinates (Angstroms)
 Number     Number       Type             X           Y           Z
 ---------------------------------------------------------------------
      1         12           0        6.225173    0.288924    0.102781
      2          6           0        3.986684   -2.168278   -0.348497
      3          6           0        3.587368    2.582526   -0.758758
      4          6           0        8.440501    2.940602    0.052599
      5          6           0        8.793212   -1.762001    0.616892
      6          7           0        3.959039    0.291028   -0.327225
      7          6           0        3.343310   -0.932131   -0.586038
      8          6           0        1.945299   -0.686445   -1.174843
      9          6           0        1.915553    0.910427   -1.382664
     10          6           0        3.214497    1.291719   -0.785110
     11          6           0        1.796268    1.341816   -2.894879
     12          6           0        0.730465   -1.223843   -0.257667
     13          6           0       -0.671541   -0.630369   -0.354747
     14          6           0       -1.863333   -1.537896   -0.593762
     15          8           0       -2.486448   -1.629107   -1.680238
     16          8           0       -2.241779   -2.200180    0.579317
     17          7           0        6.012406    2.497396   -0.178829
     18          6           0        4.861001    3.226311   -0.595403
     19          6           0        5.166351    4.664383   -0.640487
     20          6           0        6.599550    4.803010   -0.294324
     21          6           0        7.091383    3.349159   -0.075876
     22          6           0        4.087786    5.701972   -1.010550
     23          6           0        7.467644    6.014260   -0.052420
     24          8           0        8.615609    5.914236    0.276868
     25          6           0        6.731596    7.440460   -0.206647
     26          7           0        8.334643    0.593587    0.210483
     27          6           0        9.014330    1.687031    0.108617
     28          6           0       10.484035    1.336691    0.147123
     29          6           0       10.569803   -0.080353    0.714916
     30          6           0        9.108327   -0.459037    0.494061
     31          6           0       11.007639    1.560722   -1.233774
     32          6           0       11.000050   -0.200731    2.240980
     33          6           0       10.028062    0.587567    3.197210
     34          7           0        6.438088   -1.658600    0.126176
     35          6           0        7.559171   -2.390143    0.387259
     36          6           0        7.157041   -3.790703    0.357432
     37          6           0        5.788822   -3.730108    0.073255
     38          6           0        5.358654   -2.399992   -0.040395
     39          6           0        8.022801   -5.016913    0.538215
     40          6           0        4.617578   -4.562456   -0.207259
     41          8           0        4.531340   -5.772064   -0.282622
     42          6           0        3.488789   -3.593025   -0.508547
     43          6           0        2.271713   -3.924782    0.262973
     44          8           0        1.911952   -3.522440    1.330938
     45          8           0        1.599499   -4.787125   -0.512134
     46          6           0        0.325704   -5.369376    0.000169
     47          6           0       -3.537465   -2.934604    0.458298
     48          6           0       -4.735875   -2.095031    0.097896
     49          6           0       -5.910539   -2.464958   -0.354250
     50          6           0       -6.295140   -3.886391   -0.713849
     51          6           0       -6.920449   -1.334041   -0.860058
     52          6           0       -8.170779   -1.055761    0.009919
     53          6           0       -8.157640    0.370167    0.498707
     54          6           0       -9.619475    0.949946    0.392303
     55          6           0      -10.098816    1.335517   -1.004701
     56          6           0       -9.789643    2.051462    1.471160
     57          6           0      -11.187049    2.707064    1.557250
     58          6           0      -11.964387    2.343537    2.815570
     59          6           0      -13.383920    1.854031    2.472698
     60          6           0      -14.138253    1.640775    3.847884
     61          6           0      -13.494295    0.546357    1.697346
     62          6           0      -14.657724    0.469479    0.693358
     63          6           0      -14.216164    0.151892   -0.815577
     64          6           0      -14.928979    1.071397   -1.855209
     65          6           0      -16.229571    0.448268   -2.449692
     66          6           0      -13.934088    1.392197   -2.885610
     67          1           0        2.721426    3.224937   -0.937382
     68          1           0        9.218109    3.705963    0.015257
     69          1           0        9.615453   -2.403765    0.940164
     70          1           0        1.812811   -1.148172   -2.153579
     71          1           0        1.128670    1.387399   -0.799540
     72          1           0        2.585877    1.900873   -3.395923
     73          1           0        0.902928    1.940936   -3.072959
     74          1           0        1.640425    0.484423   -3.550691
     75          1           0        1.036345   -1.197923    0.788157
     76          1           0        0.638157   -2.255152   -0.601009
     77          1           0       -0.788497    0.004663   -1.233266
     78          1           0       -0.851389   -0.079292    0.568115
     79          1           0        4.389437    6.533554   -1.646753
     80          1           0        3.684567    6.099082   -0.079033
     81          1           0        3.278891    5.152444   -1.491426
     82          1           0        6.896881    7.811813   -1.217298
     83          1           0        7.156284    8.059570    0.582537
     84          1           0        5.663598    7.410242    0.011602
     85          1           0       11.017917    1.986422    0.839430
     86          1           0       11.176140   -0.745910    0.101399
     87          1           0       11.664569    2.429974   -1.276452
     88          1           0       10.199655    1.745528   -1.941834
     89          1           0       11.549453    0.654497   -1.505993
     90          1           0       11.918883    0.386342    2.244426
     91          1           0       11.206006   -1.218605    2.571710
     92          1           0       10.512927    1.213628    3.947093
     93          1           0        9.419510   -0.104965    3.778211
     94          1           0        9.441155    1.321708    2.645407
     95          1           0        9.088163   -4.783091    0.547791
     96          1           0        7.878440   -5.698076   -0.300291
     97          1           0        7.704816   -5.464767    1.480074
     98          1           0        3.197352   -3.657152   -1.556722
     99          1           0        0.203952   -5.284002    1.079839
    100          1           0        0.235212   -6.379030   -0.399819
    101          1           0       -0.443692   -4.703654   -0.391179
    102          1           0       -3.661063   -3.514433    1.371785
    103          1           0       -3.298846   -3.670095   -0.310199
    104          1           0       -4.444008   -1.051829   -0.021464
    105          1           0       -5.486589   -4.614481   -0.639144
    106          1           0       -6.644887   -3.767838   -1.738665
    107          1           0       -7.149459   -4.212694   -0.120796
    108          1           0       -7.350687   -1.548572   -1.838183
    109          1           0       -6.314422   -0.438403   -0.999036
    110          1           0       -8.012732   -1.742251    0.841061
    111          1           0       -9.033364   -1.405408   -0.557529
    112          1           0       -7.496064    1.026738   -0.065762
    113          1           0       -7.907595    0.303662    1.557650
    114          1           0      -10.351105    0.238298    0.775366
    115          1           0       -9.717164    0.615126   -1.728082
    116          1           0       -9.823315    2.368383   -1.221254
    117          1           0      -11.182174    1.219677   -0.978471
    118          1           0       -9.115883    2.896839    1.332068
    119          1           0       -9.434582    1.632330    2.412273
    120          1           0      -11.712903    2.608036    0.607523
    121          1           0      -11.021793    3.779084    1.663364
    122          1           0      -12.055717    3.302341    3.324265
    123          1           0      -11.354642    1.718453    3.468194
    124          1           0      -13.917433    2.603337    1.888489
    125          1           0      -14.769444    0.753732    3.807846
    126          1           0      -14.868327    2.445102    3.937664
    127          1           0      -13.516523    1.641718    4.743784
    128          1           0      -13.564038   -0.303629    2.376048
    129          1           0      -12.522410    0.361569    1.238206
    130          1           0      -15.310528    1.341351    0.737344
    131          1           0      -15.353258   -0.336807    0.923860
    132          1           0      -14.685769   -0.824827   -0.934591
    133          1           0      -13.134498    0.032345   -0.857051
    134          1           0      -15.074316    2.020116   -1.339619
    135          1           0      -16.625005   -0.476124   -2.027239
    136          1           0      -16.105231    0.216912   -3.506793
    137          1           0      -16.986196    1.231766   -2.417202
    138          1           0      -13.454944    0.527425   -3.344570
    139          1           0      -13.107136    2.012128   -2.540025
    140          1           0      -14.424237    1.874699   -3.730809
 ---------------------------------------------------------------------

 SCF Done:  E(RCAM-B3LYP) =  -3007.15441090     A.U. after   17 cycles

 Excitation energies and oscillator strengths:

 Excited State   1:      Singlet-A      1.7807 eV  696.26 nm  f=0.3978  <S**2>=0.000
     245 -> 248        0.18021
     246 -> 247        0.68505
     245 <- 248        0.10442
 This state for optimization and/or second-order correction.
 Total Energy, E(TD-HF/TD-DFT) =  -3007.08897108
 Copying the excited state density for this state as the 1-particle RhoCI density.

 Excited State   2:      Singlet-A      2.2105 eV  560.88 nm  f=0.1437  <S**2>=0.000
     245 -> 247        0.65280
     246 -> 248       -0.25228

 Excited State   3:      Singlet-A      3.2759 eV  378.48 nm  f=0.0066  <S**2>=0.000
     243 -> 247       -0.36306
     244 -> 247        0.57327
     246 -> 248       -0.15118

 Excited State   4:      Singlet-A      3.5181 eV  352.42 nm  f=0.0072  <S**2>=0.000
     239 -> 247        0.15126
     240 -> 247        0.57953
     240 -> 248       -0.10023
     240 -> 249        0.27167
     240 -> 250       -0.14850

 Excited State   5:      Singlet-A      3.6019 eV  344.22 nm  f=0.1026  <S**2>=0.000
     243 -> 247        0.44404
     244 -> 247        0.37683
     245 -> 247        0.10564
     246 -> 248        0.35544

 The electronic state is 1-A.
 Alpha  occ. eigenvalues --  -46.88978 -19.25238 -19.24520 -19.20302 -19.19684
 Alpha  occ. eigenvalues --  -19.19213 -19.18290 -14.42139 -14.41140 -14.39858
 Alpha  occ. eigenvalues --  -14.38736 -10.39978 -10.38377 -10.35782 -10.34182
 Alpha  occ. eigenvalues --  -10.32231 -10.31667 -10.31418 -10.31280 -10.31240
 Alpha  occ. eigenvalues --  -10.30433 -10.30161 -10.30145 -10.29160 -10.29054
 Alpha  occ. eigenvalues --  -10.29052 -10.28616 -10.28364 -10.28279 -10.28205
 Alpha  occ. eigenvalues --  -10.27869 -10.27722 -10.27328 -10.27293 -10.27233
 Alpha  occ. eigenvalues --  -10.27162 -10.27065 -10.26735 -10.26664 -10.26581
 Alpha  occ. eigenvalues --  -10.26550 -10.26367 -10.25885 -10.25861 -10.25768
 Alpha  occ. eigenvalues --  -10.25748 -10.25554 -10.25544 -10.25358 -10.25325
 Alpha  occ. eigenvalues --  -10.25321 -10.25301 -10.25236 -10.24836 -10.24826
 Alpha  occ. eigenvalues --  -10.24686 -10.24685 -10.24642 -10.24589 -10.24341
 Alpha  occ. eigenvalues --  -10.24152 -10.24122 -10.24092 -10.24018 -10.23848
 Alpha  occ. eigenvalues --  -10.23792  -3.17481  -1.92391  -1.91931  -1.91783
 Alpha  occ. eigenvalues --   -1.16905  -1.14885  -1.11773  -1.09617  -1.08156
 Alpha  occ. eigenvalues --   -1.06591  -1.06288  -1.04481  -1.03761  -1.00490
 Alpha  occ. eigenvalues --   -0.92989  -0.90274  -0.89634  -0.89432  -0.89097
 Alpha  occ. eigenvalues --   -0.88800  -0.88617  -0.88242  -0.87703  -0.86465
 Alpha  occ. eigenvalues --   -0.85692  -0.85362  -0.84486  -0.83973  -0.83273
 Alpha  occ. eigenvalues --   -0.82413  -0.81844  -0.81178  -0.80479  -0.79829
 Alpha  occ. eigenvalues --   -0.79585  -0.78013  -0.77842  -0.77341  -0.76051
 Alpha  occ. eigenvalues --   -0.75824  -0.75693  -0.75370  -0.74773  -0.74055
 Alpha  occ. eigenvalues --   -0.73560  -0.72990  -0.72232  -0.70924  -0.70005
 Alpha  occ. eigenvalues --   -0.68663  -0.68254  -0.67386  -0.66647  -0.65811
 Alpha  occ. eigenvalues --   -0.65488  -0.65014  -0.64742  -0.64148  -0.63715
 Alpha  occ. eigenvalues --   -0.62826  -0.62390  -0.62012  -0.61881  -0.60270
 Alpha  occ. eigenvalues --   -0.60138  -0.59553  -0.59400  -0.58748  -0.58166
 Alpha  occ. eigenvalues --   -0.57509  -0.57181  -0.56135  -0.55957  -0.55417
 Alpha  occ. eigenvalues --   -0.55167  -0.54979  -0.54761  -0.54488  -0.54177
 Alpha  occ. eigenvalues --   -0.53848  -0.53675  -0.52897  -0.52835  -0.52668
 Alpha  occ. eigenvalues --   -0.52452  -0.52084  -0.51935  -0.51891  -0.51591
 Alpha  occ. eigenvalues --   -0.51374  -0.51251  -0.50885  -0.50433  -0.50368
 Alpha  occ. eigenvalues --   -0.50035  -0.49966  -0.49864  -0.49825  -0.49699
 Alpha  occ. eigenvalues --   -0.49651  -0.49289  -0.49108  -0.49002  -0.48697
 Alpha  occ. eigenvalues --   -0.48519  -0.48262  -0.48207  -0.47952  -0.47851
 Alpha  occ. eigenvalues --   -0.47719  -0.47198  -0.47092  -0.46869  -0.46757
 Alpha  occ. eigenvalues --   -0.46287  -0.46039  -0.45982  -0.45741  -0.45654
 Alpha  occ. eigenvalues --   -0.45508  -0.45245  -0.45200  -0.45150  -0.44828
 Alpha  occ. eigenvalues --   -0.44458  -0.44418  -0.44123  -0.44023  -0.43932
 Alpha  occ. eigenvalues --   -0.43677  -0.43534  -0.43451  -0.43374  -0.43011
 Alpha  occ. eigenvalues --   -0.42770  -0.42676  -0.42394  -0.42218  -0.42106
 Alpha  occ. eigenvalues --   -0.42070  -0.41830  -0.41719  -0.41399  -0.41241
 Alpha  occ. eigenvalues --   -0.41158  -0.40968  -0.40752  -0.40729  -0.40536
 Alpha  occ. eigenvalues --   -0.40010  -0.39776  -0.39451  -0.38760  -0.38614
 Alpha  occ. eigenvalues --   -0.38557  -0.38337  -0.37588  -0.37310  -0.37214
 Alpha  occ. eigenvalues --   -0.37147  -0.36809  -0.36413  -0.36387  -0.36211
 Alpha  occ. eigenvalues --   -0.35706  -0.34622  -0.34377  -0.34314  -0.34283
 Alpha  occ. eigenvalues --   -0.34021  -0.33642  -0.32992  -0.31298  -0.31137
 Alpha  occ. eigenvalues --   -0.30405  -0.30021  -0.29786  -0.29555  -0.23884
 Alpha  occ. eigenvalues --   -0.21419
 Alpha virt. eigenvalues --   -0.08709  -0.01312   0.00374   0.02717   0.03520
 Alpha virt. eigenvalues --    0.03656   0.05340   0.06353   0.06491   0.06764
 Alpha virt. eigenvalues --    0.08332   0.08414   0.08490   0.09152   0.09277

 Mulliken charges:
               1
     1  Mg   0.819733
     2  C    0.063008
     3  C   -0.064419
     4  C   -0.051015
     5  C   -0.095751
     6  N   -0.245485
     7  C   -0.034345
     8  C   -0.030120
     9  C   -0.042495
    10  C    0.010521
    11  C    0.047623
    12  C    0.032311
    13  C    0.106353
    14  C    0.145307
    15  O   -0.255366
    16  O   -0.356223
    17  N   -0.352399
    18  C    0.135718
    19  C   -0.125485
    20  C   -0.062018
    21  C    0.139707
    22  C    0.098822
    23  C    0.005385
    24  O   -0.171494
    25  C    0.014492
    26  N   -0.224906
    27  C   -0.032297
    28  C   -0.033796
    29  C   -0.040903
    30  C    0.044876
    31  C    0.101910
    32  C    0.056488
    33  C   -0.020632
    34  N   -0.417409
    35  C    0.123665
    36  C   -0.183238
    37  C   -0.002906
    38  C    0.069351
    39  C    0.132337
    40  C    0.058963
    41  O   -0.154621
    42  C   -0.031611
    43  C    0.160681
    44  O   -0.193259
    45  O   -0.332765
    46  C    0.176758
    47  C    0.272184
    48  C   -0.102988
    49  C   -0.165611
    50  C    0.096311
    51  C    0.023990
    52  C    0.037208
    53  C    0.080152
    54  C   -0.173297
    55  C    0.076982
    56  C    0.026014
    57  C    0.023263
    58  C    0.076500
    59  C   -0.142911
    60  C    0.051167
    61  C    0.084939
    62  C    0.004639
    63  C    0.026601
    64  C   -0.111168
    65  C    0.048523
    66  C    0.031250
    67  H   -0.034550
    68  H   -0.010687
    69  H   -0.035336
    70  H    0.012192
    71  H    0.025591
    72  H    0.028668
    73  H    0.011178
    74  H    0.011828
    75  H    0.039414
    76  H    0.031350
    77  H    0.020625
    78  H    0.032729
    79  H    0.038116
    80  H    0.041758
    81  H    0.018380
    82  H    0.049246
    83  H    0.031064
    84  H    0.011610
    85  H   -0.001085
    86  H   -0.002289
    87  H    0.023736
    88  H    0.027608
    89  H    0.006435
    90  H    0.005663
    91  H    0.019289
    92  H    0.010571
    93  H    0.022846
    94  H    0.028887
    95  H    0.001955
    96  H    0.035476
    97  H    0.038733
    98  H    0.048636
    99  H    0.050985
   100  H    0.055269
   101  H    0.023039
   102  H    0.033323
   103  H    0.025990
   104  H    0.006470
   105  H    0.011678
   106  H    0.022277
   107  H    0.017403
   108  H   -0.004045
   109  H    0.001492
   110  H   -0.003065
   111  H    0.005520
   112  H    0.006041
   113  H   -0.004366
   114  H   -0.000219
   115  H    0.000781
   116  H    0.012421
   117  H    0.014896
   118  H   -0.022131
   119  H   -0.015926
   120  H   -0.007627
   121  H   -0.018573
   122  H   -0.009862
   123  H   -0.003190
   124  H   -0.004276
   125  H   -0.001324
   126  H   -0.004799
   127  H    0.014546
   128  H   -0.012371
   129  H   -0.035863
   130  H   -0.006400
   131  H   -0.011303
   132  H   -0.013752
   133  H    0.004753
   134  H    0.000708
   135  H    0.014373
   136  H    0.002211
   137  H    0.012229
   138  H   -0.003611
   139  H    0.011696
   140  H   -0.007836
 Sum of Mulliken charges =  -0.00000

 Dipole moment (field-independent basis, Debye):
    X=             -1.8558    Y=              3.0178    Z=             -0.9738  Tot=              3.6741
 Quadrupole moment (field-independent basis, Debye-Ang):
   XX=           -376.1761   YY=           -412.5959   ZZ=           -409.4409
   XY=              5.5401   XZ=             -1.0541   YZ=             -6.8418

 Normal termination of Gaussian 16 at Wed Apr 27 21:57:23 2022.
