 Gaussian 16, Revision A.03,
 Gaussian 16:  ES64L-G16RevA.03 25-Dec-2016

 ---------------------------------
 #p PBE1PBE/Def2SVP td=(nstates=5)
 ---------------------------------

 -----------------------------------------------------
 step_1351_chromophore_1 TDDFT with PBE1PBE functional
 -----------------------------------------------------
 Symbolic Z-matrix:
 Charge =  0 Multiplicity = 1

                         Standard orientation:
 ---------------------------------------------------------------------
 Center     Atomic      Atomic             Coordinates (Angstroms)
 Number     Number       Type             X           Y           Z
 ---------------------------------------------------------------------
      1         12           0        6.225173    0.288924    0.102781
      2          6           0        3.986684   -2.168278   -0.348497
      3          6           0        3.587368    2.582526   -0.758758
      4          6           0        8.440501    2.940602    0.052599
      5          6           0        8.793212   -1.762001    0.616892
      6          7           0        3.959039    0.291028   -0.327225
      7          6           0        3.343310   -0.932131   -0.586038
      8          6           0        1.945299   -0.686445   -1.174843
      9          6           0        1.915553    0.910427   -1.382664
     10          6           0        3.214497    1.291719   -0.785110
     11          6           0        1.796268    1.341816   -2.894879
     12          6           0        0.730465   -1.223843   -0.257667
     13          6           0       -0.671541   -0.630369   -0.354747
     14          6           0       -1.863333   -1.537896   -0.593762
     15          8           0       -2.486448   -1.629107   -1.680238
     16          8           0       -2.241779   -2.200180    0.579317
     17          7           0        6.012406    2.497396   -0.178829
     18          6           0        4.861001    3.226311   -0.595403
     19          6           0        5.166351    4.664383   -0.640487
     20          6           0        6.599550    4.803010   -0.294324
     21          6           0        7.091383    3.349159   -0.075876
     22          6           0        4.087786    5.701972   -1.010550
     23          6           0        7.467644    6.014260   -0.052420
     24          8           0        8.615609    5.914236    0.276868
     25          6           0        6.731596    7.440460   -0.206647
     26          7           0        8.334643    0.593587    0.210483
     27          6           0        9.014330    1.687031    0.108617
     28          6           0       10.484035    1.336691    0.147123
     29          6           0       10.569803   -0.080353    0.714916
     30          6           0        9.108327   -0.459037    0.494061
     31          6           0       11.007639    1.560722   -1.233774
     32          6           0       11.000050   -0.200731    2.240980
     33          6           0       10.028062    0.587567    3.197210
     34          7           0        6.438088   -1.658600    0.126176
     35          6           0        7.559171   -2.390143    0.387259
     36          6           0        7.157041   -3.790703    0.357432
     37          6           0        5.788822   -3.730108    0.073255
     38          6           0        5.358654   -2.399992   -0.040395
     39          6           0        8.022801   -5.016913    0.538215
     40          6           0        4.617578   -4.562456   -0.207259
     41          8           0        4.531340   -5.772064   -0.282622
     42          6           0        3.488789   -3.593025   -0.508547
     43          6           0        2.271713   -3.924782    0.262973
     44          8           0        1.911952   -3.522440    1.330938
     45          8           0        1.599499   -4.787125   -0.512134
     46          6           0        0.325704   -5.369376    0.000169
     47          6           0       -3.537465   -2.934604    0.458298
     48          6           0       -4.735875   -2.095031    0.097896
     49          6           0       -5.910539   -2.464958   -0.354250
     50          6           0       -6.295140   -3.886391   -0.713849
     51          6           0       -6.920449   -1.334041   -0.860058
     52          6           0       -8.170779   -1.055761    0.009919
     53          6           0       -8.157640    0.370167    0.498707
     54          6           0       -9.619475    0.949946    0.392303
     55          6           0      -10.098816    1.335517   -1.004701
     56          6           0       -9.789643    2.051462    1.471160
     57          6           0      -11.187049    2.707064    1.557250
     58          6           0      -11.964387    2.343537    2.815570
     59          6           0      -13.383920    1.854031    2.472698
     60          6           0      -14.138253    1.640775    3.847884
     61          6           0      -13.494295    0.546357    1.697346
     62          6           0      -14.657724    0.469479    0.693358
     63          6           0      -14.216164    0.151892   -0.815577
     64          6           0      -14.928979    1.071397   -1.855209
     65          6           0      -16.229571    0.448268   -2.449692
     66          6           0      -13.934088    1.392197   -2.885610
     67          1           0        2.721426    3.224937   -0.937382
     68          1           0        9.218109    3.705963    0.015257
     69          1           0        9.615453   -2.403765    0.940164
     70          1           0        1.812811   -1.148172   -2.153579
     71          1           0        1.128670    1.387399   -0.799540
     72          1           0        2.585877    1.900873   -3.395923
     73          1           0        0.902928    1.940936   -3.072959
     74          1           0        1.640425    0.484423   -3.550691
     75          1           0        1.036345   -1.197923    0.788157
     76          1           0        0.638157   -2.255152   -0.601009
     77          1           0       -0.788497    0.004663   -1.233266
     78          1           0       -0.851389   -0.079292    0.568115
     79          1           0        4.389437    6.533554   -1.646753
     80          1           0        3.684567    6.099082   -0.079033
     81          1           0        3.278891    5.152444   -1.491426
     82          1           0        6.896881    7.811813   -1.217298
     83          1           0        7.156284    8.059570    0.582537
     84          1           0        5.663598    7.410242    0.011602
     85          1           0       11.017917    1.986422    0.839430
     86          1           0       11.176140   -0.745910    0.101399
     87          1           0       11.664569    2.429974   -1.276452
     88          1           0       10.199655    1.745528   -1.941834
     89          1           0       11.549453    0.654497   -1.505993
     90          1           0       11.918883    0.386342    2.244426
     91          1           0       11.206006   -1.218605    2.571710
     92          1           0       10.512927    1.213628    3.947093
     93          1           0        9.419510   -0.104965    3.778211
     94          1           0        9.441155    1.321708    2.645407
     95          1           0        9.088163   -4.783091    0.547791
     96          1           0        7.878440   -5.698076   -0.300291
     97          1           0        7.704816   -5.464767    1.480074
     98          1           0        3.197352   -3.657152   -1.556722
     99          1           0        0.203952   -5.284002    1.079839
    100          1           0        0.235212   -6.379030   -0.399819
    101          1           0       -0.443692   -4.703654   -0.391179
    102          1           0       -3.661063   -3.514433    1.371785
    103          1           0       -3.298846   -3.670095   -0.310199
    104          1           0       -4.444008   -1.051829   -0.021464
    105          1           0       -5.486589   -4.614481   -0.639144
    106          1           0       -6.644887   -3.767838   -1.738665
    107          1           0       -7.149459   -4.212694   -0.120796
    108          1           0       -7.350687   -1.548572   -1.838183
    109          1           0       -6.314422   -0.438403   -0.999036
    110          1           0       -8.012732   -1.742251    0.841061
    111          1           0       -9.033364   -1.405408   -0.557529
    112          1           0       -7.496064    1.026738   -0.065762
    113          1           0       -7.907595    0.303662    1.557650
    114          1           0      -10.351105    0.238298    0.775366
    115          1           0       -9.717164    0.615126   -1.728082
    116          1           0       -9.823315    2.368383   -1.221254
    117          1           0      -11.182174    1.219677   -0.978471
    118          1           0       -9.115883    2.896839    1.332068
    119          1           0       -9.434582    1.632330    2.412273
    120          1           0      -11.712903    2.608036    0.607523
    121          1           0      -11.021793    3.779084    1.663364
    122          1           0      -12.055717    3.302341    3.324265
    123          1           0      -11.354642    1.718453    3.468194
    124          1           0      -13.917433    2.603337    1.888489
    125          1           0      -14.769444    0.753732    3.807846
    126          1           0      -14.868327    2.445102    3.937664
    127          1           0      -13.516523    1.641718    4.743784
    128          1           0      -13.564038   -0.303629    2.376048
    129          1           0      -12.522410    0.361569    1.238206
    130          1           0      -15.310528    1.341351    0.737344
    131          1           0      -15.353258   -0.336807    0.923860
    132          1           0      -14.685769   -0.824827   -0.934591
    133          1           0      -13.134498    0.032345   -0.857051
    134          1           0      -15.074316    2.020116   -1.339619
    135          1           0      -16.625005   -0.476124   -2.027239
    136          1           0      -16.105231    0.216912   -3.506793
    137          1           0      -16.986196    1.231766   -2.417202
    138          1           0      -13.454944    0.527425   -3.344570
    139          1           0      -13.107136    2.012128   -2.540025
    140          1           0      -14.424237    1.874699   -3.730809
 ---------------------------------------------------------------------

 SCF Done:  E(RPBE1PBE) =  -3005.34254430     A.U. after   16 cycles

 Excitation energies and oscillator strengths:

 Excited State   1:      Singlet-A      1.9058 eV  650.56 nm  f=0.3824  <S**2>=0.000
     245 -> 248        0.17601
     246 -> 247        0.69053
     246 <- 247       -0.10134
 This state for optimization and/or second-order correction.
 Total Energy, E(TD-HF/TD-DFT) =  -3005.27250718
 Copying the excited state density for this state as the 1-particle RhoCI density.

 Excited State   2:      Singlet-A      2.2076 eV  561.62 nm  f=0.1376  <S**2>=0.000
     245 -> 247        0.66207
     246 -> 248       -0.22838

 Excited State   3:      Singlet-A      2.9916 eV  414.43 nm  f=0.0086  <S**2>=0.000
     240 -> 247       -0.25059
     244 -> 247        0.64790

 Excited State   4:      Singlet-A      3.0251 eV  409.85 nm  f=0.0003  <S**2>=0.000
     240 -> 247       -0.44586
     242 -> 247        0.48368
     242 -> 249       -0.11052
     244 -> 247       -0.17395

 Excited State   5:      Singlet-A      3.0313 eV  409.02 nm  f=0.0016  <S**2>=0.000
     240 -> 247        0.44720
     242 -> 247        0.47186
     242 -> 249       -0.11378
     244 -> 247        0.18167

 The electronic state is 1-A.
 Alpha  occ. eigenvalues --  -46.92375 -19.25976 -19.25264 -19.20649 -19.19630
 Alpha  occ. eigenvalues --  -19.19504 -19.18722 -14.41623 -14.40676 -14.39454
 Alpha  occ. eigenvalues --  -14.38516 -10.37089 -10.35437 -10.32665 -10.31506
 Alpha  occ. eigenvalues --  -10.29651 -10.29350 -10.28945 -10.28726 -10.28644
 Alpha  occ. eigenvalues --  -10.27782 -10.27684 -10.27588 -10.27116 -10.27088
 Alpha  occ. eigenvalues --  -10.26928 -10.26377 -10.26189 -10.26142 -10.25838
 Alpha  occ. eigenvalues --  -10.25352 -10.25247 -10.25098 -10.25075 -10.25065
 Alpha  occ. eigenvalues --  -10.24906 -10.24813 -10.24507 -10.24339 -10.24068
 Alpha  occ. eigenvalues --  -10.24028 -10.23629 -10.23435 -10.23415 -10.23382
 Alpha  occ. eigenvalues --  -10.23269 -10.23202 -10.23046 -10.23000 -10.22945
 Alpha  occ. eigenvalues --  -10.22926 -10.22830 -10.22799 -10.22395 -10.22238
 Alpha  occ. eigenvalues --  -10.22231 -10.22226 -10.22179 -10.22137 -10.22026
 Alpha  occ. eigenvalues --  -10.21887 -10.21700 -10.21660 -10.21559 -10.21251
 Alpha  occ. eigenvalues --  -10.21143  -3.14464  -1.87315  -1.86833  -1.86689
 Alpha  occ. eigenvalues --   -1.11750  -1.09707  -1.06285  -1.04559  -1.03062
 Alpha  occ. eigenvalues --   -1.01487  -1.00970  -0.99323  -0.98448  -0.94920
 Alpha  occ. eigenvalues --   -0.87489  -0.84376  -0.83808  -0.83746  -0.83282
 Alpha  occ. eigenvalues --   -0.83131  -0.82756  -0.82563  -0.81828  -0.80661
 Alpha  occ. eigenvalues --   -0.80106  -0.79550  -0.78664  -0.78345  -0.77521
 Alpha  occ. eigenvalues --   -0.76582  -0.76183  -0.75420  -0.74666  -0.73946
 Alpha  occ. eigenvalues --   -0.73772  -0.72358  -0.72079  -0.71507  -0.70428
 Alpha  occ. eigenvalues --   -0.69930  -0.69827  -0.69713  -0.68962  -0.68204
 Alpha  occ. eigenvalues --   -0.67923  -0.67418  -0.66571  -0.65319  -0.64363
 Alpha  occ. eigenvalues --   -0.63217  -0.62507  -0.61770  -0.60875  -0.60359
 Alpha  occ. eigenvalues --   -0.59976  -0.59389  -0.59056  -0.58765  -0.57822
 Alpha  occ. eigenvalues --   -0.57006  -0.56874  -0.56535  -0.56245  -0.54654
 Alpha  occ. eigenvalues --   -0.54587  -0.54136  -0.53977  -0.53375  -0.52684
 Alpha  occ. eigenvalues --   -0.52109  -0.51640  -0.50769  -0.50589  -0.49960
 Alpha  occ. eigenvalues --   -0.49714  -0.49511  -0.49162  -0.48950  -0.48780
 Alpha  occ. eigenvalues --   -0.48345  -0.48032  -0.47540  -0.47305  -0.47234
 Alpha  occ. eigenvalues --   -0.46898  -0.46682  -0.46479  -0.46143  -0.45972
 Alpha  occ. eigenvalues --   -0.45956  -0.45808  -0.45405  -0.45112  -0.44936
 Alpha  occ. eigenvalues --   -0.44674  -0.44554  -0.44433  -0.44357  -0.44171
 Alpha  occ. eigenvalues --   -0.44121  -0.43845  -0.43753  -0.43556  -0.43339
 Alpha  occ. eigenvalues --   -0.43084  -0.42944  -0.42750  -0.42682  -0.42467
 Alpha  occ. eigenvalues --   -0.42298  -0.41906  -0.41804  -0.41504  -0.41451
 Alpha  occ. eigenvalues --   -0.40981  -0.40765  -0.40612  -0.40413  -0.40264
 Alpha  occ. eigenvalues --   -0.40198  -0.39993  -0.39916  -0.39878  -0.39612
 Alpha  occ. eigenvalues --   -0.39294  -0.39038  -0.39032  -0.38671  -0.38590
 Alpha  occ. eigenvalues --   -0.38432  -0.38325  -0.38091  -0.38044  -0.37866
 Alpha  occ. eigenvalues --   -0.37595  -0.37472  -0.37205  -0.37089  -0.36961
 Alpha  occ. eigenvalues --   -0.36843  -0.36678  -0.36437  -0.36361  -0.36023
 Alpha  occ. eigenvalues --   -0.35985  -0.35881  -0.35630  -0.35451  -0.35428
 Alpha  occ. eigenvalues --   -0.34891  -0.34562  -0.34306  -0.33547  -0.33519
 Alpha  occ. eigenvalues --   -0.33425  -0.33224  -0.32396  -0.32288  -0.32140
 Alpha  occ. eigenvalues --   -0.31973  -0.31884  -0.31472  -0.31378  -0.31215
 Alpha  occ. eigenvalues --   -0.30535  -0.29567  -0.29360  -0.29292  -0.29201
 Alpha  occ. eigenvalues --   -0.29023  -0.28623  -0.28547  -0.26930  -0.25793
 Alpha  occ. eigenvalues --   -0.25559  -0.25440  -0.25277  -0.25091  -0.20822
 Alpha  occ. eigenvalues --   -0.19019
 Alpha virt. eigenvalues --   -0.11201  -0.04884  -0.03816  -0.01674  -0.00983
 Alpha virt. eigenvalues --    0.00703   0.01832   0.01916   0.02065   0.02682
 Alpha virt. eigenvalues --    0.04157   0.04839   0.05098   0.05583   0.05863

 Mulliken charges:
               1
     1  Mg   0.965654
     2  C    0.049250
     3  C   -0.061858
     4  C   -0.041178
     5  C   -0.081237
     6  N   -0.347694
     7  C    0.036427
     8  C   -0.090166
     9  C   -0.122838
    10  C    0.049224
    11  C   -0.005137
    12  C   -0.025789
    13  C    0.029965
    14  C    0.206176
    15  O   -0.283915
    16  O   -0.384188
    17  N   -0.452883
    18  C    0.158432
    19  C   -0.153157
    20  C   -0.100723
    21  C    0.172383
    22  C    0.037046
    23  C    0.051170
    24  O   -0.211474
    25  C   -0.057406
    26  N   -0.334691
    27  C   -0.010406
    28  C   -0.113955
    29  C   -0.114483
    30  C    0.077761
    31  C    0.050041
    32  C   -0.004579
    33  C   -0.095484
    34  N   -0.558794
    35  C    0.155974
    36  C   -0.203898
    37  C   -0.059184
    38  C    0.129991
    39  C    0.081660
    40  C    0.158077
    41  O   -0.201832
    42  C   -0.134540
    43  C    0.248194
    44  O   -0.230943
    45  O   -0.364770
    46  C    0.118902
    47  C    0.233947
    48  C   -0.114429
    49  C   -0.213056
    50  C    0.033288
    51  C   -0.032107
    52  C   -0.027351
    53  C    0.024726
    54  C   -0.268834
    55  C    0.007691
    56  C   -0.019886
    57  C   -0.044041
    58  C    0.022983
    59  C   -0.232926
    60  C   -0.006674
    61  C    0.020689
    62  C   -0.049548
    63  C   -0.032777
    64  C   -0.206811
    65  C   -0.011786
    66  C   -0.031817
    67  H   -0.002681
    68  H    0.022120
    69  H   -0.002994
    70  H    0.048115
    71  H    0.061378
    72  H    0.055559
    73  H    0.037981
    74  H    0.038197
    75  H    0.070729
    76  H    0.072649
    77  H    0.053960
    78  H    0.064676
    79  H    0.064329
    80  H    0.068575
    81  H    0.045056
    82  H    0.074707
    83  H    0.057085
    84  H    0.038833
    85  H    0.035600
    86  H    0.034249
    87  H    0.051084
    88  H    0.056028
    89  H    0.033875
    90  H    0.041482
    91  H    0.049621
    92  H    0.039367
    93  H    0.050984
    94  H    0.062115
    95  H    0.030264
    96  H    0.063669
    97  H    0.067504
    98  H    0.086918
    99  H    0.071525
   100  H    0.076561
   101  H    0.048422
   102  H    0.059603
   103  H    0.052763
   104  H    0.036077
   105  H    0.038195
   106  H    0.049653
   107  H    0.045402
   108  H    0.028091
   109  H    0.032778
   110  H    0.032801
   111  H    0.035807
   112  H    0.037495
   113  H    0.028564
   114  H    0.044074
   115  H    0.030200
   116  H    0.040567
   117  H    0.048154
   118  H    0.011180
   119  H    0.015794
   120  H    0.025567
   121  H    0.016225
   122  H    0.024476
   123  H    0.027547
   124  H    0.032824
   125  H    0.026286
   126  H    0.023638
   127  H    0.040894
   128  H    0.020953
   129  H    0.006476
   130  H    0.023705
   131  H    0.021370
   132  H    0.021130
   133  H    0.038568
   134  H    0.038144
   135  H    0.040200
   136  H    0.029265
   137  H    0.039920
   138  H    0.024834
   139  H    0.041352
   140  H    0.021482
 Sum of Mulliken charges =  -0.00000

 Dipole moment (field-independent basis, Debye):
    X=             -1.7541    Y=              2.3351    Z=             -0.9145  Tot=              3.0603
 Quadrupole moment (field-independent basis, Debye-Ang):
   XX=           -369.0392   YY=           -411.0536   ZZ=           -406.7605
   XY=              0.7754   XZ=              0.2823   YZ=             -6.7732

 Normal termination of Gaussian 16 at Wed Apr 27 22:14:39 2022.
