 Gaussian 16, Revision A.03,
 Gaussian 16:  ES64L-G16RevA.03 25-Dec-2016

 --------------------------------
 #p wB97XD/Def2SVP td=(nstates=5)
 --------------------------------

 ----------------------------------------------------
 step_1351_chromophore_1 TDDFT with wB97XD functional
 ----------------------------------------------------
 Symbolic Z-matrix:
 Charge =  0 Multiplicity = 1

                         Standard orientation:
 ---------------------------------------------------------------------
 Center     Atomic      Atomic             Coordinates (Angstroms)
 Number     Number       Type             X           Y           Z
 ---------------------------------------------------------------------
      1         12           0        6.225173    0.288924    0.102781
      2          6           0        3.986684   -2.168278   -0.348497
      3          6           0        3.587368    2.582526   -0.758758
      4          6           0        8.440501    2.940602    0.052599
      5          6           0        8.793212   -1.762001    0.616892
      6          7           0        3.959039    0.291028   -0.327225
      7          6           0        3.343310   -0.932131   -0.586038
      8          6           0        1.945299   -0.686445   -1.174843
      9          6           0        1.915553    0.910427   -1.382664
     10          6           0        3.214497    1.291719   -0.785110
     11          6           0        1.796268    1.341816   -2.894879
     12          6           0        0.730465   -1.223843   -0.257667
     13          6           0       -0.671541   -0.630369   -0.354747
     14          6           0       -1.863333   -1.537896   -0.593762
     15          8           0       -2.486448   -1.629107   -1.680238
     16          8           0       -2.241779   -2.200180    0.579317
     17          7           0        6.012406    2.497396   -0.178829
     18          6           0        4.861001    3.226311   -0.595403
     19          6           0        5.166351    4.664383   -0.640487
     20          6           0        6.599550    4.803010   -0.294324
     21          6           0        7.091383    3.349159   -0.075876
     22          6           0        4.087786    5.701972   -1.010550
     23          6           0        7.467644    6.014260   -0.052420
     24          8           0        8.615609    5.914236    0.276868
     25          6           0        6.731596    7.440460   -0.206647
     26          7           0        8.334643    0.593587    0.210483
     27          6           0        9.014330    1.687031    0.108617
     28          6           0       10.484035    1.336691    0.147123
     29          6           0       10.569803   -0.080353    0.714916
     30          6           0        9.108327   -0.459037    0.494061
     31          6           0       11.007639    1.560722   -1.233774
     32          6           0       11.000050   -0.200731    2.240980
     33          6           0       10.028062    0.587567    3.197210
     34          7           0        6.438088   -1.658600    0.126176
     35          6           0        7.559171   -2.390143    0.387259
     36          6           0        7.157041   -3.790703    0.357432
     37          6           0        5.788822   -3.730108    0.073255
     38          6           0        5.358654   -2.399992   -0.040395
     39          6           0        8.022801   -5.016913    0.538215
     40          6           0        4.617578   -4.562456   -0.207259
     41          8           0        4.531340   -5.772064   -0.282622
     42          6           0        3.488789   -3.593025   -0.508547
     43          6           0        2.271713   -3.924782    0.262973
     44          8           0        1.911952   -3.522440    1.330938
     45          8           0        1.599499   -4.787125   -0.512134
     46          6           0        0.325704   -5.369376    0.000169
     47          6           0       -3.537465   -2.934604    0.458298
     48          6           0       -4.735875   -2.095031    0.097896
     49          6           0       -5.910539   -2.464958   -0.354250
     50          6           0       -6.295140   -3.886391   -0.713849
     51          6           0       -6.920449   -1.334041   -0.860058
     52          6           0       -8.170779   -1.055761    0.009919
     53          6           0       -8.157640    0.370167    0.498707
     54          6           0       -9.619475    0.949946    0.392303
     55          6           0      -10.098816    1.335517   -1.004701
     56          6           0       -9.789643    2.051462    1.471160
     57          6           0      -11.187049    2.707064    1.557250
     58          6           0      -11.964387    2.343537    2.815570
     59          6           0      -13.383920    1.854031    2.472698
     60          6           0      -14.138253    1.640775    3.847884
     61          6           0      -13.494295    0.546357    1.697346
     62          6           0      -14.657724    0.469479    0.693358
     63          6           0      -14.216164    0.151892   -0.815577
     64          6           0      -14.928979    1.071397   -1.855209
     65          6           0      -16.229571    0.448268   -2.449692
     66          6           0      -13.934088    1.392197   -2.885610
     67          1           0        2.721426    3.224937   -0.937382
     68          1           0        9.218109    3.705963    0.015257
     69          1           0        9.615453   -2.403765    0.940164
     70          1           0        1.812811   -1.148172   -2.153579
     71          1           0        1.128670    1.387399   -0.799540
     72          1           0        2.585877    1.900873   -3.395923
     73          1           0        0.902928    1.940936   -3.072959
     74          1           0        1.640425    0.484423   -3.550691
     75          1           0        1.036345   -1.197923    0.788157
     76          1           0        0.638157   -2.255152   -0.601009
     77          1           0       -0.788497    0.004663   -1.233266
     78          1           0       -0.851389   -0.079292    0.568115
     79          1           0        4.389437    6.533554   -1.646753
     80          1           0        3.684567    6.099082   -0.079033
     81          1           0        3.278891    5.152444   -1.491426
     82          1           0        6.896881    7.811813   -1.217298
     83          1           0        7.156284    8.059570    0.582537
     84          1           0        5.663598    7.410242    0.011602
     85          1           0       11.017917    1.986422    0.839430
     86          1           0       11.176140   -0.745910    0.101399
     87          1           0       11.664569    2.429974   -1.276452
     88          1           0       10.199655    1.745528   -1.941834
     89          1           0       11.549453    0.654497   -1.505993
     90          1           0       11.918883    0.386342    2.244426
     91          1           0       11.206006   -1.218605    2.571710
     92          1           0       10.512927    1.213628    3.947093
     93          1           0        9.419510   -0.104965    3.778211
     94          1           0        9.441155    1.321708    2.645407
     95          1           0        9.088163   -4.783091    0.547791
     96          1           0        7.878440   -5.698076   -0.300291
     97          1           0        7.704816   -5.464767    1.480074
     98          1           0        3.197352   -3.657152   -1.556722
     99          1           0        0.203952   -5.284002    1.079839
    100          1           0        0.235212   -6.379030   -0.399819
    101          1           0       -0.443692   -4.703654   -0.391179
    102          1           0       -3.661063   -3.514433    1.371785
    103          1           0       -3.298846   -3.670095   -0.310199
    104          1           0       -4.444008   -1.051829   -0.021464
    105          1           0       -5.486589   -4.614481   -0.639144
    106          1           0       -6.644887   -3.767838   -1.738665
    107          1           0       -7.149459   -4.212694   -0.120796
    108          1           0       -7.350687   -1.548572   -1.838183
    109          1           0       -6.314422   -0.438403   -0.999036
    110          1           0       -8.012732   -1.742251    0.841061
    111          1           0       -9.033364   -1.405408   -0.557529
    112          1           0       -7.496064    1.026738   -0.065762
    113          1           0       -7.907595    0.303662    1.557650
    114          1           0      -10.351105    0.238298    0.775366
    115          1           0       -9.717164    0.615126   -1.728082
    116          1           0       -9.823315    2.368383   -1.221254
    117          1           0      -11.182174    1.219677   -0.978471
    118          1           0       -9.115883    2.896839    1.332068
    119          1           0       -9.434582    1.632330    2.412273
    120          1           0      -11.712903    2.608036    0.607523
    121          1           0      -11.021793    3.779084    1.663364
    122          1           0      -12.055717    3.302341    3.324265
    123          1           0      -11.354642    1.718453    3.468194
    124          1           0      -13.917433    2.603337    1.888489
    125          1           0      -14.769444    0.753732    3.807846
    126          1           0      -14.868327    2.445102    3.937664
    127          1           0      -13.516523    1.641718    4.743784
    128          1           0      -13.564038   -0.303629    2.376048
    129          1           0      -12.522410    0.361569    1.238206
    130          1           0      -15.310528    1.341351    0.737344
    131          1           0      -15.353258   -0.336807    0.923860
    132          1           0      -14.685769   -0.824827   -0.934591
    133          1           0      -13.134498    0.032345   -0.857051
    134          1           0      -15.074316    2.020116   -1.339619
    135          1           0      -16.625005   -0.476124   -2.027239
    136          1           0      -16.105231    0.216912   -3.506793
    137          1           0      -16.986196    1.231766   -2.417202
    138          1           0      -13.454944    0.527425   -3.344570
    139          1           0      -13.107136    2.012128   -2.540025
    140          1           0      -14.424237    1.874699   -3.730809
 ---------------------------------------------------------------------

 SCF Done:  E(RwB97XD) =  -3007.85525561     A.U. after   19 cycles

 Excitation energies and oscillator strengths:

 Excited State   1:      Singlet-A      1.7398 eV  712.62 nm  f=0.3961  <S**2>=0.000
     245 -> 248        0.18436
     246 -> 247        0.68290
     245 <- 248        0.11210
 This state for optimization and/or second-order correction.
 Total Energy, E(TD-HF/TD-DFT) =  -3007.79131740
 Copying the excited state density for this state as the 1-particle RhoCI density.

 Excited State   2:      Singlet-A      2.1576 eV  574.63 nm  f=0.1396  <S**2>=0.000
     243 -> 247        0.10186
     245 -> 247        0.64994
     246 -> 248       -0.25490

 Excited State   3:      Singlet-A      3.2804 eV  377.96 nm  f=0.0061  <S**2>=0.000
     243 -> 247        0.51700
     244 -> 247       -0.42515
     246 -> 248        0.16775

 Excited State   4:      Singlet-A      3.5227 eV  351.96 nm  f=0.0077  <S**2>=0.000
     240 -> 247        0.58616
     240 -> 248       -0.10147
     240 -> 249        0.30036
     240 -> 250       -0.15164

 Excited State   5:      Singlet-A      3.6428 eV  340.35 nm  f=0.2522  <S**2>=0.000
     243 -> 247        0.21766
     244 -> 247        0.44200
     245 -> 247        0.15892
     246 -> 248        0.45368

 The electronic state is 1-A.
 Alpha  occ. eigenvalues --  -46.95285 -19.30499 -19.29723 -19.25273 -19.24771
 Alpha  occ. eigenvalues --  -19.24115 -19.23269 -14.46732 -14.45687 -14.44517
 Alpha  occ. eigenvalues --  -14.43261 -10.43832 -10.42176 -10.39825 -10.38120
 Alpha  occ. eigenvalues --  -10.36120 -10.35434 -10.35426 -10.35416 -10.35388
 Alpha  occ. eigenvalues --  -10.34721 -10.34199 -10.34171 -10.33132 -10.33087
 Alpha  occ. eigenvalues --  -10.32970 -10.32690 -10.32595 -10.32395 -10.32122
 Alpha  occ. eigenvalues --  -10.31885 -10.31653 -10.31318 -10.31317 -10.31225
 Alpha  occ. eigenvalues --  -10.31196 -10.31002 -10.30755 -10.30662 -10.30620
 Alpha  occ. eigenvalues --  -10.30483 -10.30289 -10.29820 -10.29815 -10.29710
 Alpha  occ. eigenvalues --  -10.29569 -10.29487 -10.29393 -10.29336 -10.29282
 Alpha  occ. eigenvalues --  -10.29226 -10.29223 -10.29149 -10.28761 -10.28650
 Alpha  occ. eigenvalues --  -10.28599 -10.28598 -10.28523 -10.28483 -10.28264
 Alpha  occ. eigenvalues --  -10.28087 -10.28073 -10.28023 -10.27933 -10.27677
 Alpha  occ. eigenvalues --  -10.27593  -3.21242  -1.94842  -1.94360  -1.94209
 Alpha  occ. eigenvalues --   -1.19042  -1.17069  -1.14063  -1.11786  -1.10317
 Alpha  occ. eigenvalues --   -1.08810  -1.08274  -1.06459  -1.05763  -1.02589
 Alpha  occ. eigenvalues --   -0.94925  -0.92048  -0.91416  -0.91315  -0.90920
 Alpha  occ. eigenvalues --   -0.90703  -0.90409  -0.90186  -0.89488  -0.88445
 Alpha  occ. eigenvalues --   -0.87580  -0.87274  -0.86318  -0.85862  -0.85173
 Alpha  occ. eigenvalues --   -0.84235  -0.83753  -0.83143  -0.82363  -0.81760
 Alpha  occ. eigenvalues --   -0.81427  -0.79918  -0.79796  -0.79279  -0.77981
 Alpha  occ. eigenvalues --   -0.77622  -0.77506  -0.77292  -0.76622  -0.75872
 Alpha  occ. eigenvalues --   -0.75466  -0.74943  -0.74169  -0.72881  -0.71890
 Alpha  occ. eigenvalues --   -0.70640  -0.70128  -0.69408  -0.68510  -0.67783
 Alpha  occ. eigenvalues --   -0.67444  -0.66951  -0.66669  -0.66134  -0.65503
 Alpha  occ. eigenvalues --   -0.64650  -0.64349  -0.63887  -0.63828  -0.62140
 Alpha  occ. eigenvalues --   -0.62107  -0.61526  -0.61387  -0.60739  -0.60082
 Alpha  occ. eigenvalues --   -0.59520  -0.59074  -0.58094  -0.57887  -0.57335
 Alpha  occ. eigenvalues --   -0.57119  -0.56916  -0.56758  -0.56417  -0.56083
 Alpha  occ. eigenvalues --   -0.55743  -0.55499  -0.54782  -0.54730  -0.54643
 Alpha  occ. eigenvalues --   -0.54322  -0.53974  -0.53887  -0.53868  -0.53512
 Alpha  occ. eigenvalues --   -0.53242  -0.53130  -0.52760  -0.52319  -0.52261
 Alpha  occ. eigenvalues --   -0.51981  -0.51907  -0.51793  -0.51729  -0.51629
 Alpha  occ. eigenvalues --   -0.51541  -0.51191  -0.51030  -0.50873  -0.50591
 Alpha  occ. eigenvalues --   -0.50433  -0.50206  -0.50132  -0.49847  -0.49754
 Alpha  occ. eigenvalues --   -0.49592  -0.49118  -0.49035  -0.48764  -0.48682
 Alpha  occ. eigenvalues --   -0.48171  -0.47966  -0.47848  -0.47694  -0.47499
 Alpha  occ. eigenvalues --   -0.47413  -0.47198  -0.47063  -0.47026  -0.46735
 Alpha  occ. eigenvalues --   -0.46344  -0.46264  -0.46057  -0.45975  -0.45809
 Alpha  occ. eigenvalues --   -0.45663  -0.45506  -0.45355  -0.45238  -0.44950
 Alpha  occ. eigenvalues --   -0.44681  -0.44594  -0.44297  -0.44152  -0.44011
 Alpha  occ. eigenvalues --   -0.43954  -0.43742  -0.43582  -0.43336  -0.43105
 Alpha  occ. eigenvalues --   -0.43020  -0.42903  -0.42663  -0.42569  -0.42426
 Alpha  occ. eigenvalues --   -0.41875  -0.41601  -0.41332  -0.40605  -0.40493
 Alpha  occ. eigenvalues --   -0.40425  -0.40238  -0.39430  -0.39196  -0.39117
 Alpha  occ. eigenvalues --   -0.39000  -0.38857  -0.38402  -0.38372  -0.38186
 Alpha  occ. eigenvalues --   -0.37548  -0.36457  -0.36313  -0.36237  -0.36164
 Alpha  occ. eigenvalues --   -0.35981  -0.35480  -0.35232  -0.33509  -0.33167
 Alpha  occ. eigenvalues --   -0.32310  -0.32022  -0.31986  -0.31710  -0.25818
 Alpha  occ. eigenvalues --   -0.23239
 Alpha virt. eigenvalues --   -0.07052   0.00605   0.02415   0.04841   0.05900
 Alpha virt. eigenvalues --    0.06628   0.08236   0.08694   0.08874   0.09049
 Alpha virt. eigenvalues --    0.11008   0.11582   0.11673   0.12443   0.12518

 Mulliken charges:
               1
     1  Mg   0.956274
     2  C    0.050347
     3  C   -0.079054
     4  C   -0.064089
     5  C   -0.098534
     6  N   -0.314194
     7  C    0.000627
     8  C   -0.068383
     9  C   -0.098020
    10  C    0.041007
    11  C    0.003265
    12  C   -0.005385
    13  C    0.046946
    14  C    0.195705
    15  O   -0.282397
    16  O   -0.384987
    17  N   -0.426586
    18  C    0.154775
    19  C   -0.143286
    20  C   -0.096614
    21  C    0.166568
    22  C    0.049221
    23  C    0.048259
    24  O   -0.203537
    25  C   -0.043632
    26  N   -0.299918
    27  C   -0.010555
    28  C   -0.092160
    29  C   -0.082458
    30  C    0.060535
    31  C    0.055716
    32  C    0.005848
    33  C   -0.073905
    34  N   -0.515025
    35  C    0.138923
    36  C   -0.200829
    37  C   -0.052107
    38  C    0.105701
    39  C    0.092876
    40  C    0.137048
    41  O   -0.193157
    42  C   -0.097570
    43  C    0.223935
    44  O   -0.224365
    45  O   -0.363011
    46  C    0.135854
    47  C    0.250782
    48  C   -0.123157
    49  C   -0.199182
    50  C    0.047978
    51  C   -0.013119
    52  C   -0.013099
    53  C    0.038881
    54  C   -0.228614
    55  C    0.033745
    56  C   -0.008850
    57  C   -0.023054
    58  C    0.035979
    59  C   -0.201364
    60  C    0.004282
    61  C    0.049275
    62  C   -0.036706
    63  C   -0.013732
    64  C   -0.174168
    65  C   -0.002232
    66  C   -0.018230
    67  H   -0.010134
    68  H    0.017790
    69  H   -0.009840
    70  H    0.037932
    71  H    0.051184
    72  H    0.049809
    73  H    0.032783
    74  H    0.033171
    75  H    0.065126
    76  H    0.053121
    77  H    0.045676
    78  H    0.060084
    79  H    0.061529
    80  H    0.065339
    81  H    0.040919
    82  H    0.072322
    83  H    0.056004
    84  H    0.032506
    85  H    0.025662
    86  H    0.025066
    87  H    0.046444
    88  H    0.049233
    89  H    0.028677
    90  H    0.031101
    91  H    0.044429
    92  H    0.034086
    93  H    0.045387
    94  H    0.047077
    95  H    0.023406
    96  H    0.057944
    97  H    0.061174
    98  H    0.079013
    99  H    0.067939
   100  H    0.073814
   101  H    0.042594
   102  H    0.056671
   103  H    0.044697
   104  H    0.030262
   105  H    0.033264
   106  H    0.043089
   107  H    0.039657
   108  H    0.020532
   109  H    0.022741
   110  H    0.022854
   111  H    0.028291
   112  H    0.028318
   113  H    0.020973
   114  H    0.025504
   115  H    0.023558
   116  H    0.034648
   117  H    0.023328
   118  H    0.002395
   119  H    0.005468
   120  H    0.011805
   121  H    0.009316
   122  H    0.016343
   123  H    0.019011
   124  H    0.020393
   125  H    0.019261
   126  H    0.017776
   127  H    0.035848
   128  H    0.012674
   129  H   -0.020371
   130  H    0.013289
   131  H    0.014293
   132  H    0.010995
   133  H    0.026849
   134  H    0.026158
   135  H    0.035213
   136  H    0.023354
   137  H    0.034526
   138  H    0.017567
   139  H    0.034708
   140  H    0.015290
 Sum of Mulliken charges =  -0.00000

 Dipole moment (field-independent basis, Debye):
    X=             -1.8923    Y=              3.2725    Z=             -1.0001  Tot=              3.9102
 Quadrupole moment (field-independent basis, Debye-Ang):
   XX=           -371.2867   YY=           -407.7383   ZZ=           -406.4569
   XY=              6.8415   XZ=             -0.6372   YZ=             -7.0374

 Normal termination of Gaussian 16 at Wed Apr 27 22:44:13 2022.
