 Gaussian 16, Revision A.03,
 Gaussian 16:  ES64L-G16RevA.03 25-Dec-2016

 --------------------
 #p ZINDO=(nstates=5)
 --------------------

 -----------------------------
 step_1351_chromophore_1 ZINDO
 -----------------------------
 Symbolic Z-matrix:
 Charge =  0 Multiplicity = 1

                         Standard orientation:
 ---------------------------------------------------------------------
 Center     Atomic      Atomic             Coordinates (Angstroms)
 Number     Number       Type             X           Y           Z
 ---------------------------------------------------------------------
      1         12           0        6.225173    0.288924    0.102781
      2          6           0        3.986684   -2.168278   -0.348497
      3          6           0        3.587368    2.582526   -0.758758
      4          6           0        8.440501    2.940602    0.052599
      5          6           0        8.793212   -1.762001    0.616892
      6          7           0        3.959039    0.291028   -0.327225
      7          6           0        3.343310   -0.932131   -0.586038
      8          6           0        1.945299   -0.686445   -1.174843
      9          6           0        1.915553    0.910427   -1.382664
     10          6           0        3.214497    1.291719   -0.785110
     11          6           0        1.796268    1.341816   -2.894879
     12          6           0        0.730465   -1.223843   -0.257667
     13          6           0       -0.671541   -0.630369   -0.354747
     14          6           0       -1.863333   -1.537896   -0.593762
     15          8           0       -2.486448   -1.629107   -1.680238
     16          8           0       -2.241779   -2.200180    0.579317
     17          7           0        6.012406    2.497396   -0.178829
     18          6           0        4.861001    3.226311   -0.595403
     19          6           0        5.166351    4.664383   -0.640487
     20          6           0        6.599550    4.803010   -0.294324
     21          6           0        7.091383    3.349159   -0.075876
     22          6           0        4.087786    5.701972   -1.010550
     23          6           0        7.467644    6.014260   -0.052420
     24          8           0        8.615609    5.914236    0.276868
     25          6           0        6.731596    7.440460   -0.206647
     26          7           0        8.334643    0.593587    0.210483
     27          6           0        9.014330    1.687031    0.108617
     28          6           0       10.484035    1.336691    0.147123
     29          6           0       10.569803   -0.080353    0.714916
     30          6           0        9.108327   -0.459037    0.494061
     31          6           0       11.007639    1.560722   -1.233774
     32          6           0       11.000050   -0.200731    2.240980
     33          6           0       10.028062    0.587567    3.197210
     34          7           0        6.438088   -1.658600    0.126176
     35          6           0        7.559171   -2.390143    0.387259
     36          6           0        7.157041   -3.790703    0.357432
     37          6           0        5.788822   -3.730108    0.073255
     38          6           0        5.358654   -2.399992   -0.040395
     39          6           0        8.022801   -5.016913    0.538215
     40          6           0        4.617578   -4.562456   -0.207259
     41          8           0        4.531340   -5.772064   -0.282622
     42          6           0        3.488789   -3.593025   -0.508547
     43          6           0        2.271713   -3.924782    0.262973
     44          8           0        1.911952   -3.522440    1.330938
     45          8           0        1.599499   -4.787125   -0.512134
     46          6           0        0.325704   -5.369376    0.000169
     47          6           0       -3.537465   -2.934604    0.458298
     48          6           0       -4.735875   -2.095031    0.097896
     49          6           0       -5.910539   -2.464958   -0.354250
     50          6           0       -6.295140   -3.886391   -0.713849
     51          6           0       -6.920449   -1.334041   -0.860058
     52          6           0       -8.170779   -1.055761    0.009919
     53          6           0       -8.157640    0.370167    0.498707
     54          6           0       -9.619475    0.949946    0.392303
     55          6           0      -10.098816    1.335517   -1.004701
     56          6           0       -9.789643    2.051462    1.471160
     57          6           0      -11.187049    2.707064    1.557250
     58          6           0      -11.964387    2.343537    2.815570
     59          6           0      -13.383920    1.854031    2.472698
     60          6           0      -14.138253    1.640775    3.847884
     61          6           0      -13.494295    0.546357    1.697346
     62          6           0      -14.657724    0.469479    0.693358
     63          6           0      -14.216164    0.151892   -0.815577
     64          6           0      -14.928979    1.071397   -1.855209
     65          6           0      -16.229571    0.448268   -2.449692
     66          6           0      -13.934088    1.392197   -2.885610
     67          1           0        2.721426    3.224937   -0.937382
     68          1           0        9.218109    3.705963    0.015257
     69          1           0        9.615453   -2.403765    0.940164
     70          1           0        1.812811   -1.148172   -2.153579
     71          1           0        1.128670    1.387399   -0.799540
     72          1           0        2.585877    1.900873   -3.395923
     73          1           0        0.902928    1.940936   -3.072959
     74          1           0        1.640425    0.484423   -3.550691
     75          1           0        1.036345   -1.197923    0.788157
     76          1           0        0.638157   -2.255152   -0.601009
     77          1           0       -0.788497    0.004663   -1.233266
     78          1           0       -0.851389   -0.079292    0.568115
     79          1           0        4.389437    6.533554   -1.646753
     80          1           0        3.684567    6.099082   -0.079033
     81          1           0        3.278891    5.152444   -1.491426
     82          1           0        6.896881    7.811813   -1.217298
     83          1           0        7.156284    8.059570    0.582537
     84          1           0        5.663598    7.410242    0.011602
     85          1           0       11.017917    1.986422    0.839430
     86          1           0       11.176140   -0.745910    0.101399
     87          1           0       11.664569    2.429974   -1.276452
     88          1           0       10.199655    1.745528   -1.941834
     89          1           0       11.549453    0.654497   -1.505993
     90          1           0       11.918883    0.386342    2.244426
     91          1           0       11.206006   -1.218605    2.571710
     92          1           0       10.512927    1.213628    3.947093
     93          1           0        9.419510   -0.104965    3.778211
     94          1           0        9.441155    1.321708    2.645407
     95          1           0        9.088163   -4.783091    0.547791
     96          1           0        7.878440   -5.698076   -0.300291
     97          1           0        7.704816   -5.464767    1.480074
     98          1           0        3.197352   -3.657152   -1.556722
     99          1           0        0.203952   -5.284002    1.079839
    100          1           0        0.235212   -6.379030   -0.399819
    101          1           0       -0.443692   -4.703654   -0.391179
    102          1           0       -3.661063   -3.514433    1.371785
    103          1           0       -3.298846   -3.670095   -0.310199
    104          1           0       -4.444008   -1.051829   -0.021464
    105          1           0       -5.486589   -4.614481   -0.639144
    106          1           0       -6.644887   -3.767838   -1.738665
    107          1           0       -7.149459   -4.212694   -0.120796
    108          1           0       -7.350687   -1.548572   -1.838183
    109          1           0       -6.314422   -0.438403   -0.999036
    110          1           0       -8.012732   -1.742251    0.841061
    111          1           0       -9.033364   -1.405408   -0.557529
    112          1           0       -7.496064    1.026738   -0.065762
    113          1           0       -7.907595    0.303662    1.557650
    114          1           0      -10.351105    0.238298    0.775366
    115          1           0       -9.717164    0.615126   -1.728082
    116          1           0       -9.823315    2.368383   -1.221254
    117          1           0      -11.182174    1.219677   -0.978471
    118          1           0       -9.115883    2.896839    1.332068
    119          1           0       -9.434582    1.632330    2.412273
    120          1           0      -11.712903    2.608036    0.607523
    121          1           0      -11.021793    3.779084    1.663364
    122          1           0      -12.055717    3.302341    3.324265
    123          1           0      -11.354642    1.718453    3.468194
    124          1           0      -13.917433    2.603337    1.888489
    125          1           0      -14.769444    0.753732    3.807846
    126          1           0      -14.868327    2.445102    3.937664
    127          1           0      -13.516523    1.641718    4.743784
    128          1           0      -13.564038   -0.303629    2.376048
    129          1           0      -12.522410    0.361569    1.238206
    130          1           0      -15.310528    1.341351    0.737344
    131          1           0      -15.353258   -0.336807    0.923860
    132          1           0      -14.685769   -0.824827   -0.934591
    133          1           0      -13.134498    0.032345   -0.857051
    134          1           0      -15.074316    2.020116   -1.339619
    135          1           0      -16.625005   -0.476124   -2.027239
    136          1           0      -16.105231    0.216912   -3.506793
    137          1           0      -16.986196    1.231766   -2.417202
    138          1           0      -13.454944    0.527425   -3.344570
    139          1           0      -13.107136    2.012128   -2.540025
    140          1           0      -14.424237    1.874699   -3.730809
 ---------------------------------------------------------------------

 SCF Done:  E(RZINDO/S) =  -474.419101915     A.U. after   19 cycles

 Excitation energies and oscillator strengths:

 Excited State   1:      Singlet-A      1.3306 eV  931.77 nm  f=0.5797  <S**2>=0.000
     175 ->178         0.17088
     176 ->177         0.67036
 This state for optimization and/or second-order correction.
 Total Energy, E(CIS/TDA) =  -474.370201964
 Copying the excited state density for this state as the 1-particle RhoCI density.

 Excited State   2:      Singlet-A      1.9525 eV  635.01 nm  f=0.0877  <S**2>=0.000
     175 ->177         0.57191
     176 ->178        -0.38169

 Excited State   3:      Singlet-A      3.0211 eV  410.39 nm  f=0.2610  <S**2>=0.000
     167 ->177         0.21719
     167 ->179        -0.25457
     167 ->181         0.12974
     167 ->185        -0.12192
     168 ->177         0.25367
     168 ->179        -0.25288
     168 ->181         0.11352
     168 ->185        -0.12084
     171 ->177         0.10056
     175 ->177         0.17893
     176 ->178         0.29224

 Excited State   4:      Singlet-A      3.0378 eV  408.14 nm  f=0.6020  <S**2>=0.000
     167 ->177        -0.14782
     167 ->179         0.16184
     168 ->177        -0.14852
     168 ->179         0.15296
     171 ->177         0.23064
     172 ->177        -0.10264
     175 ->177         0.26585
     176 ->178         0.43696

 Excited State   5:      Singlet-A      3.0879 eV  401.52 nm  f=0.0037  <S**2>=0.000
     170 ->177         0.27511
     170 ->178        -0.14598
     170 ->179         0.28108
     170 ->181         0.39163
     170 ->185         0.18620
     170 ->187        -0.12262
     170 ->189         0.14611

 The electronic state is 1-A.
 Alpha  occ. eigenvalues --   -1.88309  -1.84665  -1.78594  -1.74352  -1.70939
 Alpha  occ. eigenvalues --   -1.68452  -1.66171  -1.59993  -1.58943  -1.58463
 Alpha  occ. eigenvalues --   -1.55694  -1.50408  -1.49040  -1.47291  -1.45376
 Alpha  occ. eigenvalues --   -1.44578  -1.42090  -1.41124  -1.39638  -1.39058
 Alpha  occ. eigenvalues --   -1.36365  -1.33355  -1.32035  -1.31260  -1.30761
 Alpha  occ. eigenvalues --   -1.26753  -1.25429  -1.22289  -1.20107  -1.18400
 Alpha  occ. eigenvalues --   -1.17307  -1.16580  -1.15045  -1.14715  -1.13155
 Alpha  occ. eigenvalues --   -1.11729  -1.11356  -1.10852  -1.05232  -1.03979
 Alpha  occ. eigenvalues --   -1.02867  -1.01863  -0.99675  -0.98414  -0.96768
 Alpha  occ. eigenvalues --   -0.95935  -0.94538  -0.93607  -0.92843  -0.92481
 Alpha  occ. eigenvalues --   -0.90837  -0.90026  -0.87857  -0.87579  -0.85676
 Alpha  occ. eigenvalues --   -0.85539  -0.83368  -0.82815  -0.82042  -0.80422
 Alpha  occ. eigenvalues --   -0.79990  -0.78288  -0.77752  -0.76568  -0.76125
 Alpha  occ. eigenvalues --   -0.76034  -0.75378  -0.75016  -0.74692  -0.73679
 Alpha  occ. eigenvalues --   -0.73142  -0.72467  -0.71821  -0.71493  -0.71450
 Alpha  occ. eigenvalues --   -0.70221  -0.69104  -0.69091  -0.68322  -0.67661
 Alpha  occ. eigenvalues --   -0.66761  -0.66408  -0.66327  -0.65874  -0.65629
 Alpha  occ. eigenvalues --   -0.65430  -0.64961  -0.64066  -0.63820  -0.63197
 Alpha  occ. eigenvalues --   -0.62838  -0.62643  -0.62576  -0.62427  -0.61980
 Alpha  occ. eigenvalues --   -0.61595  -0.61477  -0.60890  -0.59973  -0.59731
 Alpha  occ. eigenvalues --   -0.59372  -0.58948  -0.58886  -0.58395  -0.58101
 Alpha  occ. eigenvalues --   -0.57702  -0.57263  -0.57193  -0.56746  -0.56284
 Alpha  occ. eigenvalues --   -0.55997  -0.55759  -0.55387  -0.54534  -0.54211
 Alpha  occ. eigenvalues --   -0.53712  -0.53450  -0.53201  -0.52966  -0.52779
 Alpha  occ. eigenvalues --   -0.52723  -0.51923  -0.51839  -0.51176  -0.50955
 Alpha  occ. eigenvalues --   -0.50831  -0.50684  -0.50082  -0.49991  -0.49896
 Alpha  occ. eigenvalues --   -0.49669  -0.49497  -0.49299  -0.49086  -0.49033
 Alpha  occ. eigenvalues --   -0.48865  -0.48663  -0.48453  -0.47960  -0.47787
 Alpha  occ. eigenvalues --   -0.47650  -0.47561  -0.47449  -0.46965  -0.46782
 Alpha  occ. eigenvalues --   -0.46287  -0.46243  -0.45975  -0.45720  -0.45095
 Alpha  occ. eigenvalues --   -0.44980  -0.44775  -0.44493  -0.44024  -0.43243
 Alpha  occ. eigenvalues --   -0.43200  -0.42144  -0.41966  -0.41714  -0.41506
 Alpha  occ. eigenvalues --   -0.41128  -0.40940  -0.40720  -0.38935  -0.38683
 Alpha  occ. eigenvalues --   -0.37876  -0.36689  -0.35954  -0.34683  -0.33886
 Alpha  occ. eigenvalues --   -0.33463  -0.32451  -0.32332  -0.31764  -0.26649
 Alpha  occ. eigenvalues --   -0.22011
 Alpha virt. eigenvalues --   -0.08499  -0.01617  -0.00488   0.01339   0.01661
 Alpha virt. eigenvalues --    0.02732   0.03280   0.03908   0.05100   0.05364
 Alpha virt. eigenvalues --    0.05791   0.06541   0.06878   0.07406   0.08208

 Mulliken charges:
               1
     1  Mg   0.429677
     2  C   -0.034480
     3  C   -0.084170
     4  C   -0.078549
     5  C   -0.058137
     6  N   -0.288792
     7  C    0.086672
     8  C   -0.000018
     9  C    0.003788
    10  C    0.188382
    11  C   -0.053943
    12  C   -0.022297
    13  C    0.008580
    14  C    0.470419
    15  O   -0.526032
    16  O   -0.276922
    17  N   -0.354334
    18  C    0.124684
    19  C    0.025747
    20  C   -0.052696
    21  C    0.156881
    22  C   -0.037158
    23  C    0.330176
    24  O   -0.493199
    25  C   -0.041265
    26  N   -0.266374
    27  C    0.193936
    28  C    0.019954
    29  C   -0.008122
    30  C    0.098333
    31  C   -0.042807
    32  C   -0.029600
    33  C   -0.059657
    34  N   -0.298330
    35  C    0.059161
    36  C    0.005438
    37  C   -0.065381
    38  C    0.090299
    39  C   -0.036914
    40  C    0.333941
    41  O   -0.527269
    42  C    0.062913
    43  C    0.502801
    44  O   -0.533049
    45  O   -0.271634
    46  C    0.069094
    47  C    0.106312
    48  C   -0.064816
    49  C   -0.010907
    50  C   -0.041939
    51  C   -0.037766
    52  C   -0.032632
    53  C   -0.027697
    54  C   -0.020217
    55  C   -0.053650
    56  C   -0.041299
    57  C   -0.043476
    58  C   -0.028998
    59  C   -0.007469
    60  C   -0.068356
    61  C   -0.028391
    62  C   -0.045417
    63  C   -0.049378
    64  C    0.001404
    65  C   -0.053906
    66  C   -0.047161
    67  H    0.014001
    68  H    0.037502
    69  H    0.020613
    70  H    0.033812
    71  H    0.039315
    72  H    0.028612
    73  H    0.014852
    74  H    0.018994
    75  H    0.042208
    76  H    0.029444
    77  H    0.034332
    78  H    0.040986
    79  H    0.035056
    80  H    0.035471
    81  H    0.025853
    82  H    0.045378
    83  H    0.038201
    84  H    0.029621
    85  H    0.022898
    86  H    0.026616
    87  H    0.022893
    88  H    0.026255
    89  H    0.021234
    90  H    0.011112
    91  H    0.035148
    92  H    0.014568
    93  H    0.022998
    94  H    0.027693
    95  H    0.017435
    96  H    0.033478
    97  H    0.037549
    98  H    0.054814
    99  H    0.053844
   100  H    0.045771
   101  H    0.031250
   102  H    0.038064
   103  H    0.043649
   104  H    0.033413
   105  H    0.027443
   106  H    0.029967
   107  H    0.024662
   108  H    0.017808
   109  H    0.021164
   110  H    0.016293
   111  H    0.026490
   112  H    0.031839
   113  H    0.022053
   114  H    0.014639
   115  H    0.019547
   116  H    0.025548
   117  H    0.019332
   118  H    0.006938
   119  H    0.015322
   120  H    0.026792
   121  H    0.005354
   122  H    0.010355
   123  H    0.029511
   124  H    0.026533
   125  H    0.016608
   126  H    0.007694
   127  H    0.026849
   128  H    0.014827
   129  H    0.013945
   130  H    0.020784
   131  H    0.012518
   132  H    0.012794
   133  H    0.033746
   134  H    0.023737
   135  H    0.026938
   136  H    0.016595
   137  H    0.015415
   138  H    0.011521
   139  H    0.014224
   140  H    0.005292
 Sum of Mulliken charges =  -0.00000

 Dipole moment (field-independent basis, Debye):
    X=             -2.0032    Y=              7.7958    Z=             -3.0160  Tot=              8.5956
 N-N= 4.243886999511D+03 E-N= 0.000000000000D+00  KE=-9.162668707165D+03
 Leave Link  601 at Wed Apr 27 22:56:32 2022, MaxMem=  6710886400 cpu:               2.7 elap:               0.1
 (Enter /sw/apps/gaussian-16.0/g16/l9999.exe)
 1\1\GINC-BP1-COMPUTE179\SP\RZINDO CIS\STO-3G\C55H74Mg1N4O6\OF15641\27-
 Apr-2022\0\\#p ZINDO=(nstates=5)\\step_1351_chromophore_1 ZINDO\\0,1\M
 g,0,-1.5,17.385,26.736\C,0,-1.574,15.361,29.41\C,0,-1.884,20.122,29.04
 3\C,0,-1.915,19.622,24.135\C,0,-1.445,14.911,24.513\N,0,-1.535,17.787,
 29.007\C,0,-1.691,16.696,29.86\C,0,-2.03,17.196,31.273\C,0,-2.221,18.7
 81,31.06\C,0,-1.853,18.915,29.633\C,0,-3.688,19.279,31.355\C,0,-0.921,
 16.841,32.391\C,0,-0.773,17.667,33.665\C,0,-0.809,16.984,35.019\O,0,-1

 Normal termination of Gaussian 16 at Wed Apr 27 22:56:32 2022.
