 Gaussian 16, Revision A.03,
 Gaussian 16:  ES64L-G16RevA.03 25-Dec-2016

 ------------------------------
 #p blyp/Def2SVP td=(nstates=5)
 ------------------------------

 --------------------------------------------------
 step_1151_chromophore_2 TDDFT with blyp functional
 --------------------------------------------------
 Symbolic Z-matrix:
 Charge =  0 Multiplicity = 1

                         Standard orientation:
 ---------------------------------------------------------------------
 Center     Atomic      Atomic             Coordinates (Angstroms)
 Number     Number       Type             X           Y           Z
 ---------------------------------------------------------------------
      1         12           0       -4.847364    1.148119    0.575002
      2          6           0       -5.300449   -2.323033    0.487241
      3          6           0       -2.579504    0.595840    3.092247
      4          6           0       -3.661284    4.195694    0.151805
      5          6           0       -6.728308    1.482613   -2.354686
      6          7           0       -3.894957   -0.704615    1.542259
      7          6           0       -4.242070   -1.988414    1.277653
      8          6           0       -3.430847   -2.964540    2.138296
      9          6           0       -2.804628   -1.975239    3.261616
     10          6           0       -3.066242   -0.628958    2.548767
     11          6           0       -3.638727   -2.109365    4.597248
     12          6           0       -2.403963   -3.852260    1.289858
     13          6           0       -1.969476   -3.203402   -0.104952
     14          6           0       -0.722451   -3.666844   -0.795014
     15          8           0       -0.057432   -4.619889   -0.511554
     16          8           0       -0.653035   -3.092733   -2.028397
     17          7           0       -3.403206    2.301574    1.591281
     18          6           0       -2.677695    1.908910    2.639550
     19          6           0       -2.001817    3.099333    3.190597
     20          6           0       -2.368705    4.192514    2.353733
     21          6           0       -3.148046    3.577474    1.284798
     22          6           0       -1.163284    3.068912    4.377471
     23          6           0       -1.962926    5.631147    2.575679
     24          8           0       -1.242887    5.908927    3.521376
     25          6           0       -2.449269    6.675317    1.634137
     26          7           0       -4.900304    2.587388   -1.088633
     27          6           0       -4.481750    3.850751   -0.915731
     28          6           0       -5.033628    4.848163   -1.920808
     29          6           0       -5.917564    3.927869   -2.805346
     30          6           0       -5.829445    2.574503   -2.121262
     31          6           0       -5.701104    6.133125   -1.426115
     32          6           0       -5.407178    3.764001   -4.280815
     33          6           0       -6.411860    4.067844   -5.367884
     34          7           0       -5.894820   -0.141461   -0.664858
     35          6           0       -6.696057    0.185199   -1.748666
     36          6           0       -7.426580   -0.983684   -2.066724
     37          6           0       -6.925679   -2.013147   -1.276512
     38          6           0       -5.957797   -1.448174   -0.438552
     39          6           0       -8.404396   -1.000015   -3.219490
     40          6           0       -7.117072   -3.360709   -0.914142
     41          8           0       -7.907937   -4.216591   -1.357859
     42          6           0       -5.972551   -3.672379    0.169833
     43          6           0       -6.663731   -4.252062    1.339950
     44          8           0       -6.955820   -5.443179    1.523036
     45          8           0       -6.929143   -3.252242    2.215393
     46          6           0       -7.231869   -3.523905    3.585131
     47          6           0        0.628465   -3.445355   -2.671054
     48          6           0        1.712386   -2.537556   -2.088189
     49          6           0        2.941439   -2.370432   -2.527228
     50          6           0        3.596793   -3.421378   -3.410613
     51          6           0        3.847567   -1.116235   -2.174330
     52          6           0        4.998604   -1.255797   -1.154624
     53          6           0        6.471063   -0.882539   -1.591857
     54          6           0        7.100601    0.134117   -0.651767
     55          6           0        6.401702    1.519399   -0.720499
     56          6           0        8.645412    0.224319   -0.855012
     57          6           0        9.321857   -0.351049    0.334019
     58          6           0       10.542061    0.537526    0.893407
     59          6           0       11.837552   -0.234561    1.212064
     60          6           0       11.962432   -0.710159    2.689837
     61          6           0       13.072344    0.745924    0.935200
     62          6           0       13.954911    0.189106   -0.278442
     63          6           0       15.254788    1.040675   -0.411992
     64          6           0       16.526501    0.103639   -0.499000
     65          6           0       17.714087    0.733394    0.199782
     66          6           0       16.800438   -0.625844   -1.864029
     67          1           0       -1.802957    0.390590    3.832219
     68          1           0       -3.337029    5.219477   -0.047522
     69          1           0       -7.437662    1.710447   -3.153011
     70          1           0       -4.116738   -3.621512    2.673795
     71          1           0       -1.748310   -2.218460    3.372747
     72          1           0       -2.966905   -1.922359    5.434916
     73          1           0       -3.941417   -3.149723    4.714946
     74          1           0       -4.439979   -1.370924    4.620068
     75          1           0       -2.755500   -4.864040    1.089088
     76          1           0       -1.527753   -3.995991    1.921370
     77          1           0       -1.866027   -2.127713    0.032270
     78          1           0       -2.765332   -3.529766   -0.774307
     79          1           0       -1.884050    3.246584    5.176009
     80          1           0       -0.340820    3.784593    4.376861
     81          1           0       -0.855315    2.043514    4.578671
     82          1           0       -3.511448    6.505831    1.462369
     83          1           0       -1.815492    6.623997    0.749204
     84          1           0       -2.290151    7.566602    2.241869
     85          1           0       -4.188054    5.154020   -2.536114
     86          1           0       -6.949083    4.276067   -2.747984
     87          1           0       -5.624160    6.200456   -0.341488
     88          1           0       -6.766828    6.159762   -1.653662
     89          1           0       -5.258691    7.008571   -1.902369
     90          1           0       -5.011779    2.771609   -4.500137
     91          1           0       -4.645595    4.528493   -4.436162
     92          1           0       -7.367760    4.426692   -4.987311
     93          1           0       -6.557554    3.196871   -6.007275
     94          1           0       -6.033266    4.890426   -5.975650
     95          1           0       -8.551071   -1.966760   -3.701970
     96          1           0       -8.023841   -0.358449   -4.013383
     97          1           0       -9.317793   -0.503868   -2.894120
     98          1           0       -5.332976   -4.477661   -0.192608
     99          1           0       -6.392156   -3.289005    4.239258
    100          1           0       -7.433705   -4.585956    3.723270
    101          1           0       -8.172421   -3.013795    3.793948
    102          1           0        0.367809   -3.158448   -3.689617
    103          1           0        0.976945   -4.478265   -2.661267
    104          1           0        1.313840   -1.721668   -1.485094
    105          1           0        3.447429   -3.246323   -4.476562
    106          1           0        3.101115   -4.334790   -3.084434
    107          1           0        4.661203   -3.566608   -3.227494
    108          1           0        3.117469   -0.482975   -1.668836
    109          1           0        4.101932   -0.693747   -3.145296
    110          1           0        4.928130   -2.331722   -0.988960
    111          1           0        4.717372   -0.728435   -0.243141
    112          1           0        6.500127   -0.637613   -2.653092
    113          1           0        7.044102   -1.809998   -1.562324
    114          1           0        6.879819   -0.205933    0.360554
    115          1           0        7.033920    2.326119   -1.090756
    116          1           0        6.063687    1.660969    0.305664
    117          1           0        5.593260    1.456849   -1.448649
    118          1           0        9.026606    1.243692   -0.916091
    119          1           0        9.030757   -0.258927   -1.752959
    120          1           0        9.704967   -1.322228    0.022111
    121          1           0        8.729210   -0.524092    1.231422
    122          1           0       10.316730    0.908959    1.892643
    123          1           0       10.675053    1.390509    0.228181
    124          1           0       11.939893   -1.107314    0.566897
    125          1           0       12.740374   -1.469618    2.625581
    126          1           0       11.012150   -1.130057    3.017892
    127          1           0       12.193851    0.156303    3.310465
    128          1           0       13.768661    0.717325    1.773480
    129          1           0       12.728239    1.773366    0.814373
    130          1           0       13.388358    0.212276   -1.209920
    131          1           0       14.132986   -0.883515   -0.199349
    132          1           0       15.358466    1.695185    0.454106
    133          1           0       15.156764    1.658164   -1.303802
    134          1           0       16.244305   -0.612481    0.272621
    135          1           0       18.000800    0.191262    1.100132
    136          1           0       17.589403    1.780437    0.475987
    137          1           0       18.620449    0.523047   -0.367206
    138          1           0       16.108106   -0.263246   -2.623380
    139          1           0       16.684703   -1.691974   -1.664742
    140          1           0       17.823746   -0.636716   -2.240781
 ---------------------------------------------------------------------

 SCF Done:  E(RB-LYP) =  -3007.35005886     A.U. after   22 cycles

 Excitation energies and oscillator strengths:

 Excited State   1:      Singlet-A      1.8182 eV  681.91 nm  f=0.0696  <S**2>=0.000
     244 -> 247        0.53077
     245 -> 247        0.25208
     246 -> 247       -0.38029
 This state for optimization and/or second-order correction.
 Total Energy, E(TD-HF/TD-DFT) =  -3007.28324148
 Copying the excited state density for this state as the 1-particle RhoCI density.

 Excited State   2:      Singlet-A      1.8653 eV  664.69 nm  f=0.2124  <S**2>=0.000
     244 -> 247        0.35251
     245 -> 247        0.16394
     245 -> 248        0.15407
     246 -> 247        0.56913
     246 <- 247       -0.11458

 Excited State   3:      Singlet-A      2.0368 eV  608.73 nm  f=0.0549  <S**2>=0.000
     243 -> 247       -0.31444
     244 -> 247       -0.27223
     245 -> 247        0.52178
     246 -> 248       -0.19197

 Excited State   4:      Singlet-A      2.0948 eV  591.87 nm  f=0.0193  <S**2>=0.000
     243 -> 247        0.63092
     244 -> 247       -0.11879
     245 -> 247        0.25673
     246 -> 248       -0.10810

 Excited State   5:      Singlet-A      2.4624 eV  503.51 nm  f=0.0000  <S**2>=0.000
     241 -> 247        0.70635

 The electronic state is 1-A.
 Alpha  occ. eigenvalues --  -46.28838 -18.81784 -18.81649 -18.76558 -18.75943
 Alpha  occ. eigenvalues --  -18.75815 -18.75289 -14.03529 -14.03319 -14.01400
 Alpha  occ. eigenvalues --  -14.00887 -10.03415 -10.03382 -10.00022  -9.99308
 Alpha  occ. eigenvalues --   -9.97866  -9.97717  -9.97007  -9.96854  -9.96820
 Alpha  occ. eigenvalues --   -9.96336  -9.96187  -9.95929  -9.95358  -9.95072
 Alpha  occ. eigenvalues --   -9.94589  -9.94533  -9.94377  -9.94376  -9.94098
 Alpha  occ. eigenvalues --   -9.93945  -9.93762  -9.93696  -9.93633  -9.93616
 Alpha  occ. eigenvalues --   -9.93616  -9.93461  -9.93078  -9.93013  -9.92968
 Alpha  occ. eigenvalues --   -9.92555  -9.92469  -9.92397  -9.92337  -9.92097
 Alpha  occ. eigenvalues --   -9.91999  -9.91998  -9.91977  -9.91904  -9.91716
 Alpha  occ. eigenvalues --   -9.91680  -9.91644  -9.91524  -9.91333  -9.91225
 Alpha  occ. eigenvalues --   -9.91224  -9.91185  -9.91097  -9.91012  -9.90898
 Alpha  occ. eigenvalues --   -9.90760  -9.90674  -9.90645  -9.90567  -9.90516
 Alpha  occ. eigenvalues --   -9.90140  -2.93317  -1.73694  -1.73255  -1.73004
 Alpha  occ. eigenvalues --   -0.98816  -0.97985  -0.92204  -0.90275  -0.89672
 Alpha  occ. eigenvalues --   -0.88665  -0.87982  -0.87280  -0.86711  -0.86071
 Alpha  occ. eigenvalues --   -0.75608  -0.73274  -0.73230  -0.72552  -0.72519
 Alpha  occ. eigenvalues --   -0.71895  -0.71572  -0.71215  -0.70771  -0.70390
 Alpha  occ. eigenvalues --   -0.70190  -0.69375  -0.68550  -0.68158  -0.67685
 Alpha  occ. eigenvalues --   -0.67068  -0.66138  -0.65615  -0.65367  -0.64681
 Alpha  occ. eigenvalues --   -0.63942  -0.62819  -0.62483  -0.62149  -0.61285
 Alpha  occ. eigenvalues --   -0.60616  -0.60408  -0.60303  -0.59327  -0.58754
 Alpha  occ. eigenvalues --   -0.58242  -0.58037  -0.57401  -0.56018  -0.54643
 Alpha  occ. eigenvalues --   -0.54407  -0.53347  -0.53016  -0.52242  -0.52124
 Alpha  occ. eigenvalues --   -0.51709  -0.51331  -0.50934  -0.50742  -0.49807
 Alpha  occ. eigenvalues --   -0.49723  -0.49291  -0.48435  -0.48218  -0.46989
 Alpha  occ. eigenvalues --   -0.46559  -0.46272  -0.45878  -0.45616  -0.44683
 Alpha  occ. eigenvalues --   -0.44402  -0.43594  -0.43256  -0.43110  -0.42866
 Alpha  occ. eigenvalues --   -0.42437  -0.42364  -0.41766  -0.41184  -0.41032
 Alpha  occ. eigenvalues --   -0.40785  -0.40741  -0.40678  -0.40536  -0.40449
 Alpha  occ. eigenvalues --   -0.40280  -0.39929  -0.39584  -0.39444  -0.39197
 Alpha  occ. eigenvalues --   -0.38924  -0.38909  -0.38819  -0.38624  -0.38439
 Alpha  occ. eigenvalues --   -0.37974  -0.37814  -0.37653  -0.37399  -0.37285
 Alpha  occ. eigenvalues --   -0.37073  -0.36970  -0.36768  -0.36694  -0.36575
 Alpha  occ. eigenvalues --   -0.36366  -0.36142  -0.35909  -0.35809  -0.35712
 Alpha  occ. eigenvalues --   -0.35592  -0.35283  -0.35181  -0.35008  -0.34837
 Alpha  occ. eigenvalues --   -0.34755  -0.34596  -0.34276  -0.34042  -0.33982
 Alpha  occ. eigenvalues --   -0.33940  -0.33742  -0.33540  -0.33418  -0.33279
 Alpha  occ. eigenvalues --   -0.33100  -0.32905  -0.32778  -0.32616  -0.32461
 Alpha  occ. eigenvalues --   -0.32223  -0.31852  -0.31669  -0.31583  -0.31496
 Alpha  occ. eigenvalues --   -0.31464  -0.31306  -0.31198  -0.31144  -0.30836
 Alpha  occ. eigenvalues --   -0.30592  -0.30521  -0.30367  -0.30291  -0.30102
 Alpha  occ. eigenvalues --   -0.29927  -0.29693  -0.29619  -0.29200  -0.28820
 Alpha  occ. eigenvalues --   -0.28772  -0.28544  -0.28298  -0.28158  -0.27797
 Alpha  occ. eigenvalues --   -0.27736  -0.27425  -0.27395  -0.26772  -0.26349
 Alpha  occ. eigenvalues --   -0.26200  -0.26126  -0.25852  -0.25243  -0.24808
 Alpha  occ. eigenvalues --   -0.24552  -0.24424  -0.24233  -0.24208  -0.23825
 Alpha  occ. eigenvalues --   -0.22627  -0.22557  -0.21747  -0.21114  -0.20812
 Alpha  occ. eigenvalues --   -0.20721  -0.20494  -0.19235  -0.18400  -0.17492
 Alpha  occ. eigenvalues --   -0.16229
 Alpha virt. eigenvalues --   -0.11672  -0.07197  -0.06444  -0.04936  -0.04754
 Alpha virt. eigenvalues --   -0.02826  -0.02191  -0.01607  -0.00872   0.00021
 Alpha virt. eigenvalues --    0.00654   0.01863   0.01942   0.02823   0.02992

 Mulliken charges:
               1
     1  Mg   0.695055
     2  C    0.111033
     3  C   -0.070705
     4  C   -0.053017
     5  C   -0.070878
     6  N   -0.137102
     7  C   -0.122342
     8  C    0.018051
     9  C   -0.012350
    10  C   -0.054223
    11  C    0.123121
    12  C    0.100940
    13  C    0.084604
    14  C    0.072349
    15  O   -0.160997
    16  O   -0.274555
    17  N   -0.237059
    18  C    0.140481
    19  C   -0.151394
    20  C    0.041983
    21  C    0.150395
    22  C    0.214911
    23  C   -0.129673
    24  O   -0.159287
    25  C    0.160565
    26  N   -0.214177
    27  C   -0.096435
    28  C    0.072647
    29  C    0.015048
    30  C   -0.008559
    31  C    0.143874
    32  C    0.097487
    33  C    0.059480
    34  N   -0.259291
    35  C    0.133773
    36  C   -0.179922
    37  C    0.161023
    38  C    0.011895
    39  C    0.183829
    40  C   -0.069824
    41  O   -0.146702
    42  C    0.002631
    43  C    0.096479
    44  O   -0.176395
    45  O   -0.262528
    46  C    0.208560
    47  C    0.324484
    48  C   -0.089717
    49  C   -0.199098
    50  C    0.130465
    51  C    0.139124
    52  C    0.071371
    53  C    0.116996
    54  C   -0.095312
    55  C    0.117624
    56  C    0.150924
    57  C    0.046135
    58  C    0.081514
    59  C   -0.087216
    60  C    0.111039
    61  C    0.072034
    62  C    0.031431
    63  C    0.106253
    64  C   -0.102035
    65  C    0.110024
    66  C    0.124401
    67  H   -0.057264
    68  H   -0.082859
    69  H   -0.061673
    70  H   -0.031853
    71  H   -0.024331
    72  H   -0.008201
    73  H    0.009576
    74  H    0.014360
    75  H   -0.004667
    76  H   -0.020022
    77  H    0.020017
    78  H    0.025436
    79  H   -0.000959
    80  H    0.024244
    81  H   -0.031485
    82  H    0.011853
    83  H    0.030733
    84  H   -0.008457
    85  H   -0.024073
    86  H   -0.021014
    87  H   -0.005183
    88  H   -0.014441
    89  H   -0.005589
    90  H    0.000886
    91  H   -0.025699
    92  H   -0.016620
    93  H   -0.001802
    94  H   -0.013559
    95  H    0.008057
    96  H   -0.018475
    97  H   -0.006659
    98  H    0.007826
    99  H    0.006480
   100  H    0.009203
   101  H    0.016834
   102  H   -0.002528
   103  H    0.014751
   104  H   -0.041761
   105  H    0.004403
   106  H   -0.009964
   107  H   -0.009263
   108  H   -0.046817
   109  H   -0.018584
   110  H   -0.025490
   111  H   -0.019139
   112  H   -0.037132
   113  H   -0.044004
   114  H   -0.028340
   115  H   -0.014550
   116  H   -0.009203
   117  H   -0.019038
   118  H   -0.042533
   119  H   -0.032777
   120  H   -0.034098
   121  H   -0.024389
   122  H   -0.043301
   123  H   -0.025232
   124  H   -0.035979
   125  H   -0.006546
   126  H   -0.020552
   127  H   -0.006228
   128  H   -0.033184
   129  H   -0.021771
   130  H   -0.039268
   131  H   -0.026514
   132  H   -0.031109
   133  H   -0.030626
   134  H   -0.032127
   135  H   -0.031627
   136  H   -0.009721
   137  H   -0.039870
   138  H   -0.005596
   139  H   -0.017265
   140  H   -0.016891
 Sum of Mulliken charges =  -0.00000

 Dipole moment (field-independent basis, Debye):
    X=              1.1123    Y=              6.5679    Z=             -0.4821  Tot=              6.6789
 Quadrupole moment (field-independent basis, Debye-Ang):
   XX=           -420.1870   YY=           -443.0961   ZZ=           -385.3841
   XY=            -70.3990   XZ=            -14.2842   YZ=            -27.1610

 Normal termination of Gaussian 16 at Wed Apr 27 12:00:15 2022.
