 Gaussian 16, Revision A.03,
 Gaussian 16:  ES64L-G16RevA.03 25-Dec-2016

 -----------------------------------
 #p cam-b3lyp/Def2SVP td=(nstates=5)
 -----------------------------------

 -------------------------------------------------------
 step_1151_chromophore_2 TDDFT with cam-b3lyp functional
 -------------------------------------------------------
 Symbolic Z-matrix:
 Charge =  0 Multiplicity = 1

                         Standard orientation:
 ---------------------------------------------------------------------
 Center     Atomic      Atomic             Coordinates (Angstroms)
 Number     Number       Type             X           Y           Z
 ---------------------------------------------------------------------
      1         12           0       -4.847364    1.148119    0.575002
      2          6           0       -5.300449   -2.323033    0.487241
      3          6           0       -2.579504    0.595840    3.092247
      4          6           0       -3.661284    4.195694    0.151805
      5          6           0       -6.728308    1.482613   -2.354686
      6          7           0       -3.894957   -0.704615    1.542259
      7          6           0       -4.242070   -1.988414    1.277653
      8          6           0       -3.430847   -2.964540    2.138296
      9          6           0       -2.804628   -1.975239    3.261616
     10          6           0       -3.066242   -0.628958    2.548767
     11          6           0       -3.638727   -2.109365    4.597248
     12          6           0       -2.403963   -3.852260    1.289858
     13          6           0       -1.969476   -3.203402   -0.104952
     14          6           0       -0.722451   -3.666844   -0.795014
     15          8           0       -0.057432   -4.619889   -0.511554
     16          8           0       -0.653035   -3.092733   -2.028397
     17          7           0       -3.403206    2.301574    1.591281
     18          6           0       -2.677695    1.908910    2.639550
     19          6           0       -2.001817    3.099333    3.190597
     20          6           0       -2.368705    4.192514    2.353733
     21          6           0       -3.148046    3.577474    1.284798
     22          6           0       -1.163284    3.068912    4.377471
     23          6           0       -1.962926    5.631147    2.575679
     24          8           0       -1.242887    5.908927    3.521376
     25          6           0       -2.449269    6.675317    1.634137
     26          7           0       -4.900304    2.587388   -1.088633
     27          6           0       -4.481750    3.850751   -0.915731
     28          6           0       -5.033628    4.848163   -1.920808
     29          6           0       -5.917564    3.927869   -2.805346
     30          6           0       -5.829445    2.574503   -2.121262
     31          6           0       -5.701104    6.133125   -1.426115
     32          6           0       -5.407178    3.764001   -4.280815
     33          6           0       -6.411860    4.067844   -5.367884
     34          7           0       -5.894820   -0.141461   -0.664858
     35          6           0       -6.696057    0.185199   -1.748666
     36          6           0       -7.426580   -0.983684   -2.066724
     37          6           0       -6.925679   -2.013147   -1.276512
     38          6           0       -5.957797   -1.448174   -0.438552
     39          6           0       -8.404396   -1.000015   -3.219490
     40          6           0       -7.117072   -3.360709   -0.914142
     41          8           0       -7.907937   -4.216591   -1.357859
     42          6           0       -5.972551   -3.672379    0.169833
     43          6           0       -6.663731   -4.252062    1.339950
     44          8           0       -6.955820   -5.443179    1.523036
     45          8           0       -6.929143   -3.252242    2.215393
     46          6           0       -7.231869   -3.523905    3.585131
     47          6           0        0.628465   -3.445355   -2.671054
     48          6           0        1.712386   -2.537556   -2.088189
     49          6           0        2.941439   -2.370432   -2.527228
     50          6           0        3.596793   -3.421378   -3.410613
     51          6           0        3.847567   -1.116235   -2.174330
     52          6           0        4.998604   -1.255797   -1.154624
     53          6           0        6.471063   -0.882539   -1.591857
     54          6           0        7.100601    0.134117   -0.651767
     55          6           0        6.401702    1.519399   -0.720499
     56          6           0        8.645412    0.224319   -0.855012
     57          6           0        9.321857   -0.351049    0.334019
     58          6           0       10.542061    0.537526    0.893407
     59          6           0       11.837552   -0.234561    1.212064
     60          6           0       11.962432   -0.710159    2.689837
     61          6           0       13.072344    0.745924    0.935200
     62          6           0       13.954911    0.189106   -0.278442
     63          6           0       15.254788    1.040675   -0.411992
     64          6           0       16.526501    0.103639   -0.499000
     65          6           0       17.714087    0.733394    0.199782
     66          6           0       16.800438   -0.625844   -1.864029
     67          1           0       -1.802957    0.390590    3.832219
     68          1           0       -3.337029    5.219477   -0.047522
     69          1           0       -7.437662    1.710447   -3.153011
     70          1           0       -4.116738   -3.621512    2.673795
     71          1           0       -1.748310   -2.218460    3.372747
     72          1           0       -2.966905   -1.922359    5.434916
     73          1           0       -3.941417   -3.149723    4.714946
     74          1           0       -4.439979   -1.370924    4.620068
     75          1           0       -2.755500   -4.864040    1.089088
     76          1           0       -1.527753   -3.995991    1.921370
     77          1           0       -1.866027   -2.127713    0.032270
     78          1           0       -2.765332   -3.529766   -0.774307
     79          1           0       -1.884050    3.246584    5.176009
     80          1           0       -0.340820    3.784593    4.376861
     81          1           0       -0.855315    2.043514    4.578671
     82          1           0       -3.511448    6.505831    1.462369
     83          1           0       -1.815492    6.623997    0.749204
     84          1           0       -2.290151    7.566602    2.241869
     85          1           0       -4.188054    5.154020   -2.536114
     86          1           0       -6.949083    4.276067   -2.747984
     87          1           0       -5.624160    6.200456   -0.341488
     88          1           0       -6.766828    6.159762   -1.653662
     89          1           0       -5.258691    7.008571   -1.902369
     90          1           0       -5.011779    2.771609   -4.500137
     91          1           0       -4.645595    4.528493   -4.436162
     92          1           0       -7.367760    4.426692   -4.987311
     93          1           0       -6.557554    3.196871   -6.007275
     94          1           0       -6.033266    4.890426   -5.975650
     95          1           0       -8.551071   -1.966760   -3.701970
     96          1           0       -8.023841   -0.358449   -4.013383
     97          1           0       -9.317793   -0.503868   -2.894120
     98          1           0       -5.332976   -4.477661   -0.192608
     99          1           0       -6.392156   -3.289005    4.239258
    100          1           0       -7.433705   -4.585956    3.723270
    101          1           0       -8.172421   -3.013795    3.793948
    102          1           0        0.367809   -3.158448   -3.689617
    103          1           0        0.976945   -4.478265   -2.661267
    104          1           0        1.313840   -1.721668   -1.485094
    105          1           0        3.447429   -3.246323   -4.476562
    106          1           0        3.101115   -4.334790   -3.084434
    107          1           0        4.661203   -3.566608   -3.227494
    108          1           0        3.117469   -0.482975   -1.668836
    109          1           0        4.101932   -0.693747   -3.145296
    110          1           0        4.928130   -2.331722   -0.988960
    111          1           0        4.717372   -0.728435   -0.243141
    112          1           0        6.500127   -0.637613   -2.653092
    113          1           0        7.044102   -1.809998   -1.562324
    114          1           0        6.879819   -0.205933    0.360554
    115          1           0        7.033920    2.326119   -1.090756
    116          1           0        6.063687    1.660969    0.305664
    117          1           0        5.593260    1.456849   -1.448649
    118          1           0        9.026606    1.243692   -0.916091
    119          1           0        9.030757   -0.258927   -1.752959
    120          1           0        9.704967   -1.322228    0.022111
    121          1           0        8.729210   -0.524092    1.231422
    122          1           0       10.316730    0.908959    1.892643
    123          1           0       10.675053    1.390509    0.228181
    124          1           0       11.939893   -1.107314    0.566897
    125          1           0       12.740374   -1.469618    2.625581
    126          1           0       11.012150   -1.130057    3.017892
    127          1           0       12.193851    0.156303    3.310465
    128          1           0       13.768661    0.717325    1.773480
    129          1           0       12.728239    1.773366    0.814373
    130          1           0       13.388358    0.212276   -1.209920
    131          1           0       14.132986   -0.883515   -0.199349
    132          1           0       15.358466    1.695185    0.454106
    133          1           0       15.156764    1.658164   -1.303802
    134          1           0       16.244305   -0.612481    0.272621
    135          1           0       18.000800    0.191262    1.100132
    136          1           0       17.589403    1.780437    0.475987
    137          1           0       18.620449    0.523047   -0.367206
    138          1           0       16.108106   -0.263246   -2.623380
    139          1           0       16.684703   -1.691974   -1.664742
    140          1           0       17.823746   -0.636716   -2.240781
 ---------------------------------------------------------------------

 SCF Done:  E(RCAM-B3LYP) =  -3007.15321362     A.U. after   17 cycles

 Excitation energies and oscillator strengths:

 Excited State   1:      Singlet-A      1.8519 eV  669.49 nm  f=0.3429  <S**2>=0.000
     245 -> 248        0.17323
     246 -> 247        0.68486
 This state for optimization and/or second-order correction.
 Total Energy, E(TD-HF/TD-DFT) =  -3007.08515724
 Copying the excited state density for this state as the 1-particle RhoCI density.

 Excited State   2:      Singlet-A      2.3046 eV  537.99 nm  f=0.1015  <S**2>=0.000
     245 -> 247        0.63545
     246 -> 248       -0.29053

 Excited State   3:      Singlet-A      3.4530 eV  359.06 nm  f=0.0505  <S**2>=0.000
     241 -> 247        0.59382
     244 -> 247       -0.20913
     246 -> 248        0.25172

 Excited State   4:      Singlet-A      3.4864 eV  355.63 nm  f=0.0437  <S**2>=0.000
     243 -> 247       -0.25878
     243 -> 249        0.13286
     243 -> 250       -0.11997
     243 -> 251       -0.17361
     244 -> 247        0.50029
     246 -> 248        0.26322

 Excited State   5:      Singlet-A      3.5415 eV  350.09 nm  f=0.0201  <S**2>=0.000
     241 -> 247        0.13109
     243 -> 247       -0.19684
     246 -> 248       -0.11538
     246 -> 249        0.55899
     246 -> 250        0.29688

 The electronic state is 1-A.
 Alpha  occ. eigenvalues --  -46.90554 -19.24566 -19.24460 -19.19597 -19.19476
 Alpha  occ. eigenvalues --  -19.18748 -19.17846 -14.42561 -14.42170 -14.40129
 Alpha  occ. eigenvalues --  -14.38982 -10.38745 -10.38465 -10.35603 -10.34240
 Alpha  occ. eigenvalues --  -10.32008 -10.31868 -10.31758 -10.31614 -10.31484
 Alpha  occ. eigenvalues --  -10.31029 -10.30912 -10.30316 -10.29529 -10.29352
 Alpha  occ. eigenvalues --  -10.28800 -10.28668 -10.28649 -10.28200 -10.28131
 Alpha  occ. eigenvalues --  -10.28115 -10.27958 -10.27623 -10.27568 -10.27505
 Alpha  occ. eigenvalues --  -10.27495 -10.27473 -10.27428 -10.27329 -10.26750
 Alpha  occ. eigenvalues --  -10.26653 -10.26593 -10.26564 -10.26520 -10.26235
 Alpha  occ. eigenvalues --  -10.25782 -10.25598 -10.25534 -10.25467 -10.25416
 Alpha  occ. eigenvalues --  -10.25373 -10.25321 -10.25201 -10.25156 -10.25041
 Alpha  occ. eigenvalues --  -10.24960 -10.24841 -10.24829 -10.24732 -10.24525
 Alpha  occ. eigenvalues --  -10.24501 -10.24297 -10.24289 -10.24248 -10.23840
 Alpha  occ. eigenvalues --  -10.23729  -3.18925  -1.93780  -1.93412  -1.93198
 Alpha  occ. eigenvalues --   -1.17281  -1.16365  -1.11056  -1.08071  -1.07478
 Alpha  occ. eigenvalues --   -1.06498  -1.06061  -1.05285  -1.04259  -1.03382
 Alpha  occ. eigenvalues --   -0.92494  -0.90100  -0.90010  -0.89486  -0.89322
 Alpha  occ. eigenvalues --   -0.88635  -0.88296  -0.88011  -0.87822  -0.86980
 Alpha  occ. eigenvalues --   -0.86464  -0.85692  -0.84795  -0.84290  -0.83982
 Alpha  occ. eigenvalues --   -0.83369  -0.82221  -0.81627  -0.81092  -0.80536
 Alpha  occ. eigenvalues --   -0.79676  -0.78595  -0.78202  -0.77709  -0.76640
 Alpha  occ. eigenvalues --   -0.76013  -0.75812  -0.75687  -0.74634  -0.73849
 Alpha  occ. eigenvalues --   -0.73351  -0.73044  -0.72410  -0.70890  -0.69182
 Alpha  occ. eigenvalues --   -0.68809  -0.68106  -0.67749  -0.66511  -0.66319
 Alpha  occ. eigenvalues --   -0.65979  -0.65428  -0.65016  -0.64848  -0.63751
 Alpha  occ. eigenvalues --   -0.63383  -0.63329  -0.62147  -0.62115  -0.60745
 Alpha  occ. eigenvalues --   -0.60236  -0.59830  -0.59374  -0.59242  -0.57995
 Alpha  occ. eigenvalues --   -0.57879  -0.56996  -0.56530  -0.56288  -0.55944
 Alpha  occ. eigenvalues --   -0.55695  -0.55295  -0.54662  -0.54109  -0.53946
 Alpha  occ. eigenvalues --   -0.53835  -0.53713  -0.53368  -0.53353  -0.53128
 Alpha  occ. eigenvalues --   -0.53099  -0.52923  -0.52309  -0.52021  -0.51929
 Alpha  occ. eigenvalues --   -0.51613  -0.51358  -0.51240  -0.51134  -0.50853
 Alpha  occ. eigenvalues --   -0.50284  -0.50126  -0.49994  -0.49807  -0.49603
 Alpha  occ. eigenvalues --   -0.49559  -0.49234  -0.49014  -0.48834  -0.48758
 Alpha  occ. eigenvalues --   -0.48645  -0.48404  -0.48380  -0.48094  -0.47878
 Alpha  occ. eigenvalues --   -0.47755  -0.47656  -0.47373  -0.47071  -0.46868
 Alpha  occ. eigenvalues --   -0.46687  -0.46500  -0.46128  -0.45921  -0.45744
 Alpha  occ. eigenvalues --   -0.45687  -0.45553  -0.45232  -0.45106  -0.45090
 Alpha  occ. eigenvalues --   -0.44782  -0.44574  -0.44464  -0.44305  -0.44142
 Alpha  occ. eigenvalues --   -0.43995  -0.43572  -0.43337  -0.43251  -0.43023
 Alpha  occ. eigenvalues --   -0.42980  -0.42928  -0.42703  -0.42650  -0.42248
 Alpha  occ. eigenvalues --   -0.42059  -0.41831  -0.41674  -0.41580  -0.41316
 Alpha  occ. eigenvalues --   -0.41083  -0.40882  -0.40758  -0.40414  -0.40355
 Alpha  occ. eigenvalues --   -0.39907  -0.39829  -0.39349  -0.39201  -0.38789
 Alpha  occ. eigenvalues --   -0.38640  -0.38365  -0.38209  -0.37773  -0.37448
 Alpha  occ. eigenvalues --   -0.37125  -0.37003  -0.36888  -0.36258  -0.35932
 Alpha  occ. eigenvalues --   -0.35454  -0.35111  -0.34793  -0.34715  -0.34083
 Alpha  occ. eigenvalues --   -0.33884  -0.33207  -0.32832  -0.32021  -0.31462
 Alpha  occ. eigenvalues --   -0.30636  -0.30464  -0.29977  -0.29298  -0.24463
 Alpha  occ. eigenvalues --   -0.21696
 Alpha virt. eigenvalues --   -0.08610  -0.02010  -0.00464   0.00603   0.02089
 Alpha virt. eigenvalues --    0.04962   0.05300   0.05880   0.06755   0.06913
 Alpha virt. eigenvalues --    0.07383   0.08231   0.08372   0.09028   0.09179

 Mulliken charges:
               1
     1  Mg   0.825758
     2  C    0.092088
     3  C   -0.084860
     4  C   -0.095485
     5  C   -0.074395
     6  N   -0.202568
     7  C   -0.089103
     8  C   -0.026481
     9  C   -0.064158
    10  C   -0.029111
    11  C    0.065115
    12  C    0.059541
    13  C    0.015251
    14  C    0.150988
    15  O   -0.201031
    16  O   -0.335167
    17  N   -0.331958
    18  C    0.152989
    19  C   -0.148944
    20  C   -0.029697
    21  C    0.190882
    22  C    0.152503
    23  C   -0.039450
    24  O   -0.198875
    25  C    0.070542
    26  N   -0.283583
    27  C   -0.050863
    28  C    0.010870
    29  C   -0.042127
    30  C    0.007365
    31  C    0.082318
    32  C    0.043628
    33  C   -0.002266
    34  N   -0.347747
    35  C    0.126638
    36  C   -0.172420
    37  C    0.076285
    38  C    0.045882
    39  C    0.127312
    40  C    0.026312
    41  O   -0.190508
    42  C   -0.075324
    43  C    0.188775
    44  O   -0.217571
    45  O   -0.324715
    46  C    0.174295
    47  C    0.285167
    48  C   -0.113281
    49  C   -0.214807
    50  C    0.067727
    51  C    0.086098
    52  C    0.012512
    53  C    0.066445
    54  C   -0.153533
    55  C    0.059997
    56  C    0.092261
    57  C   -0.004622
    58  C    0.029854
    59  C   -0.140065
    60  C    0.053735
    61  C    0.020887
    62  C   -0.017841
    63  C    0.053222
    64  C   -0.164225
    65  C    0.050161
    66  C    0.062484
    67  H   -0.023669
    68  H   -0.046756
    69  H   -0.027378
    70  H    0.001315
    71  H    0.011416
    72  H    0.017788
    73  H    0.032692
    74  H    0.038478
    75  H    0.024630
    76  H    0.010064
    77  H    0.045948
    78  H    0.054896
    79  H    0.030319
    80  H    0.056221
    81  H   -0.002438
    82  H    0.038528
    83  H    0.059272
    84  H    0.029618
    85  H    0.012986
    86  H    0.012849
    87  H    0.018029
    88  H    0.012910
    89  H    0.020205
    90  H    0.031212
    91  H    0.001115
    92  H    0.006103
    93  H    0.021811
    94  H    0.009921
    95  H    0.034334
    96  H    0.003973
    97  H    0.017700
    98  H    0.046946
    99  H    0.021883
   100  H    0.037286
   101  H    0.039544
   102  H    0.028684
   103  H    0.045677
   104  H   -0.009114
   105  H    0.029205
   106  H    0.012818
   107  H    0.014240
   108  H   -0.015935
   109  H    0.008917
   110  H    0.004321
   111  H    0.008257
   112  H   -0.008663
   113  H   -0.014012
   114  H    0.003208
   115  H    0.010001
   116  H    0.013589
   117  H    0.003537
   118  H   -0.013259
   119  H   -0.002826
   120  H   -0.006160
   121  H    0.002573
   122  H   -0.014512
   123  H    0.001535
   124  H   -0.005922
   125  H    0.016865
   126  H    0.003263
   127  H    0.016042
   128  H   -0.005440
   129  H    0.005691
   130  H   -0.011479
   131  H   -0.000306
   132  H   -0.002609
   133  H   -0.002219
   134  H   -0.000304
   135  H   -0.006300
   136  H    0.014160
   137  H   -0.014071
   138  H    0.017103
   139  H    0.006460
   140  H    0.008126
 Sum of Mulliken charges =  -0.00000

 Dipole moment (field-independent basis, Debye):
    X=              1.9771    Y=              7.7402    Z=              0.4602  Tot=              8.0020
 Quadrupole moment (field-independent basis, Debye-Ang):
   XX=           -427.4731   YY=           -439.5356   ZZ=           -382.6161
   XY=            -75.9561   XZ=            -18.0216   YZ=            -27.3536

 Normal termination of Gaussian 16 at Wed Apr 27 11:05:00 2022.
