 Gaussian 16, Revision A.03,
 Gaussian 16:  ES64L-G16RevA.03 25-Dec-2016

 ---------------------------------
 #p PBE1PBE/Def2SVP td=(nstates=5)
 ---------------------------------

 -----------------------------------------------------
 step_1151_chromophore_2 TDDFT with PBE1PBE functional
 -----------------------------------------------------
 Symbolic Z-matrix:
 Charge =  0 Multiplicity = 1

                         Standard orientation:
 ---------------------------------------------------------------------
 Center     Atomic      Atomic             Coordinates (Angstroms)
 Number     Number       Type             X           Y           Z
 ---------------------------------------------------------------------
      1         12           0       -4.847364    1.148119    0.575002
      2          6           0       -5.300449   -2.323033    0.487241
      3          6           0       -2.579504    0.595840    3.092247
      4          6           0       -3.661284    4.195694    0.151805
      5          6           0       -6.728308    1.482613   -2.354686
      6          7           0       -3.894957   -0.704615    1.542259
      7          6           0       -4.242070   -1.988414    1.277653
      8          6           0       -3.430847   -2.964540    2.138296
      9          6           0       -2.804628   -1.975239    3.261616
     10          6           0       -3.066242   -0.628958    2.548767
     11          6           0       -3.638727   -2.109365    4.597248
     12          6           0       -2.403963   -3.852260    1.289858
     13          6           0       -1.969476   -3.203402   -0.104952
     14          6           0       -0.722451   -3.666844   -0.795014
     15          8           0       -0.057432   -4.619889   -0.511554
     16          8           0       -0.653035   -3.092733   -2.028397
     17          7           0       -3.403206    2.301574    1.591281
     18          6           0       -2.677695    1.908910    2.639550
     19          6           0       -2.001817    3.099333    3.190597
     20          6           0       -2.368705    4.192514    2.353733
     21          6           0       -3.148046    3.577474    1.284798
     22          6           0       -1.163284    3.068912    4.377471
     23          6           0       -1.962926    5.631147    2.575679
     24          8           0       -1.242887    5.908927    3.521376
     25          6           0       -2.449269    6.675317    1.634137
     26          7           0       -4.900304    2.587388   -1.088633
     27          6           0       -4.481750    3.850751   -0.915731
     28          6           0       -5.033628    4.848163   -1.920808
     29          6           0       -5.917564    3.927869   -2.805346
     30          6           0       -5.829445    2.574503   -2.121262
     31          6           0       -5.701104    6.133125   -1.426115
     32          6           0       -5.407178    3.764001   -4.280815
     33          6           0       -6.411860    4.067844   -5.367884
     34          7           0       -5.894820   -0.141461   -0.664858
     35          6           0       -6.696057    0.185199   -1.748666
     36          6           0       -7.426580   -0.983684   -2.066724
     37          6           0       -6.925679   -2.013147   -1.276512
     38          6           0       -5.957797   -1.448174   -0.438552
     39          6           0       -8.404396   -1.000015   -3.219490
     40          6           0       -7.117072   -3.360709   -0.914142
     41          8           0       -7.907937   -4.216591   -1.357859
     42          6           0       -5.972551   -3.672379    0.169833
     43          6           0       -6.663731   -4.252062    1.339950
     44          8           0       -6.955820   -5.443179    1.523036
     45          8           0       -6.929143   -3.252242    2.215393
     46          6           0       -7.231869   -3.523905    3.585131
     47          6           0        0.628465   -3.445355   -2.671054
     48          6           0        1.712386   -2.537556   -2.088189
     49          6           0        2.941439   -2.370432   -2.527228
     50          6           0        3.596793   -3.421378   -3.410613
     51          6           0        3.847567   -1.116235   -2.174330
     52          6           0        4.998604   -1.255797   -1.154624
     53          6           0        6.471063   -0.882539   -1.591857
     54          6           0        7.100601    0.134117   -0.651767
     55          6           0        6.401702    1.519399   -0.720499
     56          6           0        8.645412    0.224319   -0.855012
     57          6           0        9.321857   -0.351049    0.334019
     58          6           0       10.542061    0.537526    0.893407
     59          6           0       11.837552   -0.234561    1.212064
     60          6           0       11.962432   -0.710159    2.689837
     61          6           0       13.072344    0.745924    0.935200
     62          6           0       13.954911    0.189106   -0.278442
     63          6           0       15.254788    1.040675   -0.411992
     64          6           0       16.526501    0.103639   -0.499000
     65          6           0       17.714087    0.733394    0.199782
     66          6           0       16.800438   -0.625844   -1.864029
     67          1           0       -1.802957    0.390590    3.832219
     68          1           0       -3.337029    5.219477   -0.047522
     69          1           0       -7.437662    1.710447   -3.153011
     70          1           0       -4.116738   -3.621512    2.673795
     71          1           0       -1.748310   -2.218460    3.372747
     72          1           0       -2.966905   -1.922359    5.434916
     73          1           0       -3.941417   -3.149723    4.714946
     74          1           0       -4.439979   -1.370924    4.620068
     75          1           0       -2.755500   -4.864040    1.089088
     76          1           0       -1.527753   -3.995991    1.921370
     77          1           0       -1.866027   -2.127713    0.032270
     78          1           0       -2.765332   -3.529766   -0.774307
     79          1           0       -1.884050    3.246584    5.176009
     80          1           0       -0.340820    3.784593    4.376861
     81          1           0       -0.855315    2.043514    4.578671
     82          1           0       -3.511448    6.505831    1.462369
     83          1           0       -1.815492    6.623997    0.749204
     84          1           0       -2.290151    7.566602    2.241869
     85          1           0       -4.188054    5.154020   -2.536114
     86          1           0       -6.949083    4.276067   -2.747984
     87          1           0       -5.624160    6.200456   -0.341488
     88          1           0       -6.766828    6.159762   -1.653662
     89          1           0       -5.258691    7.008571   -1.902369
     90          1           0       -5.011779    2.771609   -4.500137
     91          1           0       -4.645595    4.528493   -4.436162
     92          1           0       -7.367760    4.426692   -4.987311
     93          1           0       -6.557554    3.196871   -6.007275
     94          1           0       -6.033266    4.890426   -5.975650
     95          1           0       -8.551071   -1.966760   -3.701970
     96          1           0       -8.023841   -0.358449   -4.013383
     97          1           0       -9.317793   -0.503868   -2.894120
     98          1           0       -5.332976   -4.477661   -0.192608
     99          1           0       -6.392156   -3.289005    4.239258
    100          1           0       -7.433705   -4.585956    3.723270
    101          1           0       -8.172421   -3.013795    3.793948
    102          1           0        0.367809   -3.158448   -3.689617
    103          1           0        0.976945   -4.478265   -2.661267
    104          1           0        1.313840   -1.721668   -1.485094
    105          1           0        3.447429   -3.246323   -4.476562
    106          1           0        3.101115   -4.334790   -3.084434
    107          1           0        4.661203   -3.566608   -3.227494
    108          1           0        3.117469   -0.482975   -1.668836
    109          1           0        4.101932   -0.693747   -3.145296
    110          1           0        4.928130   -2.331722   -0.988960
    111          1           0        4.717372   -0.728435   -0.243141
    112          1           0        6.500127   -0.637613   -2.653092
    113          1           0        7.044102   -1.809998   -1.562324
    114          1           0        6.879819   -0.205933    0.360554
    115          1           0        7.033920    2.326119   -1.090756
    116          1           0        6.063687    1.660969    0.305664
    117          1           0        5.593260    1.456849   -1.448649
    118          1           0        9.026606    1.243692   -0.916091
    119          1           0        9.030757   -0.258927   -1.752959
    120          1           0        9.704967   -1.322228    0.022111
    121          1           0        8.729210   -0.524092    1.231422
    122          1           0       10.316730    0.908959    1.892643
    123          1           0       10.675053    1.390509    0.228181
    124          1           0       11.939893   -1.107314    0.566897
    125          1           0       12.740374   -1.469618    2.625581
    126          1           0       11.012150   -1.130057    3.017892
    127          1           0       12.193851    0.156303    3.310465
    128          1           0       13.768661    0.717325    1.773480
    129          1           0       12.728239    1.773366    0.814373
    130          1           0       13.388358    0.212276   -1.209920
    131          1           0       14.132986   -0.883515   -0.199349
    132          1           0       15.358466    1.695185    0.454106
    133          1           0       15.156764    1.658164   -1.303802
    134          1           0       16.244305   -0.612481    0.272621
    135          1           0       18.000800    0.191262    1.100132
    136          1           0       17.589403    1.780437    0.475987
    137          1           0       18.620449    0.523047   -0.367206
    138          1           0       16.108106   -0.263246   -2.623380
    139          1           0       16.684703   -1.691974   -1.664742
    140          1           0       17.823746   -0.636716   -2.240781
 ---------------------------------------------------------------------

 SCF Done:  E(RPBE1PBE) =  -3005.34141139     A.U. after   15 cycles

 Excitation energies and oscillator strengths:

 Excited State   1:      Singlet-A      1.9287 eV  642.84 nm  f=0.3304  <S**2>=0.000
     245 -> 248        0.17381
     246 -> 247        0.68938
 This state for optimization and/or second-order correction.
 Total Energy, E(TD-HF/TD-DFT) =  -3005.27053332
 Copying the excited state density for this state as the 1-particle RhoCI density.

 Excited State   2:      Singlet-A      2.2824 eV  543.21 nm  f=0.0991  <S**2>=0.000
     245 -> 247        0.64924
     246 -> 248       -0.26219

 Excited State   3:      Singlet-A      2.9265 eV  423.66 nm  f=0.0009  <S**2>=0.000
     243 -> 247       -0.14078
     244 -> 247        0.65889
     244 -> 249       -0.13853

 Excited State   4:      Singlet-A      3.1083 eV  398.89 nm  f=0.0005  <S**2>=0.000
     241 -> 247       -0.37675
     243 -> 247        0.56915
     244 -> 247        0.11975

 Excited State   5:      Singlet-A      3.1635 eV  391.92 nm  f=0.0002  <S**2>=0.000
     240 -> 247        0.19347
     241 -> 247        0.51346
     243 -> 247        0.35583
     246 -> 248        0.19320

 The electronic state is 1-A.
 Alpha  occ. eigenvalues --  -46.93917 -19.25297 -19.25168 -19.19739 -19.19536
 Alpha  occ. eigenvalues --  -19.19115 -19.18483 -14.41928 -14.41708 -14.39558
 Alpha  occ. eigenvalues --  -14.38837 -10.35845 -10.35495 -10.32464 -10.31698
 Alpha  occ. eigenvalues --  -10.29358 -10.29308 -10.29137 -10.28973 -10.28860
 Alpha  occ. eigenvalues --  -10.28647 -10.28273 -10.28174 -10.27063 -10.27043
 Alpha  occ. eigenvalues --  -10.26657 -10.26533 -10.26391 -10.26167 -10.26139
 Alpha  occ. eigenvalues --  -10.25922 -10.25840 -10.25336 -10.25293 -10.25024
 Alpha  occ. eigenvalues --  -10.24961 -10.24897 -10.24823 -10.24756 -10.24736
 Alpha  occ. eigenvalues --  -10.24394 -10.24234 -10.24120 -10.23877 -10.23353
 Alpha  occ. eigenvalues --  -10.23304 -10.23140 -10.23102 -10.23090 -10.23012
 Alpha  occ. eigenvalues --  -10.22947 -10.22893 -10.22885 -10.22686 -10.22557
 Alpha  occ. eigenvalues --  -10.22554 -10.22372 -10.22288 -10.22210 -10.22058
 Alpha  occ. eigenvalues --  -10.21993 -10.21899 -10.21823 -10.21761 -10.21631
 Alpha  occ. eigenvalues --  -10.21094  -3.15872  -1.88664  -1.88276  -1.88067
 Alpha  occ. eigenvalues --   -1.12109  -1.11223  -1.05518  -1.02959  -1.02524
 Alpha  occ. eigenvalues --   -1.01417  -1.00507  -0.99761  -0.98985  -0.98288
 Alpha  occ. eigenvalues --   -0.87011  -0.84296  -0.84182  -0.83675  -0.83431
 Alpha  occ. eigenvalues --   -0.82815  -0.82368  -0.82158  -0.81934  -0.81062
 Alpha  occ. eigenvalues --   -0.80975  -0.79974  -0.79033  -0.78638  -0.78089
 Alpha  occ. eigenvalues --   -0.77560  -0.76467  -0.75823  -0.75511  -0.74716
 Alpha  occ. eigenvalues --   -0.73872  -0.72792  -0.72492  -0.71962  -0.71036
 Alpha  occ. eigenvalues --   -0.70337  -0.69907  -0.69757  -0.68757  -0.68170
 Alpha  occ. eigenvalues --   -0.67628  -0.67411  -0.66808  -0.65186  -0.63586
 Alpha  occ. eigenvalues --   -0.63447  -0.62323  -0.61962  -0.60772  -0.60739
 Alpha  occ. eigenvalues --   -0.60330  -0.59987  -0.59513  -0.59152  -0.57993
 Alpha  occ. eigenvalues --   -0.57871  -0.57458  -0.56691  -0.56298  -0.55175
 Alpha  occ. eigenvalues --   -0.54841  -0.54127  -0.53925  -0.53740  -0.52709
 Alpha  occ. eigenvalues --   -0.52233  -0.51484  -0.50965  -0.50814  -0.50391
 Alpha  occ. eigenvalues --   -0.50301  -0.49831  -0.49110  -0.48668  -0.48562
 Alpha  occ. eigenvalues --   -0.48272  -0.48082  -0.47885  -0.47762  -0.47753
 Alpha  occ. eigenvalues --   -0.47521  -0.47453  -0.46954  -0.46498  -0.46446
 Alpha  occ. eigenvalues --   -0.46097  -0.45969  -0.45691  -0.45662  -0.45344
 Alpha  occ. eigenvalues --   -0.44963  -0.44764  -0.44491  -0.44236  -0.44126
 Alpha  occ. eigenvalues --   -0.44053  -0.43748  -0.43707  -0.43490  -0.43405
 Alpha  occ. eigenvalues --   -0.43263  -0.43191  -0.42900  -0.42740  -0.42423
 Alpha  occ. eigenvalues --   -0.42340  -0.42206  -0.42012  -0.41648  -0.41497
 Alpha  occ. eigenvalues --   -0.41266  -0.41208  -0.40830  -0.40716  -0.40578
 Alpha  occ. eigenvalues --   -0.40346  -0.40298  -0.40041  -0.39820  -0.39657
 Alpha  occ. eigenvalues --   -0.39439  -0.39381  -0.39268  -0.39036  -0.38926
 Alpha  occ. eigenvalues --   -0.38750  -0.38357  -0.37980  -0.37951  -0.37850
 Alpha  occ. eigenvalues --   -0.37711  -0.37604  -0.37498  -0.37469  -0.37125
 Alpha  occ. eigenvalues --   -0.37002  -0.36661  -0.36537  -0.36459  -0.36268
 Alpha  occ. eigenvalues --   -0.35879  -0.35764  -0.35521  -0.35322  -0.35272
 Alpha  occ. eigenvalues --   -0.34789  -0.34663  -0.34141  -0.34094  -0.33588
 Alpha  occ. eigenvalues --   -0.33411  -0.33148  -0.32994  -0.32732  -0.32499
 Alpha  occ. eigenvalues --   -0.32190  -0.31757  -0.31726  -0.31088  -0.30953
 Alpha  occ. eigenvalues --   -0.30276  -0.29976  -0.29932  -0.29687  -0.29428
 Alpha  occ. eigenvalues --   -0.28688  -0.28462  -0.27839  -0.27065  -0.26539
 Alpha  occ. eigenvalues --   -0.25866  -0.25689  -0.25437  -0.24996  -0.21300
 Alpha  occ. eigenvalues --   -0.19235
 Alpha virt. eigenvalues --   -0.11212  -0.05543  -0.04243  -0.02526  -0.02341
 Alpha virt. eigenvalues --    0.00438   0.00823   0.01318   0.02363   0.02968
 Alpha virt. eigenvalues --    0.03547   0.04602   0.04712   0.05776   0.05937

 Mulliken charges:
               1
     1  Mg   0.961964
     2  C    0.081150
     3  C   -0.074739
     4  C   -0.101748
     5  C   -0.069439
     6  N   -0.305502
     7  C   -0.018165
     8  C   -0.091454
     9  C   -0.141680
    10  C    0.013135
    11  C    0.008008
    12  C    0.018751
    13  C   -0.073718
    14  C    0.221580
    15  O   -0.233955
    16  O   -0.364332
    17  N   -0.449592
    18  C    0.173756
    19  C   -0.183761
    20  C   -0.069043
    21  C    0.210036
    22  C    0.091440
    23  C    0.019908
    24  O   -0.237068
    25  C   -0.013312
    26  N   -0.379336
    27  C   -0.004663
    28  C   -0.061194
    29  C   -0.126017
    30  C    0.048325
    31  C    0.022137
    32  C   -0.012573
    33  C   -0.071755
    34  N   -0.477200
    35  C    0.153377
    36  C   -0.185754
    37  C    0.022219
    38  C    0.103140
    39  C    0.073564
    40  C    0.118223
    41  O   -0.231742
    42  C   -0.183794
    43  C    0.284895
    44  O   -0.255341
    45  O   -0.356266
    46  C    0.119413
    47  C    0.234953
    48  C   -0.122866
    49  C   -0.254739
    50  C    0.003327
    51  C    0.026841
    52  C   -0.053703
    53  C    0.013438
    54  C   -0.245385
    55  C    0.002000
    56  C    0.037388
    57  C   -0.062361
    58  C   -0.024198
    59  C   -0.221342
    60  C   -0.012911
    61  C   -0.034197
    62  C   -0.076559
    63  C   -0.001285
    64  C   -0.258343
    65  C   -0.007834
    66  C    0.001082
    67  H    0.007883
    68  H   -0.008977
    69  H    0.005701
    70  H    0.043202
    71  H    0.045530
    72  H    0.046172
    73  H    0.057326
    74  H    0.065007
    75  H    0.055158
    76  H    0.042855
    77  H    0.081070
    78  H    0.088623
    79  H    0.058467
    80  H    0.080690
    81  H    0.025013
    82  H    0.066737
    83  H    0.085557
    84  H    0.057063
    85  H    0.049915
    86  H    0.049116
    87  H    0.046725
    88  H    0.039059
    89  H    0.046952
    90  H    0.062283
    91  H    0.035335
    92  H    0.033248
    93  H    0.048679
    94  H    0.038279
    95  H    0.062808
    96  H    0.032723
    97  H    0.048205
    98  H    0.083486
    99  H    0.047340
   100  H    0.057729
   101  H    0.061619
   102  H    0.056366
   103  H    0.072107
   104  H    0.021871
   105  H    0.056529
   106  H    0.040957
   107  H    0.041600
   108  H    0.018034
   109  H    0.040488
   110  H    0.039575
   111  H    0.039454
   112  H    0.023026
   113  H    0.020028
   114  H    0.041291
   115  H    0.036746
   116  H    0.040410
   117  H    0.033026
   118  H    0.019765
   119  H    0.028765
   120  H    0.026246
   121  H    0.033548
   122  H    0.019871
   123  H    0.032322
   124  H    0.030699
   125  H    0.045707
   126  H    0.032846
   127  H    0.043260
   128  H    0.028175
   129  H    0.036774
   130  H    0.021993
   131  H    0.030141
   132  H    0.028880
   133  H    0.030857
   134  H    0.039659
   135  H    0.021200
   136  H    0.040268
   137  H    0.014088
   138  H    0.043868
   139  H    0.033463
   140  H    0.034337
 Sum of Mulliken charges =  -0.00000

 Dipole moment (field-independent basis, Debye):
    X=              1.4285    Y=              7.3293    Z=             -0.0874  Tot=              7.4677
 Quadrupole moment (field-independent basis, Debye-Ang):
   XX=           -419.0974   YY=           -437.2033   ZZ=           -379.0013
   XY=            -75.1806   XZ=            -14.7117   YZ=            -28.8394

 Normal termination of Gaussian 16 at Wed Apr 27 11:21:53 2022.
