 Gaussian 16, Revision A.03,
 Gaussian 16:  ES64L-G16RevA.03 25-Dec-2016

 --------------------------------
 #p wB97XD/Def2SVP td=(nstates=5)
 --------------------------------

 ----------------------------------------------------
 step_1151_chromophore_2 TDDFT with wB97XD functional
 ----------------------------------------------------
 Symbolic Z-matrix:
 Charge =  0 Multiplicity = 1

                         Standard orientation:
 ---------------------------------------------------------------------
 Center     Atomic      Atomic             Coordinates (Angstroms)
 Number     Number       Type             X           Y           Z
 ---------------------------------------------------------------------
      1         12           0       -4.847364    1.148119    0.575002
      2          6           0       -5.300449   -2.323033    0.487241
      3          6           0       -2.579504    0.595840    3.092247
      4          6           0       -3.661284    4.195694    0.151805
      5          6           0       -6.728308    1.482613   -2.354686
      6          7           0       -3.894957   -0.704615    1.542259
      7          6           0       -4.242070   -1.988414    1.277653
      8          6           0       -3.430847   -2.964540    2.138296
      9          6           0       -2.804628   -1.975239    3.261616
     10          6           0       -3.066242   -0.628958    2.548767
     11          6           0       -3.638727   -2.109365    4.597248
     12          6           0       -2.403963   -3.852260    1.289858
     13          6           0       -1.969476   -3.203402   -0.104952
     14          6           0       -0.722451   -3.666844   -0.795014
     15          8           0       -0.057432   -4.619889   -0.511554
     16          8           0       -0.653035   -3.092733   -2.028397
     17          7           0       -3.403206    2.301574    1.591281
     18          6           0       -2.677695    1.908910    2.639550
     19          6           0       -2.001817    3.099333    3.190597
     20          6           0       -2.368705    4.192514    2.353733
     21          6           0       -3.148046    3.577474    1.284798
     22          6           0       -1.163284    3.068912    4.377471
     23          6           0       -1.962926    5.631147    2.575679
     24          8           0       -1.242887    5.908927    3.521376
     25          6           0       -2.449269    6.675317    1.634137
     26          7           0       -4.900304    2.587388   -1.088633
     27          6           0       -4.481750    3.850751   -0.915731
     28          6           0       -5.033628    4.848163   -1.920808
     29          6           0       -5.917564    3.927869   -2.805346
     30          6           0       -5.829445    2.574503   -2.121262
     31          6           0       -5.701104    6.133125   -1.426115
     32          6           0       -5.407178    3.764001   -4.280815
     33          6           0       -6.411860    4.067844   -5.367884
     34          7           0       -5.894820   -0.141461   -0.664858
     35          6           0       -6.696057    0.185199   -1.748666
     36          6           0       -7.426580   -0.983684   -2.066724
     37          6           0       -6.925679   -2.013147   -1.276512
     38          6           0       -5.957797   -1.448174   -0.438552
     39          6           0       -8.404396   -1.000015   -3.219490
     40          6           0       -7.117072   -3.360709   -0.914142
     41          8           0       -7.907937   -4.216591   -1.357859
     42          6           0       -5.972551   -3.672379    0.169833
     43          6           0       -6.663731   -4.252062    1.339950
     44          8           0       -6.955820   -5.443179    1.523036
     45          8           0       -6.929143   -3.252242    2.215393
     46          6           0       -7.231869   -3.523905    3.585131
     47          6           0        0.628465   -3.445355   -2.671054
     48          6           0        1.712386   -2.537556   -2.088189
     49          6           0        2.941439   -2.370432   -2.527228
     50          6           0        3.596793   -3.421378   -3.410613
     51          6           0        3.847567   -1.116235   -2.174330
     52          6           0        4.998604   -1.255797   -1.154624
     53          6           0        6.471063   -0.882539   -1.591857
     54          6           0        7.100601    0.134117   -0.651767
     55          6           0        6.401702    1.519399   -0.720499
     56          6           0        8.645412    0.224319   -0.855012
     57          6           0        9.321857   -0.351049    0.334019
     58          6           0       10.542061    0.537526    0.893407
     59          6           0       11.837552   -0.234561    1.212064
     60          6           0       11.962432   -0.710159    2.689837
     61          6           0       13.072344    0.745924    0.935200
     62          6           0       13.954911    0.189106   -0.278442
     63          6           0       15.254788    1.040675   -0.411992
     64          6           0       16.526501    0.103639   -0.499000
     65          6           0       17.714087    0.733394    0.199782
     66          6           0       16.800438   -0.625844   -1.864029
     67          1           0       -1.802957    0.390590    3.832219
     68          1           0       -3.337029    5.219477   -0.047522
     69          1           0       -7.437662    1.710447   -3.153011
     70          1           0       -4.116738   -3.621512    2.673795
     71          1           0       -1.748310   -2.218460    3.372747
     72          1           0       -2.966905   -1.922359    5.434916
     73          1           0       -3.941417   -3.149723    4.714946
     74          1           0       -4.439979   -1.370924    4.620068
     75          1           0       -2.755500   -4.864040    1.089088
     76          1           0       -1.527753   -3.995991    1.921370
     77          1           0       -1.866027   -2.127713    0.032270
     78          1           0       -2.765332   -3.529766   -0.774307
     79          1           0       -1.884050    3.246584    5.176009
     80          1           0       -0.340820    3.784593    4.376861
     81          1           0       -0.855315    2.043514    4.578671
     82          1           0       -3.511448    6.505831    1.462369
     83          1           0       -1.815492    6.623997    0.749204
     84          1           0       -2.290151    7.566602    2.241869
     85          1           0       -4.188054    5.154020   -2.536114
     86          1           0       -6.949083    4.276067   -2.747984
     87          1           0       -5.624160    6.200456   -0.341488
     88          1           0       -6.766828    6.159762   -1.653662
     89          1           0       -5.258691    7.008571   -1.902369
     90          1           0       -5.011779    2.771609   -4.500137
     91          1           0       -4.645595    4.528493   -4.436162
     92          1           0       -7.367760    4.426692   -4.987311
     93          1           0       -6.557554    3.196871   -6.007275
     94          1           0       -6.033266    4.890426   -5.975650
     95          1           0       -8.551071   -1.966760   -3.701970
     96          1           0       -8.023841   -0.358449   -4.013383
     97          1           0       -9.317793   -0.503868   -2.894120
     98          1           0       -5.332976   -4.477661   -0.192608
     99          1           0       -6.392156   -3.289005    4.239258
    100          1           0       -7.433705   -4.585956    3.723270
    101          1           0       -8.172421   -3.013795    3.793948
    102          1           0        0.367809   -3.158448   -3.689617
    103          1           0        0.976945   -4.478265   -2.661267
    104          1           0        1.313840   -1.721668   -1.485094
    105          1           0        3.447429   -3.246323   -4.476562
    106          1           0        3.101115   -4.334790   -3.084434
    107          1           0        4.661203   -3.566608   -3.227494
    108          1           0        3.117469   -0.482975   -1.668836
    109          1           0        4.101932   -0.693747   -3.145296
    110          1           0        4.928130   -2.331722   -0.988960
    111          1           0        4.717372   -0.728435   -0.243141
    112          1           0        6.500127   -0.637613   -2.653092
    113          1           0        7.044102   -1.809998   -1.562324
    114          1           0        6.879819   -0.205933    0.360554
    115          1           0        7.033920    2.326119   -1.090756
    116          1           0        6.063687    1.660969    0.305664
    117          1           0        5.593260    1.456849   -1.448649
    118          1           0        9.026606    1.243692   -0.916091
    119          1           0        9.030757   -0.258927   -1.752959
    120          1           0        9.704967   -1.322228    0.022111
    121          1           0        8.729210   -0.524092    1.231422
    122          1           0       10.316730    0.908959    1.892643
    123          1           0       10.675053    1.390509    0.228181
    124          1           0       11.939893   -1.107314    0.566897
    125          1           0       12.740374   -1.469618    2.625581
    126          1           0       11.012150   -1.130057    3.017892
    127          1           0       12.193851    0.156303    3.310465
    128          1           0       13.768661    0.717325    1.773480
    129          1           0       12.728239    1.773366    0.814373
    130          1           0       13.388358    0.212276   -1.209920
    131          1           0       14.132986   -0.883515   -0.199349
    132          1           0       15.358466    1.695185    0.454106
    133          1           0       15.156764    1.658164   -1.303802
    134          1           0       16.244305   -0.612481    0.272621
    135          1           0       18.000800    0.191262    1.100132
    136          1           0       17.589403    1.780437    0.475987
    137          1           0       18.620449    0.523047   -0.367206
    138          1           0       16.108106   -0.263246   -2.623380
    139          1           0       16.684703   -1.691974   -1.664742
    140          1           0       17.823746   -0.636716   -2.240781
 ---------------------------------------------------------------------

 SCF Done:  E(RwB97XD) =  -3007.85163723     A.U. after   18 cycles

 Excitation energies and oscillator strengths:

 Excited State   1:      Singlet-A      1.8367 eV  675.05 nm  f=0.3439  <S**2>=0.000
     245 -> 248        0.17518
     246 -> 247        0.68328
     245 <- 248        0.10416
 This state for optimization and/or second-order correction.
 Total Energy, E(TD-HF/TD-DFT) =  -3007.78414094
 Copying the excited state density for this state as the 1-particle RhoCI density.

 Excited State   2:      Singlet-A      2.2611 eV  548.33 nm  f=0.1002  <S**2>=0.000
     245 -> 247        0.63328
     246 -> 248       -0.29178

 Excited State   3:      Singlet-A      3.4575 eV  358.59 nm  f=0.0533  <S**2>=0.000
     241 -> 247        0.61025
     244 -> 247       -0.12434
     246 -> 248        0.26634

 Excited State   4:      Singlet-A      3.5435 eV  349.89 nm  f=0.0627  <S**2>=0.000
     243 -> 247       -0.15911
     243 -> 249        0.15581
     243 -> 251       -0.17222
     244 -> 247        0.52861
     244 -> 249       -0.14799
     245 -> 247        0.10454
     246 -> 248        0.27672

 Excited State   5:      Singlet-A      3.6446 eV  340.18 nm  f=0.1848  <S**2>=0.000
     243 -> 247        0.46072
     243 -> 249       -0.23819
     243 -> 251        0.22015
     244 -> 247        0.12193
     245 -> 247        0.14767
     246 -> 248        0.32450

 The electronic state is 1-A.
 Alpha  occ. eigenvalues --  -46.96905 -19.29747 -19.29696 -19.24677 -19.24371
 Alpha  occ. eigenvalues --  -19.23699 -19.22835 -14.47155 -14.46746 -14.44739
 Alpha  occ. eigenvalues --  -14.43508 -10.42570 -10.42230 -10.39612 -10.38196
 Alpha  occ. eigenvalues --  -10.36107 -10.35848 -10.35758 -10.35638 -10.35327
 Alpha  occ. eigenvalues --  -10.35187 -10.34885 -10.34297 -10.33779 -10.33447
 Alpha  occ. eigenvalues --  -10.32760 -10.32713 -10.32709 -10.32241 -10.32135
 Alpha  occ. eigenvalues --  -10.32060 -10.32010 -10.31682 -10.31600 -10.31535
 Alpha  occ. eigenvalues --  -10.31497 -10.31468 -10.31402 -10.31220 -10.30673
 Alpha  occ. eigenvalues --  -10.30588 -10.30568 -10.30564 -10.30544 -10.30224
 Alpha  occ. eigenvalues --  -10.29706 -10.29450 -10.29384 -10.29372 -10.29343
 Alpha  occ. eigenvalues --  -10.29299 -10.29295 -10.29069 -10.28998 -10.28965
 Alpha  occ. eigenvalues --  -10.28915 -10.28752 -10.28657 -10.28649 -10.28432
 Alpha  occ. eigenvalues --  -10.28353 -10.28209 -10.28152 -10.28102 -10.27763
 Alpha  occ. eigenvalues --  -10.27530  -3.22751  -1.96287  -1.95898  -1.95688
 Alpha  occ. eigenvalues --   -1.19436  -1.18518  -1.13325  -1.10257  -1.09631
 Alpha  occ. eigenvalues --   -1.08668  -1.08141  -1.07355  -1.06258  -1.05369
 Alpha  occ. eigenvalues --   -0.94420  -0.91911  -0.91872  -0.91441  -0.91111
 Alpha  occ. eigenvalues --   -0.90482  -0.90067  -0.90029  -0.89775  -0.88745
 Alpha  occ. eigenvalues --   -0.88362  -0.87552  -0.86678  -0.86176  -0.85813
 Alpha  occ. eigenvalues --   -0.85318  -0.84133  -0.83477  -0.83052  -0.82373
 Alpha  occ. eigenvalues --   -0.81527  -0.80606  -0.80112  -0.79593  -0.78549
 Alpha  occ. eigenvalues --   -0.77987  -0.77628  -0.77466  -0.76458  -0.75743
 Alpha  occ. eigenvalues --   -0.75206  -0.74982  -0.74386  -0.72833  -0.71114
 Alpha  occ. eigenvalues --   -0.70763  -0.70147  -0.69642  -0.68388  -0.68220
 Alpha  occ. eigenvalues --   -0.67925  -0.67446  -0.66907  -0.66783  -0.65564
 Alpha  occ. eigenvalues --   -0.65324  -0.65140  -0.64117  -0.63949  -0.62773
 Alpha  occ. eigenvalues --   -0.62235  -0.61678  -0.61337  -0.61246  -0.59966
 Alpha  occ. eigenvalues --   -0.59793  -0.58998  -0.58384  -0.58156  -0.57812
 Alpha  occ. eigenvalues --   -0.57683  -0.57202  -0.56554  -0.56081  -0.55892
 Alpha  occ. eigenvalues --   -0.55809  -0.55673  -0.55311  -0.55205  -0.55001
 Alpha  occ. eigenvalues --   -0.54945  -0.54904  -0.54229  -0.53891  -0.53827
 Alpha  occ. eigenvalues --   -0.53623  -0.53251  -0.53101  -0.53068  -0.52715
 Alpha  occ. eigenvalues --   -0.52200  -0.52022  -0.51938  -0.51751  -0.51474
 Alpha  occ. eigenvalues --   -0.51424  -0.51084  -0.50951  -0.50754  -0.50680
 Alpha  occ. eigenvalues --   -0.50515  -0.50361  -0.50350  -0.49992  -0.49850
 Alpha  occ. eigenvalues --   -0.49635  -0.49582  -0.49281  -0.49025  -0.48766
 Alpha  occ. eigenvalues --   -0.48529  -0.48414  -0.48026  -0.47864  -0.47648
 Alpha  occ. eigenvalues --   -0.47549  -0.47485  -0.47165  -0.47031  -0.46923
 Alpha  occ. eigenvalues --   -0.46655  -0.46502  -0.46380  -0.46250  -0.46003
 Alpha  occ. eigenvalues --   -0.45876  -0.45543  -0.45369  -0.45117  -0.44879
 Alpha  occ. eigenvalues --   -0.44867  -0.44783  -0.44621  -0.44567  -0.44149
 Alpha  occ. eigenvalues --   -0.43990  -0.43701  -0.43589  -0.43468  -0.43233
 Alpha  occ. eigenvalues --   -0.42946  -0.42788  -0.42618  -0.42353  -0.42259
 Alpha  occ. eigenvalues --   -0.41756  -0.41715  -0.41194  -0.41125  -0.40657
 Alpha  occ. eigenvalues --   -0.40470  -0.40213  -0.40052  -0.39787  -0.39444
 Alpha  occ. eigenvalues --   -0.39165  -0.38851  -0.38786  -0.38131  -0.37928
 Alpha  occ. eigenvalues --   -0.37299  -0.36957  -0.36695  -0.36631  -0.36175
 Alpha  occ. eigenvalues --   -0.35767  -0.35289  -0.34670  -0.34021  -0.33665
 Alpha  occ. eigenvalues --   -0.32889  -0.32466  -0.31913  -0.31357  -0.26421
 Alpha  occ. eigenvalues --   -0.23553
 Alpha virt. eigenvalues --   -0.06915  -0.00079   0.01950   0.03500   0.04211
 Alpha virt. eigenvalues --    0.07277   0.07613   0.08157   0.09173   0.09518
 Alpha virt. eigenvalues --    0.10275   0.11071   0.11336   0.12386   0.12707

 Mulliken charges:
               1
     1  Mg   0.956838
     2  C    0.088379
     3  C   -0.094566
     4  C   -0.114395
     5  C   -0.083576
     6  N   -0.267742
     7  C   -0.055527
     8  C   -0.063861
     9  C   -0.117793
    10  C   -0.001357
    11  C    0.016104
    12  C    0.022286
    13  C   -0.044889
    14  C    0.209903
    15  O   -0.232242
    16  O   -0.364308
    17  N   -0.418355
    18  C    0.171989
    19  C   -0.167330
    20  C   -0.068643
    21  C    0.213546
    22  C    0.102020
    23  C    0.013132
    24  O   -0.230456
    25  C    0.004748
    26  N   -0.350502
    27  C   -0.012868
    28  C   -0.040600
    29  C   -0.095683
    30  C    0.033159
    31  C    0.034065
    32  C    0.000592
    33  C   -0.056912
    34  N   -0.438142
    35  C    0.137894
    36  C   -0.184266
    37  C    0.027822
    38  C    0.077847
    39  C    0.083744
    40  C    0.098160
    41  O   -0.226040
    42  C   -0.146992
    43  C    0.259717
    44  O   -0.250005
    45  O   -0.354679
    46  C    0.138582
    47  C    0.255978
    48  C   -0.134122
    49  C   -0.241745
    50  C    0.017488
    51  C    0.043312
    52  C   -0.035908
    53  C    0.025365
    54  C   -0.209273
    55  C    0.012225
    56  C    0.051124
    57  C   -0.047582
    58  C   -0.006662
    59  C   -0.194843
    60  C    0.003123
    61  C   -0.017422
    62  C   -0.060036
    63  C    0.011518
    64  C   -0.225298
    65  C    0.003377
    66  C    0.012181
    67  H    0.000855
    68  H   -0.024293
    69  H   -0.000990
    70  H    0.025266
    71  H    0.039086
    72  H    0.041662
    73  H    0.052787
    74  H    0.059595
    75  H    0.050122
    76  H    0.034967
    77  H    0.068867
    78  H    0.079872
    79  H    0.055361
    80  H    0.080065
    81  H    0.021023
    82  H    0.058459
    83  H    0.082144
    84  H    0.056445
    85  H    0.039604
    86  H    0.036227
    87  H    0.038269
    88  H    0.034979
    89  H    0.042827
    90  H    0.055485
    91  H    0.024762
    92  H    0.026389
    93  H    0.043640
    94  H    0.031937
    95  H    0.058614
    96  H    0.023708
    97  H    0.040976
    98  H    0.077519
    99  H    0.037605
   100  H    0.054072
   101  H    0.058026
   102  H    0.052633
   103  H    0.066190
   104  H    0.015954
   105  H    0.051963
   106  H    0.033030
   107  H    0.035981
   108  H    0.008879
   109  H    0.032913
   110  H    0.029330
   111  H    0.031648
   112  H    0.014684
   113  H    0.011310
   114  H    0.025795
   115  H    0.031747
   116  H    0.035394
   117  H    0.024473
   118  H    0.007944
   119  H    0.022462
   120  H    0.017466
   121  H    0.024813
   122  H    0.009733
   123  H    0.021228
   124  H    0.017588
   125  H    0.039287
   126  H    0.026275
   127  H    0.036193
   128  H    0.016250
   129  H    0.028793
   130  H    0.013269
   131  H    0.019659
   132  H    0.018852
   133  H    0.023385
   134  H    0.024689
   135  H    0.015624
   136  H    0.034937
   137  H    0.007188
   138  H    0.038237
   139  H    0.027551
   140  H    0.029121
 Sum of Mulliken charges =  -0.00000

 Dipole moment (field-independent basis, Debye):
    X=              2.0732    Y=              7.9979    Z=              0.6298  Tot=              8.2862
 Quadrupole moment (field-independent basis, Debye-Ang):
   XX=           -424.6879   YY=           -435.6115   ZZ=           -378.1017
   XY=            -77.3526   XZ=            -18.2761   YZ=            -27.4318

 Normal termination of Gaussian 16 at Wed Apr 27 11:47:35 2022.
