 Gaussian 16, Revision A.03,
 Gaussian 16:  ES64L-G16RevA.03 25-Dec-2016

 --------------------
 #p ZINDO=(nstates=5)
 --------------------

 -----------------------------
 step_1151_chromophore_2 ZINDO
 -----------------------------
 Symbolic Z-matrix:
 Charge =  0 Multiplicity = 1

                         Standard orientation:
 ---------------------------------------------------------------------
 Center     Atomic      Atomic             Coordinates (Angstroms)
 Number     Number       Type             X           Y           Z
 ---------------------------------------------------------------------
      1         12           0       -4.847364    1.148119    0.575002
      2          6           0       -5.300449   -2.323033    0.487241
      3          6           0       -2.579504    0.595840    3.092247
      4          6           0       -3.661284    4.195694    0.151805
      5          6           0       -6.728308    1.482613   -2.354686
      6          7           0       -3.894957   -0.704615    1.542259
      7          6           0       -4.242070   -1.988414    1.277653
      8          6           0       -3.430847   -2.964540    2.138296
      9          6           0       -2.804628   -1.975239    3.261616
     10          6           0       -3.066242   -0.628958    2.548767
     11          6           0       -3.638727   -2.109365    4.597248
     12          6           0       -2.403963   -3.852260    1.289858
     13          6           0       -1.969476   -3.203402   -0.104952
     14          6           0       -0.722451   -3.666844   -0.795014
     15          8           0       -0.057432   -4.619889   -0.511554
     16          8           0       -0.653035   -3.092733   -2.028397
     17          7           0       -3.403206    2.301574    1.591281
     18          6           0       -2.677695    1.908910    2.639550
     19          6           0       -2.001817    3.099333    3.190597
     20          6           0       -2.368705    4.192514    2.353733
     21          6           0       -3.148046    3.577474    1.284798
     22          6           0       -1.163284    3.068912    4.377471
     23          6           0       -1.962926    5.631147    2.575679
     24          8           0       -1.242887    5.908927    3.521376
     25          6           0       -2.449269    6.675317    1.634137
     26          7           0       -4.900304    2.587388   -1.088633
     27          6           0       -4.481750    3.850751   -0.915731
     28          6           0       -5.033628    4.848163   -1.920808
     29          6           0       -5.917564    3.927869   -2.805346
     30          6           0       -5.829445    2.574503   -2.121262
     31          6           0       -5.701104    6.133125   -1.426115
     32          6           0       -5.407178    3.764001   -4.280815
     33          6           0       -6.411860    4.067844   -5.367884
     34          7           0       -5.894820   -0.141461   -0.664858
     35          6           0       -6.696057    0.185199   -1.748666
     36          6           0       -7.426580   -0.983684   -2.066724
     37          6           0       -6.925679   -2.013147   -1.276512
     38          6           0       -5.957797   -1.448174   -0.438552
     39          6           0       -8.404396   -1.000015   -3.219490
     40          6           0       -7.117072   -3.360709   -0.914142
     41          8           0       -7.907937   -4.216591   -1.357859
     42          6           0       -5.972551   -3.672379    0.169833
     43          6           0       -6.663731   -4.252062    1.339950
     44          8           0       -6.955820   -5.443179    1.523036
     45          8           0       -6.929143   -3.252242    2.215393
     46          6           0       -7.231869   -3.523905    3.585131
     47          6           0        0.628465   -3.445355   -2.671054
     48          6           0        1.712386   -2.537556   -2.088189
     49          6           0        2.941439   -2.370432   -2.527228
     50          6           0        3.596793   -3.421378   -3.410613
     51          6           0        3.847567   -1.116235   -2.174330
     52          6           0        4.998604   -1.255797   -1.154624
     53          6           0        6.471063   -0.882539   -1.591857
     54          6           0        7.100601    0.134117   -0.651767
     55          6           0        6.401702    1.519399   -0.720499
     56          6           0        8.645412    0.224319   -0.855012
     57          6           0        9.321857   -0.351049    0.334019
     58          6           0       10.542061    0.537526    0.893407
     59          6           0       11.837552   -0.234561    1.212064
     60          6           0       11.962432   -0.710159    2.689837
     61          6           0       13.072344    0.745924    0.935200
     62          6           0       13.954911    0.189106   -0.278442
     63          6           0       15.254788    1.040675   -0.411992
     64          6           0       16.526501    0.103639   -0.499000
     65          6           0       17.714087    0.733394    0.199782
     66          6           0       16.800438   -0.625844   -1.864029
     67          1           0       -1.802957    0.390590    3.832219
     68          1           0       -3.337029    5.219477   -0.047522
     69          1           0       -7.437662    1.710447   -3.153011
     70          1           0       -4.116738   -3.621512    2.673795
     71          1           0       -1.748310   -2.218460    3.372747
     72          1           0       -2.966905   -1.922359    5.434916
     73          1           0       -3.941417   -3.149723    4.714946
     74          1           0       -4.439979   -1.370924    4.620068
     75          1           0       -2.755500   -4.864040    1.089088
     76          1           0       -1.527753   -3.995991    1.921370
     77          1           0       -1.866027   -2.127713    0.032270
     78          1           0       -2.765332   -3.529766   -0.774307
     79          1           0       -1.884050    3.246584    5.176009
     80          1           0       -0.340820    3.784593    4.376861
     81          1           0       -0.855315    2.043514    4.578671
     82          1           0       -3.511448    6.505831    1.462369
     83          1           0       -1.815492    6.623997    0.749204
     84          1           0       -2.290151    7.566602    2.241869
     85          1           0       -4.188054    5.154020   -2.536114
     86          1           0       -6.949083    4.276067   -2.747984
     87          1           0       -5.624160    6.200456   -0.341488
     88          1           0       -6.766828    6.159762   -1.653662
     89          1           0       -5.258691    7.008571   -1.902369
     90          1           0       -5.011779    2.771609   -4.500137
     91          1           0       -4.645595    4.528493   -4.436162
     92          1           0       -7.367760    4.426692   -4.987311
     93          1           0       -6.557554    3.196871   -6.007275
     94          1           0       -6.033266    4.890426   -5.975650
     95          1           0       -8.551071   -1.966760   -3.701970
     96          1           0       -8.023841   -0.358449   -4.013383
     97          1           0       -9.317793   -0.503868   -2.894120
     98          1           0       -5.332976   -4.477661   -0.192608
     99          1           0       -6.392156   -3.289005    4.239258
    100          1           0       -7.433705   -4.585956    3.723270
    101          1           0       -8.172421   -3.013795    3.793948
    102          1           0        0.367809   -3.158448   -3.689617
    103          1           0        0.976945   -4.478265   -2.661267
    104          1           0        1.313840   -1.721668   -1.485094
    105          1           0        3.447429   -3.246323   -4.476562
    106          1           0        3.101115   -4.334790   -3.084434
    107          1           0        4.661203   -3.566608   -3.227494
    108          1           0        3.117469   -0.482975   -1.668836
    109          1           0        4.101932   -0.693747   -3.145296
    110          1           0        4.928130   -2.331722   -0.988960
    111          1           0        4.717372   -0.728435   -0.243141
    112          1           0        6.500127   -0.637613   -2.653092
    113          1           0        7.044102   -1.809998   -1.562324
    114          1           0        6.879819   -0.205933    0.360554
    115          1           0        7.033920    2.326119   -1.090756
    116          1           0        6.063687    1.660969    0.305664
    117          1           0        5.593260    1.456849   -1.448649
    118          1           0        9.026606    1.243692   -0.916091
    119          1           0        9.030757   -0.258927   -1.752959
    120          1           0        9.704967   -1.322228    0.022111
    121          1           0        8.729210   -0.524092    1.231422
    122          1           0       10.316730    0.908959    1.892643
    123          1           0       10.675053    1.390509    0.228181
    124          1           0       11.939893   -1.107314    0.566897
    125          1           0       12.740374   -1.469618    2.625581
    126          1           0       11.012150   -1.130057    3.017892
    127          1           0       12.193851    0.156303    3.310465
    128          1           0       13.768661    0.717325    1.773480
    129          1           0       12.728239    1.773366    0.814373
    130          1           0       13.388358    0.212276   -1.209920
    131          1           0       14.132986   -0.883515   -0.199349
    132          1           0       15.358466    1.695185    0.454106
    133          1           0       15.156764    1.658164   -1.303802
    134          1           0       16.244305   -0.612481    0.272621
    135          1           0       18.000800    0.191262    1.100132
    136          1           0       17.589403    1.780437    0.475987
    137          1           0       18.620449    0.523047   -0.367206
    138          1           0       16.108106   -0.263246   -2.623380
    139          1           0       16.684703   -1.691974   -1.664742
    140          1           0       17.823746   -0.636716   -2.240781
 ---------------------------------------------------------------------

 SCF Done:  E(RZINDO/S) =  -474.501202444     A.U. after   19 cycles

 Excitation energies and oscillator strengths:

 Excited State   1:      Singlet-A      1.4382 eV  862.08 nm  f=0.4828  <S**2>=0.000
     175 ->178         0.14108
     176 ->177         0.67697
 This state for optimization and/or second-order correction.
 Total Energy, E(CIS/TDA) =  -474.448349835
 Copying the excited state density for this state as the 1-particle RhoCI density.

 Excited State   2:      Singlet-A      1.9824 eV  625.42 nm  f=0.0333  <S**2>=0.000
     175 ->177         0.53524
     176 ->178        -0.42079

 Excited State   3:      Singlet-A      2.8651 eV  432.75 nm  f=0.0117  <S**2>=0.000
     176 ->179        -0.38090
     176 ->180         0.58810

 Excited State   4:      Singlet-A      2.9863 eV  415.18 nm  f=0.5678  <S**2>=0.000
     167 ->179        -0.10430
     168 ->177         0.15555
     168 ->179        -0.19676
     168 ->181        -0.11267
     168 ->185        -0.11001
     170 ->177         0.18061
     175 ->177         0.30602
     176 ->178         0.41764

 Excited State   5:      Singlet-A      3.0179 eV  410.83 nm  f=0.3072  <S**2>=0.000
     167 ->177         0.11202
     167 ->179        -0.14295
     168 ->177         0.22239
     168 ->178        -0.11748
     168 ->179        -0.30448
     168 ->180        -0.10852
     168 ->181        -0.17419
     168 ->185        -0.15191
     175 ->177        -0.22159
     176 ->178        -0.28218
     176 ->179         0.10115

 The electronic state is 1-A.
 Alpha  occ. eigenvalues --   -1.85808  -1.84959  -1.81464  -1.76419  -1.73753
 Alpha  occ. eigenvalues --   -1.73103  -1.64131  -1.61977  -1.59673  -1.56186
 Alpha  occ. eigenvalues --   -1.54243  -1.51344  -1.48877  -1.47453  -1.46634
 Alpha  occ. eigenvalues --   -1.43964  -1.42529  -1.42340  -1.39830  -1.39184
 Alpha  occ. eigenvalues --   -1.36767  -1.33893  -1.32564  -1.31835  -1.30971
 Alpha  occ. eigenvalues --   -1.28317  -1.27366  -1.23815  -1.20241  -1.18699
 Alpha  occ. eigenvalues --   -1.16604  -1.16483  -1.15833  -1.13807  -1.13126
 Alpha  occ. eigenvalues --   -1.12373  -1.10914  -1.10030  -1.06306  -1.04737
 Alpha  occ. eigenvalues --   -1.03902  -1.02089  -0.99889  -0.97831  -0.97106
 Alpha  occ. eigenvalues --   -0.95873  -0.94802  -0.93768  -0.93444  -0.91785
 Alpha  occ. eigenvalues --   -0.90635  -0.90433  -0.89206  -0.89192  -0.86743
 Alpha  occ. eigenvalues --   -0.86288  -0.84070  -0.83661  -0.82813  -0.81097
 Alpha  occ. eigenvalues --   -0.80201  -0.79060  -0.78484  -0.77970  -0.76855
 Alpha  occ. eigenvalues --   -0.76511  -0.75551  -0.74710  -0.73983  -0.73371
 Alpha  occ. eigenvalues --   -0.72462  -0.72208  -0.71638  -0.71159  -0.70156
 Alpha  occ. eigenvalues --   -0.70027  -0.69542  -0.69467  -0.68892  -0.67914
 Alpha  occ. eigenvalues --   -0.67838  -0.67549  -0.67431  -0.66545  -0.66288
 Alpha  occ. eigenvalues --   -0.66005  -0.65350  -0.64950  -0.64448  -0.64222
 Alpha  occ. eigenvalues --   -0.64054  -0.63736  -0.62912  -0.62494  -0.62435
 Alpha  occ. eigenvalues --   -0.61704  -0.61138  -0.60896  -0.60247  -0.60030
 Alpha  occ. eigenvalues --   -0.59895  -0.59537  -0.59383  -0.58200  -0.58095
 Alpha  occ. eigenvalues --   -0.57917  -0.57597  -0.57285  -0.56928  -0.56608
 Alpha  occ. eigenvalues --   -0.56061  -0.55684  -0.55580  -0.55452  -0.55016
 Alpha  occ. eigenvalues --   -0.54472  -0.54211  -0.53483  -0.53386  -0.53240
 Alpha  occ. eigenvalues --   -0.52912  -0.52507  -0.52289  -0.51996  -0.51304
 Alpha  occ. eigenvalues --   -0.51150  -0.51034  -0.50874  -0.50781  -0.50573
 Alpha  occ. eigenvalues --   -0.50392  -0.49834  -0.49679  -0.49198  -0.48960
 Alpha  occ. eigenvalues --   -0.48717  -0.48505  -0.48403  -0.48234  -0.48173
 Alpha  occ. eigenvalues --   -0.48035  -0.47299  -0.47284  -0.47193  -0.46852
 Alpha  occ. eigenvalues --   -0.46734  -0.46585  -0.46272  -0.46159  -0.45665
 Alpha  occ. eigenvalues --   -0.45390  -0.44810  -0.44586  -0.44502  -0.43590
 Alpha  occ. eigenvalues --   -0.43516  -0.43021  -0.42938  -0.42557  -0.42335
 Alpha  occ. eigenvalues --   -0.41842  -0.40688  -0.40590  -0.39655  -0.38412
 Alpha  occ. eigenvalues --   -0.37808  -0.37287  -0.36760  -0.35030  -0.34303
 Alpha  occ. eigenvalues --   -0.33821  -0.33045  -0.33018  -0.31651  -0.27439
 Alpha  occ. eigenvalues --   -0.22528
 Alpha virt. eigenvalues --   -0.08347  -0.02468  -0.01169  -0.00232   0.00974
 Alpha virt. eigenvalues --    0.01978   0.02472   0.03254   0.04323   0.05090
 Alpha virt. eigenvalues --    0.05902   0.06375   0.07063   0.07285   0.07591

 Mulliken charges:
               1
     1  Mg   0.438904
     2  C   -0.025539
     3  C   -0.103191
     4  C   -0.113815
     5  C   -0.070248
     6  N   -0.269639
     7  C    0.088645
     8  C   -0.014851
     9  C   -0.005262
    10  C    0.188852
    11  C   -0.046095
    12  C   -0.030207
    13  C    0.001240
    14  C    0.469631
    15  O   -0.507707
    16  O   -0.277607
    17  N   -0.330352
    18  C    0.154315
    19  C    0.079395
    20  C   -0.063770
    21  C    0.172597
    22  C   -0.030680
    23  C    0.332786
    24  O   -0.523496
    25  C   -0.032599
    26  N   -0.284485
    27  C    0.187510
    28  C    0.008813
    29  C    0.005412
    30  C    0.068990
    31  C   -0.046496
    32  C   -0.027946
    33  C   -0.057040
    34  N   -0.312279
    35  C    0.049922
    36  C    0.008321
    37  C   -0.059003
    38  C    0.091899
    39  C   -0.044347
    40  C    0.326054
    41  O   -0.535489
    42  C    0.052706
    43  C    0.489847
    44  O   -0.528113
    45  O   -0.274287
    46  C    0.073657
    47  C    0.109687
    48  C   -0.080111
    49  C   -0.005378
    50  C   -0.049951
    51  C   -0.028656
    52  C   -0.038504
    53  C   -0.028338
    54  C   -0.008008
    55  C   -0.062603
    56  C   -0.029401
    57  C   -0.040230
    58  C   -0.048757
    59  C   -0.021487
    60  C   -0.057228
    61  C   -0.046881
    62  C   -0.044688
    63  C   -0.034922
    64  C   -0.018410
    65  C   -0.058896
    66  C   -0.054227
    67  H    0.019613
    68  H    0.008228
    69  H    0.027571
    70  H    0.031718
    71  H    0.041165
    72  H    0.015527
    73  H    0.031791
    74  H    0.034920
    75  H    0.035514
    76  H    0.022942
    77  H    0.044849
    78  H    0.053726
    79  H    0.043496
    80  H    0.055553
    81  H    0.023370
    82  H    0.040475
    83  H    0.053624
    84  H    0.040574
    85  H    0.032101
    86  H    0.033819
    87  H    0.021039
    88  H    0.023536
    89  H    0.022362
    90  H    0.033577
    91  H    0.014662
    92  H    0.018766
    93  H    0.022616
    94  H    0.013133
    95  H    0.033944
    96  H    0.012702
    97  H    0.030233
    98  H    0.063070
    99  H    0.036141
   100  H    0.045443
   101  H    0.039518
   102  H    0.029589
   103  H    0.065684
   104  H    0.020062
   105  H    0.032001
   106  H    0.023387
   107  H    0.022397
   108  H    0.011128
   109  H    0.030526
   110  H    0.020237
   111  H    0.025724
   112  H    0.022854
   113  H    0.009144
   114  H    0.022939
   115  H    0.022189
   116  H    0.023859
   117  H    0.017840
   118  H    0.017549
   119  H    0.021913
   120  H    0.013881
   121  H    0.021879
   122  H    0.015589
   123  H    0.023692
   124  H    0.021973
   125  H    0.023074
   126  H    0.015012
   127  H    0.025722
   128  H    0.015903
   129  H    0.029015
   130  H    0.011314
   131  H    0.024611
   132  H    0.022916
   133  H    0.017816
   134  H    0.014741
   135  H    0.011066
   136  H    0.025098
   137  H    0.012491
   138  H    0.025758
   139  H    0.015775
   140  H    0.024368
 Sum of Mulliken charges =  -0.00000

 Dipole moment (field-independent basis, Debye):
    X=              4.8055    Y=             11.5881    Z=              2.4544  Tot=             12.7828
 N-N= 4.325645975418D+03 E-N= 0.000000000000D+00  KE=-9.324967217297D+03
 Leave Link  601 at Wed Apr 27 12:00:25 2022, MaxMem=  6710886400 cpu:               1.0 elap:               0.1
 (Enter /sw/apps/gaussian-16.0/g16/l9999.exe)
 1\1\GINC-BP1-COMPUTE146\SP\RZINDO CIS\STO-3G\C55H74Mg1N4O6\OF15641\27-
 Apr-2022\0\\#p ZINDO=(nstates=5)\\step_1151_chromophore_2 ZINDO\\0,1\M
 g,0,3.6,0.362,44.387\C,0,6.429,2.401,44.069\C,0,1.808,2.968,43.052\C,0
 ,1.098,-1.696,43.772\C,0,5.638,-2.367,45.182\N,0,4.117,2.402,43.467\C,
 0,5.356,2.952,43.435\C,0,5.323,4.341,42.786\C,0,3.735,4.674,42.795\C,0
 ,3.206,3.247,43.065\C,0,3.416,5.659,43.989\C,0,6.075,4.397,41.374\C,0,
 6.186,2.986,40.631\C,0,6.451,2.93,39.157\O,0,6.769,3.841,38.45\O,0,6.6

 Normal termination of Gaussian 16 at Wed Apr 27 12:00:25 2022.
