 Gaussian 16, Revision A.03,
 Gaussian 16:  ES64L-G16RevA.03 25-Dec-2016

 ------------------------------
 #p blyp/Def2SVP td=(nstates=5)
 ------------------------------

 -------------------------------------------------
 step_601_chromophore_6 TDDFT with blyp functional
 -------------------------------------------------
 Symbolic Z-matrix:
 Charge =  0 Multiplicity = 1

                         Standard orientation:
 ---------------------------------------------------------------------
 Center     Atomic      Atomic             Coordinates (Angstroms)
 Number     Number       Type             X           Y           Z
 ---------------------------------------------------------------------
      1         12           0       -5.550430    1.113440   -0.643436
      2          6           0       -5.000757   -2.324972    0.139461
      3          6           0       -2.111811    1.590491   -0.800136
      4          6           0       -5.816042    4.540511   -0.389768
      5          6           0       -8.717938    0.761396    0.665780
      6          7           0       -3.728512   -0.204517   -0.315757
      7          6           0       -3.777526   -1.610689   -0.186971
      8          6           0       -2.383542   -2.231002   -0.364020
      9          6           0       -1.438537   -0.948756   -0.279368
     10          6           0       -2.482851    0.195880   -0.541793
     11          6           0       -0.460098   -0.816945    1.010495
     12          6           0       -2.202674   -3.118449   -1.643607
     13          6           0       -1.218680   -4.336911   -1.492592
     14          6           0       -0.079569   -4.280441   -0.529347
     15          8           0       -0.171517   -4.302241    0.702272
     16          8           0        1.120619   -4.048728   -1.155837
     17          7           0       -4.235219    2.828788   -0.796573
     18          6           0       -2.884038    2.782880   -0.856158
     19          6           0       -2.307690    4.080305   -0.964096
     20          6           0       -3.440225    4.943976   -0.995697
     21          6           0       -4.592669    4.060550   -0.785858
     22          6           0       -0.783861    4.350450   -1.143456
     23          6           0       -3.504041    6.410921   -1.111637
     24          8           0       -4.563509    6.985328   -1.306034
     25          6           0       -2.234366    7.239774   -1.190558
     26          7           0       -7.078101    2.436771   -0.056266
     27          6           0       -6.944774    3.796330   -0.054054
     28          6           0       -8.232109    4.466751    0.383157
     29          6           0       -9.199718    3.212618    0.686092
     30          6           0       -8.289627    2.099247    0.433618
     31          6           0       -8.180255    5.444263    1.636230
     32          6           0      -10.451421    3.137152   -0.253585
     33          6           0      -11.731618    2.572240    0.355870
     34          7           0       -6.703902   -0.464728    0.035788
     35          6           0       -8.079579   -0.444015    0.384590
     36          6           0       -8.586730   -1.817598    0.543497
     37          6           0       -7.377496   -2.543463    0.460592
     38          6           0       -6.257400   -1.724109    0.115689
     39          6           0       -9.988738   -2.125959    0.964453
     40          6           0       -6.790253   -3.840755    0.724896
     41          8           0       -7.396534   -4.866644    1.157867
     42          6           0       -5.213476   -3.744522    0.425201
     43          6           0       -4.534705   -4.220522    1.688454
     44          8           0       -4.180917   -3.554949    2.659316
     45          8           0       -4.338499   -5.597862    1.664588
     46          6           0       -3.927942   -6.212432    2.938716
     47          6           0        2.247886   -3.988666   -0.285821
     48          6           0        3.430540   -3.743526   -1.174824
     49          6           0        4.769576   -3.998184   -1.085251
     50          6           0        5.377255   -4.679483    0.178340
     51          6           0        5.775935   -3.699354   -2.220658
     52          6           0        6.737623   -2.539242   -1.843946
     53          6           0        8.232165   -2.647162   -2.328703
     54          6           0        9.066247   -1.465860   -1.855665
     55          6           0        8.877393   -0.421432   -2.964619
     56          6           0       10.520443   -1.769346   -1.434313
     57          6           0       10.964837   -1.324836   -0.034299
     58          6           0       12.469458   -1.164526    0.248017
     59          6           0       12.793609    0.339211    0.485741
     60          6           0       13.070967    1.056714   -0.891862
     61          6           0       13.904533    0.618334    1.432978
     62          6           0       13.870363    2.022001    1.997985
     63          6           0       15.235398    2.806779    1.906227
     64          6           0       14.986610    4.317851    1.973751
     65          6           0       14.622004    4.826957    3.408086
     66          6           0       16.091486    5.072983    1.257825
     67          1           0       -1.021255    1.638525   -0.824569
     68          1           0       -6.031683    5.599796   -0.239914
     69          1           0       -9.503440    0.687267    1.421258
     70          1           0       -2.188798   -2.829674    0.526392
     71          1           0       -0.721500   -0.988145   -1.098526
     72          1           0        0.569163   -0.949170    0.676864
     73          1           0       -0.702479   -1.678409    1.632414
     74          1           0       -0.479209    0.213436    1.366876
     75          1           0       -1.938028   -2.585433   -2.557905
     76          1           0       -3.171081   -3.589917   -1.810246
     77          1           0       -0.797918   -4.717240   -2.422578
     78          1           0       -1.972978   -5.076545   -1.224372
     79          1           0       -0.500087    4.744415   -0.167460
     80          1           0       -0.563987    5.159422   -1.840523
     81          1           0       -0.188721    3.465712   -1.367490
     82          1           0       -1.539865    6.973580   -0.393429
     83          1           0       -2.334324    8.322506   -1.097252
     84          1           0       -1.816902    7.048393   -2.178854
     85          1           0       -8.636612    4.989444   -0.483632
     86          1           0       -9.375936    3.107891    1.756767
     87          1           0       -9.081976    5.360737    2.242880
     88          1           0       -8.051657    6.474703    1.305115
     89          1           0       -7.339606    5.279184    2.309496
     90          1           0      -10.164955    2.428175   -1.029092
     91          1           0      -10.643157    4.123197   -0.678131
     92          1           0      -12.297702    3.447797    0.674357
     93          1           0      -11.375517    1.976402    1.196814
     94          1           0      -12.339487    1.983957   -0.331104
     95          1           0       -9.992779   -2.745760    1.861028
     96          1           0      -10.433407   -2.801830    0.234505
     97          1           0      -10.611879   -1.237512    1.072987
     98          1           0       -5.044788   -4.436556   -0.399390
     99          1           0       -4.792139   -6.511099    3.531334
    100          1           0       -3.262893   -5.606565    3.554618
    101          1           0       -3.335646   -7.054194    2.580735
    102          1           0        2.548048   -4.859203    0.297447
    103          1           0        2.087399   -3.107550    0.336465
    104          1           0        3.134725   -3.269020   -2.111155
    105          1           0        4.656127   -4.984390    0.936506
    106          1           0        6.068305   -4.064957    0.756519
    107          1           0        5.774983   -5.646985   -0.128683
    108          1           0        5.219537   -3.320735   -3.078141
    109          1           0        6.385152   -4.568753   -2.466408
    110          1           0        6.654855   -2.350357   -0.773874
    111          1           0        6.362622   -1.671686   -2.387574
    112          1           0        8.187404   -2.702718   -3.416598
    113          1           0        8.582943   -3.549618   -1.829293
    114          1           0        8.595459   -1.090186   -0.946886
    115          1           0        9.796564   -0.210087   -3.510018
    116          1           0        8.628866    0.500701   -2.437474
    117          1           0        8.016504   -0.575191   -3.614507
    118          1           0       11.228695   -1.334685   -2.139572
    119          1           0       10.594070   -2.855453   -1.488911
    120          1           0       10.681502   -2.147599    0.622116
    121          1           0       10.193692   -0.596112    0.216424
    122          1           0       12.879896   -1.563205   -0.679381
    123          1           0       12.847507   -1.908006    0.949314
    124          1           0       11.850005    0.746216    0.848123
    125          1           0       14.024782    1.584387   -0.872132
    126          1           0       12.270352    1.767683   -1.099648
    127          1           0       13.026270    0.323238   -1.696573
    128          1           0       14.812149    0.255553    0.949295
    129          1           0       13.878759   -0.109320    2.244034
    130          1           0       13.408177    2.044419    2.984295
    131          1           0       13.153687    2.460774    1.303125
    132          1           0       15.817761    2.471155    1.048370
    133          1           0       15.766179    2.441471    2.785241
    134          1           0       14.081611    4.554722    1.415577
    135          1           0       13.715330    5.430915    3.406723
    136          1           0       15.338964    5.522932    3.843378
    137          1           0       14.498609    4.013270    4.123144
    138          1           0       15.679571    5.903131    0.684248
    139          1           0       16.638774    4.423994    0.573698
    140          1           0       16.736097    5.589618    1.967833
 ---------------------------------------------------------------------

 SCF Done:  E(RB-LYP) =  -3007.36327155     A.U. after   21 cycles

 Excitation energies and oscillator strengths:

 Excited State   1:      Singlet-A      1.7522 eV  707.60 nm  f=0.2558  <S**2>=0.000
     244 -> 247        0.13860
     245 -> 248       -0.19450
     246 -> 247        0.66648
     246 <- 247       -0.14227
 This state for optimization and/or second-order correction.
 Total Energy, E(TD-HF/TD-DFT) =  -3007.29888056
 Copying the excited state density for this state as the 1-particle RhoCI density.

 Excited State   2:      Singlet-A      1.8554 eV  668.23 nm  f=0.0497  <S**2>=0.000
     243 -> 247       -0.36333
     244 -> 247        0.44812
     245 -> 247       -0.35501
     246 -> 247       -0.17136

 Excited State   3:      Singlet-A      1.8887 eV  656.46 nm  f=0.0031  <S**2>=0.000
     243 -> 247        0.47548
     244 -> 247        0.49823
     245 -> 247        0.14790

 Excited State   4:      Singlet-A      2.0220 eV  613.19 nm  f=0.0536  <S**2>=0.000
     243 -> 247       -0.36273
     244 -> 247        0.17057
     245 -> 247        0.51284
     246 -> 248        0.25485

 Excited State   5:      Singlet-A      2.5284 eV  490.36 nm  f=0.0003  <S**2>=0.000
     241 -> 247        0.68057
     242 -> 247       -0.18498

 The electronic state is 1-A.
 Alpha  occ. eigenvalues --  -46.27880 -18.83173 -18.80536 -18.77395 -18.75815
 Alpha  occ. eigenvalues --  -18.75187 -18.74778 -14.03497 -14.02975 -14.00999
 Alpha  occ. eigenvalues --  -14.00596 -10.04833 -10.03186  -9.99402  -9.99177
 Alpha  occ. eigenvalues --   -9.98406  -9.97052  -9.96795  -9.96246  -9.96016
 Alpha  occ. eigenvalues --   -9.95754  -9.95525  -9.95505  -9.94876  -9.94657
 Alpha  occ. eigenvalues --   -9.94433  -9.94280  -9.94258  -9.94208  -9.94122
 Alpha  occ. eigenvalues --   -9.93979  -9.93976  -9.93937  -9.93898  -9.93706
 Alpha  occ. eigenvalues --   -9.93624  -9.93371  -9.93184  -9.92675  -9.92605
 Alpha  occ. eigenvalues --   -9.92591  -9.92568  -9.92378  -9.92357  -9.92188
 Alpha  occ. eigenvalues --   -9.92050  -9.92001  -9.91885  -9.91847  -9.91796
 Alpha  occ. eigenvalues --   -9.91757  -9.91734  -9.91634  -9.91454  -9.91361
 Alpha  occ. eigenvalues --   -9.91348  -9.91239  -9.91160  -9.91007  -9.90989
 Alpha  occ. eigenvalues --   -9.90988  -9.90985  -9.90978  -9.90909  -9.90515
 Alpha  occ. eigenvalues --   -9.90261  -2.92424  -1.72823  -1.72295  -1.72155
 Alpha  occ. eigenvalues --   -0.99297  -0.95853  -0.91291  -0.90362  -0.88510
 Alpha  occ. eigenvalues --   -0.88084  -0.87943  -0.86287  -0.85461  -0.84613
 Alpha  occ. eigenvalues --   -0.75544  -0.73814  -0.73230  -0.72822  -0.72644
 Alpha  occ. eigenvalues --   -0.72045  -0.71517  -0.71123  -0.70483  -0.69942
 Alpha  occ. eigenvalues --   -0.69487  -0.69243  -0.68262  -0.67300  -0.67152
 Alpha  occ. eigenvalues --   -0.66602  -0.65612  -0.64955  -0.64710  -0.64057
 Alpha  occ. eigenvalues --   -0.63962  -0.62706  -0.62359  -0.62043  -0.60582
 Alpha  occ. eigenvalues --   -0.60365  -0.60298  -0.59951  -0.59853  -0.59479
 Alpha  occ. eigenvalues --   -0.58584  -0.57625  -0.56735  -0.56163  -0.54183
 Alpha  occ. eigenvalues --   -0.54039  -0.53831  -0.52788  -0.52210  -0.51767
 Alpha  occ. eigenvalues --   -0.51170  -0.50766  -0.50640  -0.50504  -0.50217
 Alpha  occ. eigenvalues --   -0.49833  -0.49463  -0.48763  -0.47448  -0.46947
 Alpha  occ. eigenvalues --   -0.46642  -0.45744  -0.45484  -0.44838  -0.44270
 Alpha  occ. eigenvalues --   -0.44006  -0.43717  -0.43285  -0.42739  -0.42411
 Alpha  occ. eigenvalues --   -0.42091  -0.42021  -0.41653  -0.41246  -0.40999
 Alpha  occ. eigenvalues --   -0.40953  -0.40487  -0.40019  -0.39825  -0.39777
 Alpha  occ. eigenvalues --   -0.39655  -0.39587  -0.39283  -0.39246  -0.39098
 Alpha  occ. eigenvalues --   -0.39044  -0.38780  -0.38611  -0.38376  -0.38303
 Alpha  occ. eigenvalues --   -0.38037  -0.37841  -0.37652  -0.37427  -0.37242
 Alpha  occ. eigenvalues --   -0.37010  -0.36789  -0.36657  -0.36586  -0.36371
 Alpha  occ. eigenvalues --   -0.36219  -0.36083  -0.35918  -0.35741  -0.35436
 Alpha  occ. eigenvalues --   -0.35090  -0.35018  -0.34967  -0.34831  -0.34597
 Alpha  occ. eigenvalues --   -0.34329  -0.34171  -0.34068  -0.34029  -0.33760
 Alpha  occ. eigenvalues --   -0.33466  -0.33353  -0.33247  -0.33205  -0.33117
 Alpha  occ. eigenvalues --   -0.32968  -0.32901  -0.32737  -0.32611  -0.32074
 Alpha  occ. eigenvalues --   -0.32003  -0.31700  -0.31641  -0.31434  -0.31407
 Alpha  occ. eigenvalues --   -0.31324  -0.30995  -0.30651  -0.30595  -0.30476
 Alpha  occ. eigenvalues --   -0.30289  -0.30090  -0.30019  -0.29957  -0.29642
 Alpha  occ. eigenvalues --   -0.29597  -0.29472  -0.29133  -0.28935  -0.28685
 Alpha  occ. eigenvalues --   -0.28639  -0.28406  -0.28253  -0.28067  -0.27902
 Alpha  occ. eigenvalues --   -0.27626  -0.27500  -0.27000  -0.26722  -0.26376
 Alpha  occ. eigenvalues --   -0.26202  -0.26120  -0.26026  -0.25555  -0.25532
 Alpha  occ. eigenvalues --   -0.25513  -0.25072  -0.23934  -0.23635  -0.23584
 Alpha  occ. eigenvalues --   -0.23187  -0.22363  -0.21487  -0.21034  -0.20881
 Alpha  occ. eigenvalues --   -0.20544  -0.20108  -0.18122  -0.18027  -0.16993
 Alpha  occ. eigenvalues --   -0.15420
 Alpha virt. eigenvalues --   -0.11246  -0.06859  -0.06326  -0.04517  -0.04419
 Alpha virt. eigenvalues --   -0.03847  -0.02029  -0.01991  -0.01355   0.00198
 Alpha virt. eigenvalues --    0.01311   0.01900   0.02303   0.02626   0.03034

 Mulliken charges:
               1
     1  Mg   0.711202
     2  C    0.052510
     3  C   -0.076649
     4  C   -0.060232
     5  C   -0.118136
     6  N   -0.194601
     7  C   -0.060911
     8  C   -0.001808
     9  C   -0.022074
    10  C   -0.028947
    11  C    0.124779
    12  C    0.130138
    13  C    0.128595
    14  C    0.089955
    15  O   -0.208618
    16  O   -0.256958
    17  N   -0.174024
    18  C    0.147014
    19  C   -0.140355
    20  C    0.022111
    21  C    0.133594
    22  C    0.178043
    23  C   -0.086320
    24  O   -0.173413
    25  C    0.122994
    26  N   -0.225178
    27  C   -0.007123
    28  C    0.027728
    29  C    0.032787
    30  C   -0.029501
    31  C    0.104775
    32  C    0.091948
    33  C    0.078841
    34  N   -0.297797
    35  C    0.115538
    36  C   -0.146921
    37  C    0.107743
    38  C    0.063014
    39  C    0.187904
    40  C   -0.081223
    41  O   -0.180611
    42  C    0.067876
    43  C    0.119920
    44  O   -0.186798
    45  O   -0.286426
    46  C    0.215397
    47  C    0.358244
    48  C   -0.139927
    49  C   -0.144101
    50  C    0.104384
    51  C    0.198882
    52  C   -0.014517
    53  C    0.105048
    54  C   -0.081169
    55  C    0.113883
    56  C    0.129990
    57  C    0.032053
    58  C    0.141255
    59  C   -0.088452
    60  C    0.096441
    61  C    0.131788
    62  C    0.073526
    63  C    0.091524
    64  C   -0.061110
    65  C    0.089271
    66  C    0.124349
    67  H   -0.072535
    68  H   -0.050580
    69  H   -0.021077
    70  H    0.009394
    71  H   -0.034319
    72  H   -0.018628
    73  H    0.030022
    74  H   -0.004271
    75  H   -0.009157
    76  H   -0.024148
    77  H   -0.009313
    78  H    0.001648
    79  H    0.002829
    80  H   -0.003334
    81  H    0.001363
    82  H   -0.009557
    83  H   -0.012860
    84  H    0.017728
    85  H   -0.013904
    86  H   -0.021975
    87  H   -0.004180
    88  H    0.002153
    89  H   -0.006045
    90  H   -0.015432
    91  H   -0.016704
    92  H   -0.007772
    93  H   -0.010090
    94  H   -0.000631
    95  H    0.008301
    96  H   -0.002402
    97  H   -0.008830
    98  H    0.007198
    99  H    0.023538
   100  H    0.021297
   101  H    0.007357
   102  H    0.007630
   103  H   -0.000500
   104  H   -0.042598
   105  H   -0.028962
   106  H    0.009061
   107  H   -0.001058
   108  H   -0.035011
   109  H   -0.023941
   110  H   -0.016494
   111  H   -0.038570
   112  H   -0.021417
   113  H   -0.039978
   114  H   -0.039631
   115  H   -0.012572
   116  H   -0.029941
   117  H   -0.011657
   118  H   -0.040756
   119  H   -0.045528
   120  H   -0.044438
   121  H   -0.031680
   122  H   -0.048764
   123  H   -0.038853
   124  H   -0.029996
   125  H   -0.007836
   126  H   -0.015694
   127  H   -0.014894
   128  H   -0.047640
   129  H   -0.060125
   130  H   -0.021647
   131  H   -0.035945
   132  H   -0.029677
   133  H   -0.029585
   134  H   -0.032993
   135  H   -0.019974
   136  H   -0.025074
   137  H   -0.011838
   138  H   -0.027437
   139  H   -0.016974
   140  H   -0.023231
 Sum of Mulliken charges =  -0.00000

 Dipole moment (field-independent basis, Debye):
    X=              3.2405    Y=              1.4789    Z=             -2.6008  Tot=              4.4104
 Quadrupole moment (field-independent basis, Debye-Ang):
   XX=           -388.5221   YY=           -425.3870   ZZ=           -406.0326
   XY=            -23.7486   XZ=              8.3011   YZ=             14.6427

 Normal termination of Gaussian 16 at Sat Apr 30 07:07:15 2022.
