 Gaussian 16, Revision A.03,
 Gaussian 16:  ES64L-G16RevA.03 25-Dec-2016

 -----------------------------------
 #p cam-b3lyp/Def2SVP td=(nstates=5)
 -----------------------------------

 ------------------------------------------------------
 step_601_chromophore_6 TDDFT with cam-b3lyp functional
 ------------------------------------------------------
 Symbolic Z-matrix:
 Charge =  0 Multiplicity = 1

                         Standard orientation:
 ---------------------------------------------------------------------
 Center     Atomic      Atomic             Coordinates (Angstroms)
 Number     Number       Type             X           Y           Z
 ---------------------------------------------------------------------
      1         12           0       -5.550430    1.113440   -0.643436
      2          6           0       -5.000757   -2.324972    0.139461
      3          6           0       -2.111811    1.590491   -0.800136
      4          6           0       -5.816042    4.540511   -0.389768
      5          6           0       -8.717938    0.761396    0.665780
      6          7           0       -3.728512   -0.204517   -0.315757
      7          6           0       -3.777526   -1.610689   -0.186971
      8          6           0       -2.383542   -2.231002   -0.364020
      9          6           0       -1.438537   -0.948756   -0.279368
     10          6           0       -2.482851    0.195880   -0.541793
     11          6           0       -0.460098   -0.816945    1.010495
     12          6           0       -2.202674   -3.118449   -1.643607
     13          6           0       -1.218680   -4.336911   -1.492592
     14          6           0       -0.079569   -4.280441   -0.529347
     15          8           0       -0.171517   -4.302241    0.702272
     16          8           0        1.120619   -4.048728   -1.155837
     17          7           0       -4.235219    2.828788   -0.796573
     18          6           0       -2.884038    2.782880   -0.856158
     19          6           0       -2.307690    4.080305   -0.964096
     20          6           0       -3.440225    4.943976   -0.995697
     21          6           0       -4.592669    4.060550   -0.785858
     22          6           0       -0.783861    4.350450   -1.143456
     23          6           0       -3.504041    6.410921   -1.111637
     24          8           0       -4.563509    6.985328   -1.306034
     25          6           0       -2.234366    7.239774   -1.190558
     26          7           0       -7.078101    2.436771   -0.056266
     27          6           0       -6.944774    3.796330   -0.054054
     28          6           0       -8.232109    4.466751    0.383157
     29          6           0       -9.199718    3.212618    0.686092
     30          6           0       -8.289627    2.099247    0.433618
     31          6           0       -8.180255    5.444263    1.636230
     32          6           0      -10.451421    3.137152   -0.253585
     33          6           0      -11.731618    2.572240    0.355870
     34          7           0       -6.703902   -0.464728    0.035788
     35          6           0       -8.079579   -0.444015    0.384590
     36          6           0       -8.586730   -1.817598    0.543497
     37          6           0       -7.377496   -2.543463    0.460592
     38          6           0       -6.257400   -1.724109    0.115689
     39          6           0       -9.988738   -2.125959    0.964453
     40          6           0       -6.790253   -3.840755    0.724896
     41          8           0       -7.396534   -4.866644    1.157867
     42          6           0       -5.213476   -3.744522    0.425201
     43          6           0       -4.534705   -4.220522    1.688454
     44          8           0       -4.180917   -3.554949    2.659316
     45          8           0       -4.338499   -5.597862    1.664588
     46          6           0       -3.927942   -6.212432    2.938716
     47          6           0        2.247886   -3.988666   -0.285821
     48          6           0        3.430540   -3.743526   -1.174824
     49          6           0        4.769576   -3.998184   -1.085251
     50          6           0        5.377255   -4.679483    0.178340
     51          6           0        5.775935   -3.699354   -2.220658
     52          6           0        6.737623   -2.539242   -1.843946
     53          6           0        8.232165   -2.647162   -2.328703
     54          6           0        9.066247   -1.465860   -1.855665
     55          6           0        8.877393   -0.421432   -2.964619
     56          6           0       10.520443   -1.769346   -1.434313
     57          6           0       10.964837   -1.324836   -0.034299
     58          6           0       12.469458   -1.164526    0.248017
     59          6           0       12.793609    0.339211    0.485741
     60          6           0       13.070967    1.056714   -0.891862
     61          6           0       13.904533    0.618334    1.432978
     62          6           0       13.870363    2.022001    1.997985
     63          6           0       15.235398    2.806779    1.906227
     64          6           0       14.986610    4.317851    1.973751
     65          6           0       14.622004    4.826957    3.408086
     66          6           0       16.091486    5.072983    1.257825
     67          1           0       -1.021255    1.638525   -0.824569
     68          1           0       -6.031683    5.599796   -0.239914
     69          1           0       -9.503440    0.687267    1.421258
     70          1           0       -2.188798   -2.829674    0.526392
     71          1           0       -0.721500   -0.988145   -1.098526
     72          1           0        0.569163   -0.949170    0.676864
     73          1           0       -0.702479   -1.678409    1.632414
     74          1           0       -0.479209    0.213436    1.366876
     75          1           0       -1.938028   -2.585433   -2.557905
     76          1           0       -3.171081   -3.589917   -1.810246
     77          1           0       -0.797918   -4.717240   -2.422578
     78          1           0       -1.972978   -5.076545   -1.224372
     79          1           0       -0.500087    4.744415   -0.167460
     80          1           0       -0.563987    5.159422   -1.840523
     81          1           0       -0.188721    3.465712   -1.367490
     82          1           0       -1.539865    6.973580   -0.393429
     83          1           0       -2.334324    8.322506   -1.097252
     84          1           0       -1.816902    7.048393   -2.178854
     85          1           0       -8.636612    4.989444   -0.483632
     86          1           0       -9.375936    3.107891    1.756767
     87          1           0       -9.081976    5.360737    2.242880
     88          1           0       -8.051657    6.474703    1.305115
     89          1           0       -7.339606    5.279184    2.309496
     90          1           0      -10.164955    2.428175   -1.029092
     91          1           0      -10.643157    4.123197   -0.678131
     92          1           0      -12.297702    3.447797    0.674357
     93          1           0      -11.375517    1.976402    1.196814
     94          1           0      -12.339487    1.983957   -0.331104
     95          1           0       -9.992779   -2.745760    1.861028
     96          1           0      -10.433407   -2.801830    0.234505
     97          1           0      -10.611879   -1.237512    1.072987
     98          1           0       -5.044788   -4.436556   -0.399390
     99          1           0       -4.792139   -6.511099    3.531334
    100          1           0       -3.262893   -5.606565    3.554618
    101          1           0       -3.335646   -7.054194    2.580735
    102          1           0        2.548048   -4.859203    0.297447
    103          1           0        2.087399   -3.107550    0.336465
    104          1           0        3.134725   -3.269020   -2.111155
    105          1           0        4.656127   -4.984390    0.936506
    106          1           0        6.068305   -4.064957    0.756519
    107          1           0        5.774983   -5.646985   -0.128683
    108          1           0        5.219537   -3.320735   -3.078141
    109          1           0        6.385152   -4.568753   -2.466408
    110          1           0        6.654855   -2.350357   -0.773874
    111          1           0        6.362622   -1.671686   -2.387574
    112          1           0        8.187404   -2.702718   -3.416598
    113          1           0        8.582943   -3.549618   -1.829293
    114          1           0        8.595459   -1.090186   -0.946886
    115          1           0        9.796564   -0.210087   -3.510018
    116          1           0        8.628866    0.500701   -2.437474
    117          1           0        8.016504   -0.575191   -3.614507
    118          1           0       11.228695   -1.334685   -2.139572
    119          1           0       10.594070   -2.855453   -1.488911
    120          1           0       10.681502   -2.147599    0.622116
    121          1           0       10.193692   -0.596112    0.216424
    122          1           0       12.879896   -1.563205   -0.679381
    123          1           0       12.847507   -1.908006    0.949314
    124          1           0       11.850005    0.746216    0.848123
    125          1           0       14.024782    1.584387   -0.872132
    126          1           0       12.270352    1.767683   -1.099648
    127          1           0       13.026270    0.323238   -1.696573
    128          1           0       14.812149    0.255553    0.949295
    129          1           0       13.878759   -0.109320    2.244034
    130          1           0       13.408177    2.044419    2.984295
    131          1           0       13.153687    2.460774    1.303125
    132          1           0       15.817761    2.471155    1.048370
    133          1           0       15.766179    2.441471    2.785241
    134          1           0       14.081611    4.554722    1.415577
    135          1           0       13.715330    5.430915    3.406723
    136          1           0       15.338964    5.522932    3.843378
    137          1           0       14.498609    4.013270    4.123144
    138          1           0       15.679571    5.903131    0.684248
    139          1           0       16.638774    4.423994    0.573698
    140          1           0       16.736097    5.589618    1.967833
 ---------------------------------------------------------------------

 SCF Done:  E(RCAM-B3LYP) =  -3007.15154232     A.U. after   17 cycles

 Excitation energies and oscillator strengths:

 Excited State   1:      Singlet-A      1.6661 eV  744.17 nm  f=0.3741  <S**2>=0.000
     245 -> 248        0.18863
     246 -> 247        0.68359
     245 <- 248        0.11153
 This state for optimization and/or second-order correction.
 Total Energy, E(TD-HF/TD-DFT) =  -3007.09031514
 Copying the excited state density for this state as the 1-particle RhoCI density.

 Excited State   2:      Singlet-A      2.2219 eV  558.00 nm  f=0.0751  <S**2>=0.000
     245 -> 247        0.62167
     246 -> 248       -0.32703

 Excited State   3:      Singlet-A      3.3147 eV  374.04 nm  f=0.0516  <S**2>=0.000
     242 -> 247        0.27893
     242 -> 249        0.17106
     242 -> 251        0.10126
     243 -> 247        0.41287
     243 -> 249        0.23402
     243 -> 251        0.13948
     244 -> 247        0.21678
     246 -> 248        0.19016

 Excited State   4:      Singlet-A      3.4006 eV  364.59 nm  f=0.5377  <S**2>=0.000
     243 -> 247       -0.23455
     244 -> 247        0.18670
     245 -> 247        0.27146
     246 -> 248        0.54334

 Excited State   5:      Singlet-A      3.4681 eV  357.50 nm  f=0.0619  <S**2>=0.000
     240 -> 247        0.11271
     240 -> 249       -0.10916
     240 -> 251        0.10630
     242 -> 247       -0.27121
     244 -> 247        0.56043
     246 -> 248       -0.12919

 The electronic state is 1-A.
 Alpha  occ. eigenvalues --  -46.89501 -19.26113 -19.23431 -19.20455 -19.18969
 Alpha  occ. eigenvalues --  -19.18294 -19.18097 -14.42531 -14.41681 -14.39474
 Alpha  occ. eigenvalues --  -14.38909 -10.40213 -10.38750 -10.34845 -10.34446
 Alpha  occ. eigenvalues --  -10.32408 -10.31571 -10.31398 -10.30280 -10.30235
 Alpha  occ. eigenvalues --  -10.30163 -10.29936 -10.29669 -10.29313 -10.28918
 Alpha  occ. eigenvalues --  -10.28832 -10.28647 -10.28411 -10.28386 -10.28299
 Alpha  occ. eigenvalues --  -10.28286 -10.28117 -10.28095 -10.28066 -10.27854
 Alpha  occ. eigenvalues --  -10.27743 -10.27565 -10.27165 -10.26495 -10.26372
 Alpha  occ. eigenvalues --  -10.26289 -10.26278 -10.26181 -10.26163 -10.26036
 Alpha  occ. eigenvalues --  -10.26020 -10.26019 -10.25959 -10.25579 -10.25487
 Alpha  occ. eigenvalues --  -10.25478 -10.25397 -10.25373 -10.25357 -10.25164
 Alpha  occ. eigenvalues --  -10.25057 -10.25038 -10.24918 -10.24701 -10.24668
 Alpha  occ. eigenvalues --  -10.24658 -10.24598 -10.24585 -10.24537 -10.24088
 Alpha  occ. eigenvalues --  -10.23871  -3.17938  -1.92814  -1.92376  -1.92249
 Alpha  occ. eigenvalues --   -1.17794  -1.14392  -1.09815  -1.08299  -1.06748
 Alpha  occ. eigenvalues --   -1.05903  -1.05841  -1.03884  -1.03140  -1.02072
 Alpha  occ. eigenvalues --   -0.92706  -0.90709  -0.90063  -0.89598  -0.89346
 Alpha  occ. eigenvalues --   -0.88784  -0.88172  -0.87732  -0.87150  -0.86385
 Alpha  occ. eigenvalues --   -0.86039  -0.85599  -0.84577  -0.83457  -0.83229
 Alpha  occ. eigenvalues --   -0.82702  -0.81753  -0.80930  -0.80642  -0.79884
 Alpha  occ. eigenvalues --   -0.79749  -0.78542  -0.77980  -0.77493  -0.75954
 Alpha  occ. eigenvalues --   -0.75737  -0.75649  -0.75290  -0.75122  -0.74775
 Alpha  occ. eigenvalues --   -0.73669  -0.72614  -0.71673  -0.71034  -0.68801
 Alpha  occ. eigenvalues --   -0.68622  -0.68505  -0.67244  -0.66548  -0.65760
 Alpha  occ. eigenvalues --   -0.65268  -0.64907  -0.64668  -0.64518  -0.64310
 Alpha  occ. eigenvalues --   -0.63792  -0.63462  -0.62661  -0.61146  -0.60622
 Alpha  occ. eigenvalues --   -0.60240  -0.59254  -0.58982  -0.58227  -0.57851
 Alpha  occ. eigenvalues --   -0.57379  -0.57023  -0.56450  -0.55952  -0.55827
 Alpha  occ. eigenvalues --   -0.55187  -0.54840  -0.54587  -0.54402  -0.53910
 Alpha  occ. eigenvalues --   -0.53658  -0.53246  -0.52983  -0.52777  -0.52583
 Alpha  occ. eigenvalues --   -0.52521  -0.52155  -0.51922  -0.51776  -0.51601
 Alpha  occ. eigenvalues --   -0.51498  -0.51174  -0.51084  -0.50843  -0.50716
 Alpha  occ. eigenvalues --   -0.50616  -0.50472  -0.50082  -0.49915  -0.49498
 Alpha  occ. eigenvalues --   -0.49375  -0.49136  -0.48914  -0.48888  -0.48649
 Alpha  occ. eigenvalues --   -0.48437  -0.48300  -0.48137  -0.47981  -0.47900
 Alpha  occ. eigenvalues --   -0.47243  -0.47116  -0.46883  -0.46785  -0.46615
 Alpha  occ. eigenvalues --   -0.46276  -0.45932  -0.45881  -0.45689  -0.45484
 Alpha  occ. eigenvalues --   -0.45329  -0.45137  -0.44883  -0.44767  -0.44634
 Alpha  occ. eigenvalues --   -0.44562  -0.44500  -0.44351  -0.44333  -0.43924
 Alpha  occ. eigenvalues --   -0.43731  -0.43542  -0.43447  -0.43128  -0.42917
 Alpha  occ. eigenvalues --   -0.42854  -0.42659  -0.42141  -0.42036  -0.41873
 Alpha  occ. eigenvalues --   -0.41850  -0.41695  -0.41336  -0.41164  -0.40994
 Alpha  occ. eigenvalues --   -0.40805  -0.40748  -0.40549  -0.40197  -0.39900
 Alpha  occ. eigenvalues --   -0.39594  -0.39336  -0.39307  -0.39033  -0.38770
 Alpha  occ. eigenvalues --   -0.38528  -0.38381  -0.37797  -0.37737  -0.37475
 Alpha  occ. eigenvalues --   -0.37440  -0.37106  -0.36858  -0.36207  -0.36193
 Alpha  occ. eigenvalues --   -0.36189  -0.35711  -0.35255  -0.34578  -0.34472
 Alpha  occ. eigenvalues --   -0.34015  -0.33583  -0.32844  -0.30790  -0.30637
 Alpha  occ. eigenvalues --   -0.30201  -0.30162  -0.29955  -0.29265  -0.23773
 Alpha  occ. eigenvalues --   -0.20569
 Alpha virt. eigenvalues --   -0.08257  -0.01827   0.00035   0.01192   0.02475
 Alpha virt. eigenvalues --    0.03138   0.05476   0.05601   0.05953   0.07323
 Alpha virt. eigenvalues --    0.07830   0.08391   0.08605   0.09190   0.09344

 Mulliken charges:
               1
     1  Mg   0.840615
     2  C    0.028279
     3  C   -0.088280
     4  C   -0.080253
     5  C   -0.128846
     6  N   -0.259191
     7  C   -0.017529
     8  C   -0.060122
     9  C   -0.065716
    10  C   -0.009338
    11  C    0.070583
    12  C    0.082127
    13  C    0.060906
    14  C    0.165606
    15  O   -0.248290
    16  O   -0.320591
    17  N   -0.264981
    18  C    0.151232
    19  C   -0.140624
    20  C   -0.047012
    21  C    0.160889
    22  C    0.123381
    23  C   -0.012967
    24  O   -0.212637
    25  C    0.045382
    26  N   -0.302319
    27  C    0.020379
    28  C   -0.029066
    29  C   -0.034601
    30  C    0.003327
    31  C    0.047599
    32  C    0.038035
    33  C    0.021432
    34  N   -0.385033
    35  C    0.120665
    36  C   -0.144429
    37  C    0.033666
    38  C    0.094027
    39  C    0.136251
    40  C    0.018705
    41  O   -0.219826
    42  C   -0.015726
    43  C    0.210605
    44  O   -0.223368
    45  O   -0.350027
    46  C    0.177116
    47  C    0.325747
    48  C   -0.156894
    49  C   -0.173054
    50  C    0.047820
    51  C    0.139477
    52  C   -0.058465
    53  C    0.047808
    54  C   -0.139562
    55  C    0.055835
    56  C    0.082536
    57  C   -0.023458
    58  C    0.085053
    59  C   -0.146824
    60  C    0.041047
    61  C    0.075403
    62  C    0.020917
    63  C    0.036525
    64  C   -0.126192
    65  C    0.032094
    66  C    0.065712
    67  H   -0.038178
    68  H   -0.010101
    69  H    0.007889
    70  H    0.043748
    71  H    0.000097
    72  H    0.002818
    73  H    0.053857
    74  H    0.020872
    75  H    0.020253
    76  H    0.005770
    77  H    0.026022
    78  H    0.033060
    79  H    0.029910
    80  H    0.023540
    81  H    0.029155
    82  H    0.018049
    83  H    0.023226
    84  H    0.043768
    85  H    0.021200
    86  H    0.013318
    87  H    0.019845
    88  H    0.025127
    89  H    0.019584
    90  H    0.014431
    91  H    0.010101
    92  H    0.014987
    93  H    0.008050
    94  H    0.023432
    95  H    0.035184
    96  H    0.024297
    97  H    0.014958
    98  H    0.048726
    99  H    0.044889
   100  H    0.046604
   101  H    0.029739
   102  H    0.032380
   103  H    0.027641
   104  H   -0.008758
   105  H   -0.003655
   106  H    0.031562
   107  H    0.022737
   108  H   -0.003564
   109  H    0.006014
   110  H    0.008334
   111  H   -0.011926
   112  H    0.006870
   113  H   -0.012225
   114  H   -0.007859
   115  H    0.011737
   116  H   -0.005229
   117  H    0.011660
   118  H   -0.015918
   119  H   -0.014856
   120  H   -0.014152
   121  H   -0.004597
   122  H   -0.018369
   123  H   -0.006978
   124  H    0.001936
   125  H    0.014694
   126  H    0.007647
   127  H    0.007114
   128  H   -0.017454
   129  H   -0.027746
   130  H    0.006214
   131  H   -0.009301
   132  H   -0.002230
   133  H   -0.001260
   134  H   -0.000835
   135  H    0.004494
   136  H   -0.000471
   137  H    0.010882
   138  H   -0.002293
   139  H    0.007458
   140  H    0.000514
 Sum of Mulliken charges =  -0.00000

 Dipole moment (field-independent basis, Debye):
    X=              3.8738    Y=              1.8880    Z=             -2.8171  Tot=              5.1485
 Quadrupole moment (field-independent basis, Debye-Ang):
   XX=           -392.9832   YY=           -421.0844   ZZ=           -405.8391
   XY=            -24.6038   XZ=              8.6973   YZ=             14.6766

 Normal termination of Gaussian 16 at Sat Apr 30 06:13:07 2022.
