 Gaussian 16, Revision A.03,
 Gaussian 16:  ES64L-G16RevA.03 25-Dec-2016

 ---------------------------------
 #p PBE1PBE/Def2SVP td=(nstates=5)
 ---------------------------------

 ----------------------------------------------------
 step_601_chromophore_6 TDDFT with PBE1PBE functional
 ----------------------------------------------------
 Symbolic Z-matrix:
 Charge =  0 Multiplicity = 1

                         Standard orientation:
 ---------------------------------------------------------------------
 Center     Atomic      Atomic             Coordinates (Angstroms)
 Number     Number       Type             X           Y           Z
 ---------------------------------------------------------------------
      1         12           0       -5.550430    1.113440   -0.643436
      2          6           0       -5.000757   -2.324972    0.139461
      3          6           0       -2.111811    1.590491   -0.800136
      4          6           0       -5.816042    4.540511   -0.389768
      5          6           0       -8.717938    0.761396    0.665780
      6          7           0       -3.728512   -0.204517   -0.315757
      7          6           0       -3.777526   -1.610689   -0.186971
      8          6           0       -2.383542   -2.231002   -0.364020
      9          6           0       -1.438537   -0.948756   -0.279368
     10          6           0       -2.482851    0.195880   -0.541793
     11          6           0       -0.460098   -0.816945    1.010495
     12          6           0       -2.202674   -3.118449   -1.643607
     13          6           0       -1.218680   -4.336911   -1.492592
     14          6           0       -0.079569   -4.280441   -0.529347
     15          8           0       -0.171517   -4.302241    0.702272
     16          8           0        1.120619   -4.048728   -1.155837
     17          7           0       -4.235219    2.828788   -0.796573
     18          6           0       -2.884038    2.782880   -0.856158
     19          6           0       -2.307690    4.080305   -0.964096
     20          6           0       -3.440225    4.943976   -0.995697
     21          6           0       -4.592669    4.060550   -0.785858
     22          6           0       -0.783861    4.350450   -1.143456
     23          6           0       -3.504041    6.410921   -1.111637
     24          8           0       -4.563509    6.985328   -1.306034
     25          6           0       -2.234366    7.239774   -1.190558
     26          7           0       -7.078101    2.436771   -0.056266
     27          6           0       -6.944774    3.796330   -0.054054
     28          6           0       -8.232109    4.466751    0.383157
     29          6           0       -9.199718    3.212618    0.686092
     30          6           0       -8.289627    2.099247    0.433618
     31          6           0       -8.180255    5.444263    1.636230
     32          6           0      -10.451421    3.137152   -0.253585
     33          6           0      -11.731618    2.572240    0.355870
     34          7           0       -6.703902   -0.464728    0.035788
     35          6           0       -8.079579   -0.444015    0.384590
     36          6           0       -8.586730   -1.817598    0.543497
     37          6           0       -7.377496   -2.543463    0.460592
     38          6           0       -6.257400   -1.724109    0.115689
     39          6           0       -9.988738   -2.125959    0.964453
     40          6           0       -6.790253   -3.840755    0.724896
     41          8           0       -7.396534   -4.866644    1.157867
     42          6           0       -5.213476   -3.744522    0.425201
     43          6           0       -4.534705   -4.220522    1.688454
     44          8           0       -4.180917   -3.554949    2.659316
     45          8           0       -4.338499   -5.597862    1.664588
     46          6           0       -3.927942   -6.212432    2.938716
     47          6           0        2.247886   -3.988666   -0.285821
     48          6           0        3.430540   -3.743526   -1.174824
     49          6           0        4.769576   -3.998184   -1.085251
     50          6           0        5.377255   -4.679483    0.178340
     51          6           0        5.775935   -3.699354   -2.220658
     52          6           0        6.737623   -2.539242   -1.843946
     53          6           0        8.232165   -2.647162   -2.328703
     54          6           0        9.066247   -1.465860   -1.855665
     55          6           0        8.877393   -0.421432   -2.964619
     56          6           0       10.520443   -1.769346   -1.434313
     57          6           0       10.964837   -1.324836   -0.034299
     58          6           0       12.469458   -1.164526    0.248017
     59          6           0       12.793609    0.339211    0.485741
     60          6           0       13.070967    1.056714   -0.891862
     61          6           0       13.904533    0.618334    1.432978
     62          6           0       13.870363    2.022001    1.997985
     63          6           0       15.235398    2.806779    1.906227
     64          6           0       14.986610    4.317851    1.973751
     65          6           0       14.622004    4.826957    3.408086
     66          6           0       16.091486    5.072983    1.257825
     67          1           0       -1.021255    1.638525   -0.824569
     68          1           0       -6.031683    5.599796   -0.239914
     69          1           0       -9.503440    0.687267    1.421258
     70          1           0       -2.188798   -2.829674    0.526392
     71          1           0       -0.721500   -0.988145   -1.098526
     72          1           0        0.569163   -0.949170    0.676864
     73          1           0       -0.702479   -1.678409    1.632414
     74          1           0       -0.479209    0.213436    1.366876
     75          1           0       -1.938028   -2.585433   -2.557905
     76          1           0       -3.171081   -3.589917   -1.810246
     77          1           0       -0.797918   -4.717240   -2.422578
     78          1           0       -1.972978   -5.076545   -1.224372
     79          1           0       -0.500087    4.744415   -0.167460
     80          1           0       -0.563987    5.159422   -1.840523
     81          1           0       -0.188721    3.465712   -1.367490
     82          1           0       -1.539865    6.973580   -0.393429
     83          1           0       -2.334324    8.322506   -1.097252
     84          1           0       -1.816902    7.048393   -2.178854
     85          1           0       -8.636612    4.989444   -0.483632
     86          1           0       -9.375936    3.107891    1.756767
     87          1           0       -9.081976    5.360737    2.242880
     88          1           0       -8.051657    6.474703    1.305115
     89          1           0       -7.339606    5.279184    2.309496
     90          1           0      -10.164955    2.428175   -1.029092
     91          1           0      -10.643157    4.123197   -0.678131
     92          1           0      -12.297702    3.447797    0.674357
     93          1           0      -11.375517    1.976402    1.196814
     94          1           0      -12.339487    1.983957   -0.331104
     95          1           0       -9.992779   -2.745760    1.861028
     96          1           0      -10.433407   -2.801830    0.234505
     97          1           0      -10.611879   -1.237512    1.072987
     98          1           0       -5.044788   -4.436556   -0.399390
     99          1           0       -4.792139   -6.511099    3.531334
    100          1           0       -3.262893   -5.606565    3.554618
    101          1           0       -3.335646   -7.054194    2.580735
    102          1           0        2.548048   -4.859203    0.297447
    103          1           0        2.087399   -3.107550    0.336465
    104          1           0        3.134725   -3.269020   -2.111155
    105          1           0        4.656127   -4.984390    0.936506
    106          1           0        6.068305   -4.064957    0.756519
    107          1           0        5.774983   -5.646985   -0.128683
    108          1           0        5.219537   -3.320735   -3.078141
    109          1           0        6.385152   -4.568753   -2.466408
    110          1           0        6.654855   -2.350357   -0.773874
    111          1           0        6.362622   -1.671686   -2.387574
    112          1           0        8.187404   -2.702718   -3.416598
    113          1           0        8.582943   -3.549618   -1.829293
    114          1           0        8.595459   -1.090186   -0.946886
    115          1           0        9.796564   -0.210087   -3.510018
    116          1           0        8.628866    0.500701   -2.437474
    117          1           0        8.016504   -0.575191   -3.614507
    118          1           0       11.228695   -1.334685   -2.139572
    119          1           0       10.594070   -2.855453   -1.488911
    120          1           0       10.681502   -2.147599    0.622116
    121          1           0       10.193692   -0.596112    0.216424
    122          1           0       12.879896   -1.563205   -0.679381
    123          1           0       12.847507   -1.908006    0.949314
    124          1           0       11.850005    0.746216    0.848123
    125          1           0       14.024782    1.584387   -0.872132
    126          1           0       12.270352    1.767683   -1.099648
    127          1           0       13.026270    0.323238   -1.696573
    128          1           0       14.812149    0.255553    0.949295
    129          1           0       13.878759   -0.109320    2.244034
    130          1           0       13.408177    2.044419    2.984295
    131          1           0       13.153687    2.460774    1.303125
    132          1           0       15.817761    2.471155    1.048370
    133          1           0       15.766179    2.441471    2.785241
    134          1           0       14.081611    4.554722    1.415577
    135          1           0       13.715330    5.430915    3.406723
    136          1           0       15.338964    5.522932    3.843378
    137          1           0       14.498609    4.013270    4.123144
    138          1           0       15.679571    5.903131    0.684248
    139          1           0       16.638774    4.423994    0.573698
    140          1           0       16.736097    5.589618    1.967833
 ---------------------------------------------------------------------

 SCF Done:  E(RPBE1PBE) =  -3005.34212797     A.U. after   15 cycles

 Excitation energies and oscillator strengths:

 Excited State   1:      Singlet-A      1.8161 eV  682.68 nm  f=0.3595  <S**2>=0.000
     245 -> 248       -0.18309
     246 -> 247        0.69118
     246 <- 247       -0.10522
 This state for optimization and/or second-order correction.
 Total Energy, E(TD-HF/TD-DFT) =  -3005.27538636
 Copying the excited state density for this state as the 1-particle RhoCI density.

 Excited State   2:      Singlet-A      2.2162 eV  559.45 nm  f=0.0843  <S**2>=0.000
     245 -> 247        0.63973
     246 -> 248        0.29028

 Excited State   3:      Singlet-A      2.8772 eV  430.91 nm  f=0.0006  <S**2>=0.000
     243 -> 247       -0.40790
     243 -> 249       -0.14476
     244 -> 247        0.52003
     244 -> 249        0.13166

 Excited State   4:      Singlet-A      2.9914 eV  414.47 nm  f=0.0023  <S**2>=0.000
     242 -> 247        0.40752
     242 -> 249       -0.12640
     243 -> 247        0.43117
     244 -> 247        0.30056

 Excited State   5:      Singlet-A      3.1186 eV  397.56 nm  f=0.0114  <S**2>=0.000
     242 -> 247        0.48849
     243 -> 247       -0.32271
     244 -> 247       -0.30564
     246 -> 248        0.19795

 The electronic state is 1-A.
 Alpha  occ. eigenvalues --  -46.92911 -19.26786 -19.24099 -19.20723 -19.19182
 Alpha  occ. eigenvalues --  -19.18610 -19.18254 -14.41965 -14.41276 -14.39019
 Alpha  occ. eigenvalues --  -14.38648 -10.37232 -10.35754 -10.32065 -10.31488
 Alpha  occ. eigenvalues --  -10.29802 -10.29454 -10.29075 -10.28084 -10.27892
 Alpha  occ. eigenvalues --  -10.27523 -10.27498 -10.27397 -10.26815 -10.26503
 Alpha  occ. eigenvalues --  -10.26356 -10.26297 -10.26223 -10.26179 -10.26150
 Alpha  occ. eigenvalues --  -10.26107 -10.25839 -10.25810 -10.25723 -10.25597
 Alpha  occ. eigenvalues --  -10.25127 -10.25079 -10.25077 -10.24119 -10.23979
 Alpha  occ. eigenvalues --  -10.23939 -10.23832 -10.23703 -10.23699 -10.23628
 Alpha  occ. eigenvalues --  -10.23595 -10.23527 -10.23284 -10.23194 -10.23156
 Alpha  occ. eigenvalues --  -10.23128 -10.23063 -10.23054 -10.22885 -10.22744
 Alpha  occ. eigenvalues --  -10.22741 -10.22644 -10.22467 -10.22260 -10.22220
 Alpha  occ. eigenvalues --  -10.22199 -10.22008 -10.21965 -10.21935 -10.21453
 Alpha  occ. eigenvalues --  -10.21392  -3.14928  -1.87742  -1.87284  -1.87160
 Alpha  occ. eigenvalues --   -1.12610  -1.09135  -1.04479  -1.03134  -1.01502
 Alpha  occ. eigenvalues --   -1.00656  -1.00553  -0.98550  -0.97759  -0.96796
 Alpha  occ. eigenvalues --   -0.87089  -0.84812  -0.84194  -0.83761  -0.83675
 Alpha  occ. eigenvalues --   -0.82940  -0.82463  -0.81839  -0.81427  -0.80793
 Alpha  occ. eigenvalues --   -0.80330  -0.79823  -0.78747  -0.77720  -0.77565
 Alpha  occ. eigenvalues --   -0.76969  -0.75975  -0.75093  -0.74893  -0.74172
 Alpha  occ. eigenvalues --   -0.73940  -0.72750  -0.72258  -0.71848  -0.70201
 Alpha  occ. eigenvalues --   -0.69905  -0.69811  -0.69457  -0.69420  -0.68918
 Alpha  occ. eigenvalues --   -0.68008  -0.67072  -0.66100  -0.65355  -0.63166
 Alpha  occ. eigenvalues --   -0.62984  -0.62812  -0.61736  -0.60818  -0.60264
 Alpha  occ. eigenvalues --   -0.59714  -0.59271  -0.59169  -0.58895  -0.58423
 Alpha  occ. eigenvalues --   -0.58387  -0.57620  -0.56877  -0.55721  -0.55169
 Alpha  occ. eigenvalues --   -0.54662  -0.53842  -0.53516  -0.52821  -0.52265
 Alpha  occ. eigenvalues --   -0.51906  -0.51511  -0.50959  -0.50532  -0.50344
 Alpha  occ. eigenvalues --   -0.49746  -0.49160  -0.49073  -0.48961  -0.48417
 Alpha  occ. eigenvalues --   -0.48055  -0.47828  -0.47525  -0.47269  -0.47152
 Alpha  occ. eigenvalues --   -0.46944  -0.46648  -0.46515  -0.46312  -0.46189
 Alpha  occ. eigenvalues --   -0.46044  -0.45742  -0.45594  -0.45467  -0.45283
 Alpha  occ. eigenvalues --   -0.45150  -0.45008  -0.44688  -0.44438  -0.44056
 Alpha  occ. eigenvalues --   -0.43947  -0.43704  -0.43512  -0.43504  -0.43266
 Alpha  occ. eigenvalues --   -0.42999  -0.42912  -0.42814  -0.42632  -0.42526
 Alpha  occ. eigenvalues --   -0.41953  -0.41809  -0.41540  -0.41418  -0.41276
 Alpha  occ. eigenvalues --   -0.40967  -0.40672  -0.40634  -0.40357  -0.40237
 Alpha  occ. eigenvalues --   -0.40063  -0.39898  -0.39603  -0.39487  -0.39484
 Alpha  occ. eigenvalues --   -0.39339  -0.39173  -0.39144  -0.39034  -0.38709
 Alpha  occ. eigenvalues --   -0.38449  -0.38263  -0.38199  -0.37997  -0.37769
 Alpha  occ. eigenvalues --   -0.37593  -0.37427  -0.36868  -0.36814  -0.36693
 Alpha  occ. eigenvalues --   -0.36542  -0.36527  -0.36274  -0.35912  -0.35821
 Alpha  occ. eigenvalues --   -0.35581  -0.35542  -0.35515  -0.34977  -0.34746
 Alpha  occ. eigenvalues --   -0.34512  -0.34209  -0.34122  -0.33999  -0.33630
 Alpha  occ. eigenvalues --   -0.33580  -0.33159  -0.32704  -0.32598  -0.32463
 Alpha  occ. eigenvalues --   -0.32321  -0.32171  -0.31677  -0.31293  -0.31039
 Alpha  occ. eigenvalues --   -0.30969  -0.30551  -0.30157  -0.29752  -0.29344
 Alpha  occ. eigenvalues --   -0.28926  -0.28705  -0.28054  -0.26423  -0.25927
 Alpha  occ. eigenvalues --   -0.25518  -0.25178  -0.25023  -0.24845  -0.20705
 Alpha  occ. eigenvalues --   -0.18284
 Alpha virt. eigenvalues --   -0.10785  -0.05282  -0.04095  -0.01909  -0.01583
 Alpha virt. eigenvalues --   -0.01367   0.00976   0.01002   0.01498   0.03293
 Alpha virt. eigenvalues --    0.04182   0.04739   0.05247   0.05547   0.05933

 Mulliken charges:
               1
     1  Mg   0.977264
     2  C    0.018446
     3  C   -0.082265
     4  C   -0.063136
     5  C   -0.118455
     6  N   -0.358626
     7  C    0.057670
     8  C   -0.134079
     9  C   -0.127348
    10  C    0.036140
    11  C    0.007697
    12  C    0.030039
    13  C   -0.010540
    14  C    0.228105
    15  O   -0.280711
    16  O   -0.353500
    17  N   -0.388876
    18  C    0.162617
    19  C   -0.157219
    20  C   -0.094347
    21  C    0.193848
    22  C    0.062315
    23  C    0.030480
    24  O   -0.248927
    25  C   -0.024625
    26  N   -0.407959
    27  C    0.057478
    28  C   -0.104142
    29  C   -0.118403
    30  C    0.043437
    31  C   -0.011741
    32  C   -0.020240
    33  C   -0.052315
    34  N   -0.505854
    35  C    0.142715
    36  C   -0.157741
    37  C   -0.023434
    38  C    0.148573
    39  C    0.082917
    40  C    0.115029
    41  O   -0.261403
    42  C   -0.135317
    43  C    0.301158
    44  O   -0.258186
    45  O   -0.381678
    46  C    0.122745
    47  C    0.279741
    48  C   -0.164879
    49  C   -0.223271
    50  C   -0.007616
    51  C    0.074952
    52  C   -0.114604
    53  C   -0.020512
    54  C   -0.223117
    55  C   -0.001458
    56  C    0.030955
    57  C   -0.086547
    58  C    0.029917
    59  C   -0.240150
    60  C   -0.016141
    61  C    0.025693
    62  C   -0.044935
    63  C   -0.020904
    64  C   -0.221967
    65  C   -0.023883
    66  C    0.005937
    67  H   -0.005026
    68  H    0.022382
    69  H    0.038304
    70  H    0.085741
    71  H    0.037796
    72  H    0.031562
    73  H    0.079951
    74  H    0.048689
    75  H    0.051382
    76  H    0.042013
    77  H    0.057103
    78  H    0.065724
    79  H    0.058130
    80  H    0.050744
    81  H    0.054724
    82  H    0.044777
    83  H    0.050312
    84  H    0.070034
    85  H    0.057857
    86  H    0.049895
    87  H    0.047305
    88  H    0.052037
    89  H    0.047552
    90  H    0.048615
    91  H    0.042487
    92  H    0.043814
    93  H    0.035925
    94  H    0.051109
    95  H    0.063284
    96  H    0.053388
    97  H    0.040758
    98  H    0.084041
    99  H    0.066752
   100  H    0.067541
   101  H    0.051729
   102  H    0.058926
   103  H    0.058118
   104  H    0.022169
   105  H    0.023338
   106  H    0.057171
   107  H    0.050212
   108  H    0.028977
   109  H    0.038337
   110  H    0.040637
   111  H    0.022548
   112  H    0.040576
   113  H    0.022331
   114  H    0.030292
   115  H    0.038819
   116  H    0.023320
   117  H    0.037741
   118  H    0.017589
   119  H    0.018517
   120  H    0.020990
   121  H    0.026506
   122  H    0.015476
   123  H    0.023646
   124  H    0.041625
   125  H    0.043010
   126  H    0.034656
   127  H    0.034266
   128  H    0.014815
   129  H    0.006759
   130  H    0.037664
   131  H    0.025910
   132  H    0.028066
   133  H    0.032979
   134  H    0.037892
   135  H    0.031583
   136  H    0.026456
   137  H    0.037085
   138  H    0.025641
   139  H    0.034130
   140  H    0.027983
 Sum of Mulliken charges =  -0.00000

 Dipole moment (field-independent basis, Debye):
    X=              3.6135    Y=              1.8025    Z=             -2.7237  Tot=              4.8709
 Quadrupole moment (field-independent basis, Debye-Ang):
   XX=           -385.1911   YY=           -418.7523   ZZ=           -403.3390
   XY=            -25.3405   XZ=              7.9940   YZ=             14.8752

 Normal termination of Gaussian 16 at Sat Apr 30 06:31:17 2022.
