 Gaussian 16, Revision A.03,
 Gaussian 16:  ES64L-G16RevA.03 25-Dec-2016

 --------------------------------
 #p wB97XD/Def2SVP td=(nstates=5)
 --------------------------------

 ---------------------------------------------------
 step_601_chromophore_6 TDDFT with wB97XD functional
 ---------------------------------------------------
 Symbolic Z-matrix:
 Charge =  0 Multiplicity = 1

                         Standard orientation:
 ---------------------------------------------------------------------
 Center     Atomic      Atomic             Coordinates (Angstroms)
 Number     Number       Type             X           Y           Z
 ---------------------------------------------------------------------
      1         12           0       -5.550430    1.113440   -0.643436
      2          6           0       -5.000757   -2.324972    0.139461
      3          6           0       -2.111811    1.590491   -0.800136
      4          6           0       -5.816042    4.540511   -0.389768
      5          6           0       -8.717938    0.761396    0.665780
      6          7           0       -3.728512   -0.204517   -0.315757
      7          6           0       -3.777526   -1.610689   -0.186971
      8          6           0       -2.383542   -2.231002   -0.364020
      9          6           0       -1.438537   -0.948756   -0.279368
     10          6           0       -2.482851    0.195880   -0.541793
     11          6           0       -0.460098   -0.816945    1.010495
     12          6           0       -2.202674   -3.118449   -1.643607
     13          6           0       -1.218680   -4.336911   -1.492592
     14          6           0       -0.079569   -4.280441   -0.529347
     15          8           0       -0.171517   -4.302241    0.702272
     16          8           0        1.120619   -4.048728   -1.155837
     17          7           0       -4.235219    2.828788   -0.796573
     18          6           0       -2.884038    2.782880   -0.856158
     19          6           0       -2.307690    4.080305   -0.964096
     20          6           0       -3.440225    4.943976   -0.995697
     21          6           0       -4.592669    4.060550   -0.785858
     22          6           0       -0.783861    4.350450   -1.143456
     23          6           0       -3.504041    6.410921   -1.111637
     24          8           0       -4.563509    6.985328   -1.306034
     25          6           0       -2.234366    7.239774   -1.190558
     26          7           0       -7.078101    2.436771   -0.056266
     27          6           0       -6.944774    3.796330   -0.054054
     28          6           0       -8.232109    4.466751    0.383157
     29          6           0       -9.199718    3.212618    0.686092
     30          6           0       -8.289627    2.099247    0.433618
     31          6           0       -8.180255    5.444263    1.636230
     32          6           0      -10.451421    3.137152   -0.253585
     33          6           0      -11.731618    2.572240    0.355870
     34          7           0       -6.703902   -0.464728    0.035788
     35          6           0       -8.079579   -0.444015    0.384590
     36          6           0       -8.586730   -1.817598    0.543497
     37          6           0       -7.377496   -2.543463    0.460592
     38          6           0       -6.257400   -1.724109    0.115689
     39          6           0       -9.988738   -2.125959    0.964453
     40          6           0       -6.790253   -3.840755    0.724896
     41          8           0       -7.396534   -4.866644    1.157867
     42          6           0       -5.213476   -3.744522    0.425201
     43          6           0       -4.534705   -4.220522    1.688454
     44          8           0       -4.180917   -3.554949    2.659316
     45          8           0       -4.338499   -5.597862    1.664588
     46          6           0       -3.927942   -6.212432    2.938716
     47          6           0        2.247886   -3.988666   -0.285821
     48          6           0        3.430540   -3.743526   -1.174824
     49          6           0        4.769576   -3.998184   -1.085251
     50          6           0        5.377255   -4.679483    0.178340
     51          6           0        5.775935   -3.699354   -2.220658
     52          6           0        6.737623   -2.539242   -1.843946
     53          6           0        8.232165   -2.647162   -2.328703
     54          6           0        9.066247   -1.465860   -1.855665
     55          6           0        8.877393   -0.421432   -2.964619
     56          6           0       10.520443   -1.769346   -1.434313
     57          6           0       10.964837   -1.324836   -0.034299
     58          6           0       12.469458   -1.164526    0.248017
     59          6           0       12.793609    0.339211    0.485741
     60          6           0       13.070967    1.056714   -0.891862
     61          6           0       13.904533    0.618334    1.432978
     62          6           0       13.870363    2.022001    1.997985
     63          6           0       15.235398    2.806779    1.906227
     64          6           0       14.986610    4.317851    1.973751
     65          6           0       14.622004    4.826957    3.408086
     66          6           0       16.091486    5.072983    1.257825
     67          1           0       -1.021255    1.638525   -0.824569
     68          1           0       -6.031683    5.599796   -0.239914
     69          1           0       -9.503440    0.687267    1.421258
     70          1           0       -2.188798   -2.829674    0.526392
     71          1           0       -0.721500   -0.988145   -1.098526
     72          1           0        0.569163   -0.949170    0.676864
     73          1           0       -0.702479   -1.678409    1.632414
     74          1           0       -0.479209    0.213436    1.366876
     75          1           0       -1.938028   -2.585433   -2.557905
     76          1           0       -3.171081   -3.589917   -1.810246
     77          1           0       -0.797918   -4.717240   -2.422578
     78          1           0       -1.972978   -5.076545   -1.224372
     79          1           0       -0.500087    4.744415   -0.167460
     80          1           0       -0.563987    5.159422   -1.840523
     81          1           0       -0.188721    3.465712   -1.367490
     82          1           0       -1.539865    6.973580   -0.393429
     83          1           0       -2.334324    8.322506   -1.097252
     84          1           0       -1.816902    7.048393   -2.178854
     85          1           0       -8.636612    4.989444   -0.483632
     86          1           0       -9.375936    3.107891    1.756767
     87          1           0       -9.081976    5.360737    2.242880
     88          1           0       -8.051657    6.474703    1.305115
     89          1           0       -7.339606    5.279184    2.309496
     90          1           0      -10.164955    2.428175   -1.029092
     91          1           0      -10.643157    4.123197   -0.678131
     92          1           0      -12.297702    3.447797    0.674357
     93          1           0      -11.375517    1.976402    1.196814
     94          1           0      -12.339487    1.983957   -0.331104
     95          1           0       -9.992779   -2.745760    1.861028
     96          1           0      -10.433407   -2.801830    0.234505
     97          1           0      -10.611879   -1.237512    1.072987
     98          1           0       -5.044788   -4.436556   -0.399390
     99          1           0       -4.792139   -6.511099    3.531334
    100          1           0       -3.262893   -5.606565    3.554618
    101          1           0       -3.335646   -7.054194    2.580735
    102          1           0        2.548048   -4.859203    0.297447
    103          1           0        2.087399   -3.107550    0.336465
    104          1           0        3.134725   -3.269020   -2.111155
    105          1           0        4.656127   -4.984390    0.936506
    106          1           0        6.068305   -4.064957    0.756519
    107          1           0        5.774983   -5.646985   -0.128683
    108          1           0        5.219537   -3.320735   -3.078141
    109          1           0        6.385152   -4.568753   -2.466408
    110          1           0        6.654855   -2.350357   -0.773874
    111          1           0        6.362622   -1.671686   -2.387574
    112          1           0        8.187404   -2.702718   -3.416598
    113          1           0        8.582943   -3.549618   -1.829293
    114          1           0        8.595459   -1.090186   -0.946886
    115          1           0        9.796564   -0.210087   -3.510018
    116          1           0        8.628866    0.500701   -2.437474
    117          1           0        8.016504   -0.575191   -3.614507
    118          1           0       11.228695   -1.334685   -2.139572
    119          1           0       10.594070   -2.855453   -1.488911
    120          1           0       10.681502   -2.147599    0.622116
    121          1           0       10.193692   -0.596112    0.216424
    122          1           0       12.879896   -1.563205   -0.679381
    123          1           0       12.847507   -1.908006    0.949314
    124          1           0       11.850005    0.746216    0.848123
    125          1           0       14.024782    1.584387   -0.872132
    126          1           0       12.270352    1.767683   -1.099648
    127          1           0       13.026270    0.323238   -1.696573
    128          1           0       14.812149    0.255553    0.949295
    129          1           0       13.878759   -0.109320    2.244034
    130          1           0       13.408177    2.044419    2.984295
    131          1           0       13.153687    2.460774    1.303125
    132          1           0       15.817761    2.471155    1.048370
    133          1           0       15.766179    2.441471    2.785241
    134          1           0       14.081611    4.554722    1.415577
    135          1           0       13.715330    5.430915    3.406723
    136          1           0       15.338964    5.522932    3.843378
    137          1           0       14.498609    4.013270    4.123144
    138          1           0       15.679571    5.903131    0.684248
    139          1           0       16.638774    4.423994    0.573698
    140          1           0       16.736097    5.589618    1.967833
 ---------------------------------------------------------------------

 SCF Done:  E(RwB97XD) =  -3007.84811894     A.U. after   19 cycles

 Excitation energies and oscillator strengths:

 Excited State   1:      Singlet-A      1.6076 eV  771.22 nm  f=0.3723  <S**2>=0.000
     245 -> 248        0.19427
     246 -> 247        0.68138
     245 <- 248        0.12120
 This state for optimization and/or second-order correction.
 Total Energy, E(TD-HF/TD-DFT) =  -3007.78903955
 Copying the excited state density for this state as the 1-particle RhoCI density.

 Excited State   2:      Singlet-A      2.1641 eV  572.90 nm  f=0.0727  <S**2>=0.000
     245 -> 247        0.62024
     246 -> 248       -0.32844

 Excited State   3:      Singlet-A      3.3346 eV  371.82 nm  f=0.0798  <S**2>=0.000
     242 -> 247        0.10294
     243 -> 247        0.43246
     243 -> 249       -0.28409
     243 -> 251        0.15172
     244 -> 247        0.26295
     245 -> 247        0.10175
     246 -> 248        0.23113

 Excited State   4:      Singlet-A      3.4097 eV  363.62 nm  f=0.5106  <S**2>=0.000
     243 -> 247       -0.27593
     243 -> 249        0.15044
     244 -> 247        0.16185
     245 -> 247        0.26131
     246 -> 248        0.52441

 Excited State   5:      Singlet-A      3.4895 eV  355.31 nm  f=0.0673  <S**2>=0.000
     241 -> 247        0.25920
     241 -> 249        0.12585
     242 -> 247       -0.17402
     244 -> 247        0.53077
     246 -> 248       -0.13310

 The electronic state is 1-A.
 Alpha  occ. eigenvalues --  -46.95849 -19.31343 -19.28666 -19.25392 -19.23896
 Alpha  occ. eigenvalues --  -19.23368 -19.23151 -14.47127 -14.46239 -14.44057
 Alpha  occ. eigenvalues --  -14.43488 -10.44016 -10.42596 -10.38888 -10.38423
 Alpha  occ. eigenvalues --  -10.36290 -10.35615 -10.35453 -10.34267 -10.34234
 Alpha  occ. eigenvalues --  -10.34010 -10.33890 -10.33670 -10.33333 -10.33039
 Alpha  occ. eigenvalues --  -10.32954 -10.32627 -10.32478 -10.32390 -10.32378
 Alpha  occ. eigenvalues --  -10.32348 -10.32194 -10.32174 -10.31992 -10.31902
 Alpha  occ. eigenvalues --  -10.31723 -10.31680 -10.31188 -10.30620 -10.30329
 Alpha  occ. eigenvalues --  -10.30192 -10.30148 -10.30041 -10.30032 -10.30028
 Alpha  occ. eigenvalues --  -10.29987 -10.29882 -10.29837 -10.29569 -10.29443
 Alpha  occ. eigenvalues --  -10.29427 -10.29411 -10.29336 -10.29209 -10.29111
 Alpha  occ. eigenvalues --  -10.29053 -10.29000 -10.28846 -10.28636 -10.28591
 Alpha  occ. eigenvalues --  -10.28582 -10.28439 -10.28401 -10.28375 -10.27892
 Alpha  occ. eigenvalues --  -10.27779  -3.21748  -1.95306  -1.94850  -1.94721
 Alpha  occ. eigenvalues --   -1.19975  -1.16545  -1.12047  -1.10480  -1.08972
 Alpha  occ. eigenvalues --   -1.08034  -1.07981  -1.05867  -1.05140  -1.04093
 Alpha  occ. eigenvalues --   -0.94688  -0.92482  -0.91864  -0.91415  -0.91244
 Alpha  occ. eigenvalues --   -0.90606  -0.90078  -0.89508  -0.89094  -0.88311
 Alpha  occ. eigenvalues --   -0.87990  -0.87467  -0.86406  -0.85351  -0.85118
 Alpha  occ. eigenvalues --   -0.84599  -0.83676  -0.82823  -0.82539  -0.81827
 Alpha  occ. eigenvalues --   -0.81602  -0.80512  -0.79887  -0.79401  -0.77838
 Alpha  occ. eigenvalues --   -0.77556  -0.77519  -0.77109  -0.77041  -0.76599
 Alpha  occ. eigenvalues --   -0.75600  -0.74591  -0.73642  -0.72964  -0.70781
 Alpha  occ. eigenvalues --   -0.70509  -0.70427  -0.69253  -0.68438  -0.67677
 Alpha  occ. eigenvalues --   -0.67215  -0.66793  -0.66666  -0.66440  -0.66115
 Alpha  occ. eigenvalues --   -0.65796  -0.65287  -0.64506  -0.63164  -0.62618
 Alpha  occ. eigenvalues --   -0.62167  -0.61216  -0.60954  -0.60199  -0.59783
 Alpha  occ. eigenvalues --   -0.59303  -0.58947  -0.58376  -0.57954  -0.57771
 Alpha  occ. eigenvalues --   -0.57131  -0.56675  -0.56504  -0.56353  -0.55800
 Alpha  occ. eigenvalues --   -0.55512  -0.55178  -0.54937  -0.54722  -0.54521
 Alpha  occ. eigenvalues --   -0.54449  -0.54030  -0.53826  -0.53667  -0.53505
 Alpha  occ. eigenvalues --   -0.53399  -0.53083  -0.52972  -0.52789  -0.52594
 Alpha  occ. eigenvalues --   -0.52500  -0.52369  -0.52027  -0.51898  -0.51434
 Alpha  occ. eigenvalues --   -0.51298  -0.51026  -0.50818  -0.50801  -0.50538
 Alpha  occ. eigenvalues --   -0.50375  -0.50261  -0.50071  -0.49932  -0.49810
 Alpha  occ. eigenvalues --   -0.49157  -0.49021  -0.48755  -0.48664  -0.48510
 Alpha  occ. eigenvalues --   -0.48170  -0.47856  -0.47816  -0.47562  -0.47377
 Alpha  occ. eigenvalues --   -0.47237  -0.47079  -0.46774  -0.46651  -0.46569
 Alpha  occ. eigenvalues --   -0.46424  -0.46385  -0.46236  -0.46230  -0.45820
 Alpha  occ. eigenvalues --   -0.45643  -0.45459  -0.45381  -0.45089  -0.44809
 Alpha  occ. eigenvalues --   -0.44766  -0.44559  -0.44081  -0.44004  -0.43841
 Alpha  occ. eigenvalues --   -0.43694  -0.43653  -0.43257  -0.43035  -0.42905
 Alpha  occ. eigenvalues --   -0.42677  -0.42670  -0.42445  -0.42056  -0.41758
 Alpha  occ. eigenvalues --   -0.41446  -0.41238  -0.41146  -0.40955  -0.40630
 Alpha  occ. eigenvalues --   -0.40431  -0.40236  -0.39764  -0.39631  -0.39403
 Alpha  occ. eigenvalues --   -0.39331  -0.39069  -0.38700  -0.38293  -0.38060
 Alpha  occ. eigenvalues --   -0.38028  -0.37565  -0.37257  -0.36527  -0.36440
 Alpha  occ. eigenvalues --   -0.35851  -0.35574  -0.34993  -0.33014  -0.32693
 Alpha  occ. eigenvalues --   -0.32253  -0.32231  -0.31963  -0.31414  -0.25688
 Alpha  occ. eigenvalues --   -0.22367
 Alpha virt. eigenvalues --   -0.06618   0.00074   0.02150   0.04365   0.04602
 Alpha virt. eigenvalues --    0.05454   0.07679   0.07777   0.08239   0.10080
 Alpha virt. eigenvalues --    0.10586   0.11411   0.11999   0.12320   0.12680

 Mulliken charges:
               1
     1  Mg   0.971033
     2  C    0.016955
     3  C   -0.095798
     4  C   -0.085285
     5  C   -0.137825
     6  N   -0.324796
     7  C    0.023528
     8  C   -0.102426
     9  C   -0.108667
    10  C    0.016808
    11  C    0.021818
    12  C    0.040162
    13  C    0.003504
    14  C    0.216461
    15  O   -0.276443
    16  O   -0.351396
    17  N   -0.350956
    18  C    0.161002
    19  C   -0.150794
    20  C   -0.090117
    21  C    0.185254
    22  C    0.075520
    23  C    0.029313
    24  O   -0.242977
    25  C   -0.014321
    26  N   -0.376076
    27  C    0.044864
    28  C   -0.081102
    29  C   -0.090516
    30  C    0.035038
    31  C   -0.000775
    32  C   -0.005449
    33  C   -0.034011
    34  N   -0.470320
    35  C    0.135106
    36  C   -0.157397
    37  C   -0.013692
    38  C    0.127545
    39  C    0.095837
    40  C    0.093653
    41  O   -0.252814
    42  C   -0.093226
    43  C    0.278946
    44  O   -0.252346
    45  O   -0.381182
    46  C    0.137735
    47  C    0.296489
    48  C   -0.172833
    49  C   -0.207157
    50  C    0.002528
    51  C    0.091200
    52  C   -0.097936
    53  C    0.004117
    54  C   -0.193680
    55  C    0.008999
    56  C    0.047246
    57  C   -0.069348
    58  C    0.045675
    59  C   -0.202045
    60  C   -0.006117
    61  C    0.034932
    62  C   -0.023006
    63  C   -0.005171
    64  C   -0.191416
    65  C   -0.014478
    66  C    0.018483
    67  H   -0.013286
    68  H    0.017144
    69  H    0.028658
    70  H    0.066427
    71  H    0.027111
    72  H    0.024532
    73  H    0.075435
    74  H    0.042783
    75  H    0.045247
    76  H    0.030643
    77  H    0.053213
    78  H    0.059927
    79  H    0.053054
    80  H    0.045683
    81  H    0.052075
    82  H    0.038936
    83  H    0.049853
    84  H    0.064742
    85  H    0.048170
    86  H    0.038480
    87  H    0.041667
    88  H    0.046610
    89  H    0.041663
    90  H    0.038235
    91  H    0.034327
    92  H    0.037709
    93  H    0.026149
    94  H    0.046434
    95  H    0.058479
    96  H    0.047771
    97  H    0.034810
    98  H    0.078702
    99  H    0.063223
   100  H    0.063678
   101  H    0.047947
   102  H    0.051817
   103  H    0.051126
   104  H    0.017374
   105  H    0.017646
   106  H    0.052453
   107  H    0.044501
   108  H    0.022514
   109  H    0.031126
   110  H    0.028755
   111  H    0.011740
   112  H    0.030924
   113  H    0.010864
   114  H    0.014435
   115  H    0.033537
   116  H    0.017167
   117  H    0.030831
   118  H    0.003428
   119  H    0.009547
   120  H    0.012464
   121  H    0.015480
   122  H    0.003709
   123  H    0.018268
   124  H    0.025744
   125  H    0.035817
   126  H    0.029348
   127  H    0.026602
   128  H    0.005539
   129  H   -0.001468
   130  H    0.031255
   131  H    0.009907
   132  H    0.018685
   133  H    0.023868
   134  H    0.025399
   135  H    0.026525
   136  H    0.020549
   137  H    0.030558
   138  H    0.020220
   139  H    0.028452
   140  H    0.021203
 Sum of Mulliken charges =  -0.00000

 Dipole moment (field-independent basis, Debye):
    X=              3.9773    Y=              1.9865    Z=             -2.8474  Tot=              5.2795
 Quadrupole moment (field-independent basis, Debye-Ang):
   XX=           -388.4139   YY=           -416.6954   ZZ=           -402.9021
   XY=            -24.7189   XZ=              8.6810   YZ=             14.5153

 Normal termination of Gaussian 16 at Sat Apr 30 06:55:45 2022.
