 Gaussian 16, Revision A.03,
 Gaussian 16:  ES64L-G16RevA.03 25-Dec-2016

 --------------------
 #p ZINDO=(nstates=5)
 --------------------

 ----------------------------
 step_601_chromophore_6 ZINDO
 ----------------------------
 Symbolic Z-matrix:
 Charge =  0 Multiplicity = 1

                         Standard orientation:
 ---------------------------------------------------------------------
 Center     Atomic      Atomic             Coordinates (Angstroms)
 Number     Number       Type             X           Y           Z
 ---------------------------------------------------------------------
      1         12           0       -5.550430    1.113440   -0.643436
      2          6           0       -5.000757   -2.324972    0.139461
      3          6           0       -2.111811    1.590491   -0.800136
      4          6           0       -5.816042    4.540511   -0.389768
      5          6           0       -8.717938    0.761396    0.665780
      6          7           0       -3.728512   -0.204517   -0.315757
      7          6           0       -3.777526   -1.610689   -0.186971
      8          6           0       -2.383542   -2.231002   -0.364020
      9          6           0       -1.438537   -0.948756   -0.279368
     10          6           0       -2.482851    0.195880   -0.541793
     11          6           0       -0.460098   -0.816945    1.010495
     12          6           0       -2.202674   -3.118449   -1.643607
     13          6           0       -1.218680   -4.336911   -1.492592
     14          6           0       -0.079569   -4.280441   -0.529347
     15          8           0       -0.171517   -4.302241    0.702272
     16          8           0        1.120619   -4.048728   -1.155837
     17          7           0       -4.235219    2.828788   -0.796573
     18          6           0       -2.884038    2.782880   -0.856158
     19          6           0       -2.307690    4.080305   -0.964096
     20          6           0       -3.440225    4.943976   -0.995697
     21          6           0       -4.592669    4.060550   -0.785858
     22          6           0       -0.783861    4.350450   -1.143456
     23          6           0       -3.504041    6.410921   -1.111637
     24          8           0       -4.563509    6.985328   -1.306034
     25          6           0       -2.234366    7.239774   -1.190558
     26          7           0       -7.078101    2.436771   -0.056266
     27          6           0       -6.944774    3.796330   -0.054054
     28          6           0       -8.232109    4.466751    0.383157
     29          6           0       -9.199718    3.212618    0.686092
     30          6           0       -8.289627    2.099247    0.433618
     31          6           0       -8.180255    5.444263    1.636230
     32          6           0      -10.451421    3.137152   -0.253585
     33          6           0      -11.731618    2.572240    0.355870
     34          7           0       -6.703902   -0.464728    0.035788
     35          6           0       -8.079579   -0.444015    0.384590
     36          6           0       -8.586730   -1.817598    0.543497
     37          6           0       -7.377496   -2.543463    0.460592
     38          6           0       -6.257400   -1.724109    0.115689
     39          6           0       -9.988738   -2.125959    0.964453
     40          6           0       -6.790253   -3.840755    0.724896
     41          8           0       -7.396534   -4.866644    1.157867
     42          6           0       -5.213476   -3.744522    0.425201
     43          6           0       -4.534705   -4.220522    1.688454
     44          8           0       -4.180917   -3.554949    2.659316
     45          8           0       -4.338499   -5.597862    1.664588
     46          6           0       -3.927942   -6.212432    2.938716
     47          6           0        2.247886   -3.988666   -0.285821
     48          6           0        3.430540   -3.743526   -1.174824
     49          6           0        4.769576   -3.998184   -1.085251
     50          6           0        5.377255   -4.679483    0.178340
     51          6           0        5.775935   -3.699354   -2.220658
     52          6           0        6.737623   -2.539242   -1.843946
     53          6           0        8.232165   -2.647162   -2.328703
     54          6           0        9.066247   -1.465860   -1.855665
     55          6           0        8.877393   -0.421432   -2.964619
     56          6           0       10.520443   -1.769346   -1.434313
     57          6           0       10.964837   -1.324836   -0.034299
     58          6           0       12.469458   -1.164526    0.248017
     59          6           0       12.793609    0.339211    0.485741
     60          6           0       13.070967    1.056714   -0.891862
     61          6           0       13.904533    0.618334    1.432978
     62          6           0       13.870363    2.022001    1.997985
     63          6           0       15.235398    2.806779    1.906227
     64          6           0       14.986610    4.317851    1.973751
     65          6           0       14.622004    4.826957    3.408086
     66          6           0       16.091486    5.072983    1.257825
     67          1           0       -1.021255    1.638525   -0.824569
     68          1           0       -6.031683    5.599796   -0.239914
     69          1           0       -9.503440    0.687267    1.421258
     70          1           0       -2.188798   -2.829674    0.526392
     71          1           0       -0.721500   -0.988145   -1.098526
     72          1           0        0.569163   -0.949170    0.676864
     73          1           0       -0.702479   -1.678409    1.632414
     74          1           0       -0.479209    0.213436    1.366876
     75          1           0       -1.938028   -2.585433   -2.557905
     76          1           0       -3.171081   -3.589917   -1.810246
     77          1           0       -0.797918   -4.717240   -2.422578
     78          1           0       -1.972978   -5.076545   -1.224372
     79          1           0       -0.500087    4.744415   -0.167460
     80          1           0       -0.563987    5.159422   -1.840523
     81          1           0       -0.188721    3.465712   -1.367490
     82          1           0       -1.539865    6.973580   -0.393429
     83          1           0       -2.334324    8.322506   -1.097252
     84          1           0       -1.816902    7.048393   -2.178854
     85          1           0       -8.636612    4.989444   -0.483632
     86          1           0       -9.375936    3.107891    1.756767
     87          1           0       -9.081976    5.360737    2.242880
     88          1           0       -8.051657    6.474703    1.305115
     89          1           0       -7.339606    5.279184    2.309496
     90          1           0      -10.164955    2.428175   -1.029092
     91          1           0      -10.643157    4.123197   -0.678131
     92          1           0      -12.297702    3.447797    0.674357
     93          1           0      -11.375517    1.976402    1.196814
     94          1           0      -12.339487    1.983957   -0.331104
     95          1           0       -9.992779   -2.745760    1.861028
     96          1           0      -10.433407   -2.801830    0.234505
     97          1           0      -10.611879   -1.237512    1.072987
     98          1           0       -5.044788   -4.436556   -0.399390
     99          1           0       -4.792139   -6.511099    3.531334
    100          1           0       -3.262893   -5.606565    3.554618
    101          1           0       -3.335646   -7.054194    2.580735
    102          1           0        2.548048   -4.859203    0.297447
    103          1           0        2.087399   -3.107550    0.336465
    104          1           0        3.134725   -3.269020   -2.111155
    105          1           0        4.656127   -4.984390    0.936506
    106          1           0        6.068305   -4.064957    0.756519
    107          1           0        5.774983   -5.646985   -0.128683
    108          1           0        5.219537   -3.320735   -3.078141
    109          1           0        6.385152   -4.568753   -2.466408
    110          1           0        6.654855   -2.350357   -0.773874
    111          1           0        6.362622   -1.671686   -2.387574
    112          1           0        8.187404   -2.702718   -3.416598
    113          1           0        8.582943   -3.549618   -1.829293
    114          1           0        8.595459   -1.090186   -0.946886
    115          1           0        9.796564   -0.210087   -3.510018
    116          1           0        8.628866    0.500701   -2.437474
    117          1           0        8.016504   -0.575191   -3.614507
    118          1           0       11.228695   -1.334685   -2.139572
    119          1           0       10.594070   -2.855453   -1.488911
    120          1           0       10.681502   -2.147599    0.622116
    121          1           0       10.193692   -0.596112    0.216424
    122          1           0       12.879896   -1.563205   -0.679381
    123          1           0       12.847507   -1.908006    0.949314
    124          1           0       11.850005    0.746216    0.848123
    125          1           0       14.024782    1.584387   -0.872132
    126          1           0       12.270352    1.767683   -1.099648
    127          1           0       13.026270    0.323238   -1.696573
    128          1           0       14.812149    0.255553    0.949295
    129          1           0       13.878759   -0.109320    2.244034
    130          1           0       13.408177    2.044419    2.984295
    131          1           0       13.153687    2.460774    1.303125
    132          1           0       15.817761    2.471155    1.048370
    133          1           0       15.766179    2.441471    2.785241
    134          1           0       14.081611    4.554722    1.415577
    135          1           0       13.715330    5.430915    3.406723
    136          1           0       15.338964    5.522932    3.843378
    137          1           0       14.498609    4.013270    4.123144
    138          1           0       15.679571    5.903131    0.684248
    139          1           0       16.638774    4.423994    0.573698
    140          1           0       16.736097    5.589618    1.967833
 ---------------------------------------------------------------------

 SCF Done:  E(RZINDO/S) =  -474.252082974     A.U. after   20 cycles

 Excitation energies and oscillator strengths:

 Excited State   1:      Singlet-A      1.1985 eV 1034.49 nm  f=0.5943  <S**2>=0.000
     175 ->178         0.19634
     176 ->177         0.65952
 This state for optimization and/or second-order correction.
 Total Energy, E(CIS/TDA) =  -474.208038763
 Copying the excited state density for this state as the 1-particle RhoCI density.

 Excited State   2:      Singlet-A      1.8611 eV  666.20 nm  f=0.0108  <S**2>=0.000
     175 ->177         0.50824
     176 ->178        -0.46317

 Excited State   3:      Singlet-A      2.7271 eV  454.64 nm  f=0.0956  <S**2>=0.000
     175 ->177         0.15496
     176 ->178         0.25615
     176 ->179         0.45243
     176 ->180         0.42132

 Excited State   4:      Singlet-A      2.8031 eV  442.31 nm  f=0.2051  <S**2>=0.000
     175 ->177        -0.20419
     176 ->178        -0.27260
     176 ->179        -0.22858
     176 ->180         0.54401

 Excited State   5:      Singlet-A      2.8914 eV  428.80 nm  f=0.0896  <S**2>=0.000
     168 ->177        -0.20485
     168 ->178        -0.11635
     168 ->179        -0.17724
     168 ->182         0.15801
     169 ->177         0.27556
     169 ->178         0.16778
     169 ->179         0.30162
     169 ->182        -0.18149
     169 ->186         0.15662
     175 ->177         0.10728
     176 ->178         0.12519

 The electronic state is 1-A.
 Alpha  occ. eigenvalues --   -1.84659  -1.82814  -1.79153  -1.75338  -1.70271
 Alpha  occ. eigenvalues --   -1.69939  -1.66388  -1.62090  -1.59459  -1.56209
 Alpha  occ. eigenvalues --   -1.55123  -1.51830  -1.48579  -1.47868  -1.46576
 Alpha  occ. eigenvalues --   -1.42248  -1.41686  -1.40804  -1.39803  -1.37702
 Alpha  occ. eigenvalues --   -1.34253  -1.32790  -1.31920  -1.30956  -1.28531
 Alpha  occ. eigenvalues --   -1.26310  -1.24972  -1.21607  -1.20179  -1.17816
 Alpha  occ. eigenvalues --   -1.16673  -1.16569  -1.14891  -1.14637  -1.14140
 Alpha  occ. eigenvalues --   -1.12685  -1.12482  -1.11145  -1.05573  -1.03511
 Alpha  occ. eigenvalues --   -1.03092  -1.01504  -0.99585  -0.97492  -0.96633
 Alpha  occ. eigenvalues --   -0.96504  -0.94541  -0.94332  -0.92709  -0.92030
 Alpha  occ. eigenvalues --   -0.90321  -0.89410  -0.88295  -0.87836  -0.86789
 Alpha  occ. eigenvalues --   -0.85775  -0.85295  -0.83116  -0.81856  -0.80020
 Alpha  occ. eigenvalues --   -0.79755  -0.78582  -0.78023  -0.76766  -0.76231
 Alpha  occ. eigenvalues --   -0.75375  -0.75354  -0.74575  -0.73566  -0.72682
 Alpha  occ. eigenvalues --   -0.72328  -0.71906  -0.71651  -0.71432  -0.71225
 Alpha  occ. eigenvalues --   -0.70281  -0.69886  -0.69139  -0.68297  -0.67624
 Alpha  occ. eigenvalues --   -0.67169  -0.67050  -0.66092  -0.66011  -0.65459
 Alpha  occ. eigenvalues --   -0.65217  -0.64777  -0.64123  -0.63324  -0.63124
 Alpha  occ. eigenvalues --   -0.62956  -0.62728  -0.62178  -0.61735  -0.61239
 Alpha  occ. eigenvalues --   -0.60963  -0.60935  -0.60389  -0.60235  -0.60094
 Alpha  occ. eigenvalues --   -0.59314  -0.59254  -0.58650  -0.58569  -0.58246
 Alpha  occ. eigenvalues --   -0.57791  -0.57291  -0.57156  -0.57044  -0.56521
 Alpha  occ. eigenvalues --   -0.55985  -0.55891  -0.55405  -0.55311  -0.54999
 Alpha  occ. eigenvalues --   -0.54404  -0.53802  -0.53445  -0.53211  -0.52554
 Alpha  occ. eigenvalues --   -0.52125  -0.51905  -0.51582  -0.51447  -0.51402
 Alpha  occ. eigenvalues --   -0.50604  -0.50418  -0.50180  -0.49992  -0.49729
 Alpha  occ. eigenvalues --   -0.49612  -0.49476  -0.49360  -0.49049  -0.49023
 Alpha  occ. eigenvalues --   -0.48767  -0.48278  -0.48155  -0.48025  -0.47858
 Alpha  occ. eigenvalues --   -0.47658  -0.47430  -0.46643  -0.46553  -0.45981
 Alpha  occ. eigenvalues --   -0.45958  -0.45901  -0.45539  -0.45291  -0.45011
 Alpha  occ. eigenvalues --   -0.44975  -0.44689  -0.44549  -0.44122  -0.43768
 Alpha  occ. eigenvalues --   -0.43556  -0.43491  -0.43155  -0.42652  -0.42423
 Alpha  occ. eigenvalues --   -0.41826  -0.41083  -0.40901  -0.39054  -0.38145
 Alpha  occ. eigenvalues --   -0.37909  -0.37014  -0.34860  -0.34517  -0.34287
 Alpha  occ. eigenvalues --   -0.33102  -0.32420  -0.32184  -0.31572  -0.26201
 Alpha  occ. eigenvalues --   -0.21040
 Alpha virt. eigenvalues --   -0.08016  -0.02216  -0.00619   0.00715   0.01160
 Alpha virt. eigenvalues --    0.01364   0.02962   0.03112   0.04683   0.05150
 Alpha virt. eigenvalues --    0.06268   0.06894   0.07767   0.08100   0.08170

 Mulliken charges:
               1
     1  Mg   0.427180
     2  C   -0.029929
     3  C   -0.088424
     4  C   -0.073815
     5  C   -0.097265
     6  N   -0.261570
     7  C    0.096174
     8  C    0.008121
     9  C   -0.008705
    10  C    0.124265
    11  C   -0.053927
    12  C   -0.009373
    13  C   -0.000923
    14  C    0.470816
    15  O   -0.521255
    16  O   -0.259504
    17  N   -0.300183
    18  C    0.109654
    19  C    0.003812
    20  C   -0.059330
    21  C    0.171721
    22  C   -0.043868
    23  C    0.327706
    24  O   -0.532960
    25  C   -0.029905
    26  N   -0.272444
    27  C    0.131858
    28  C   -0.003543
    29  C   -0.004945
    30  C    0.151743
    31  C   -0.052209
    32  C   -0.025538
    33  C   -0.059634
    34  N   -0.329055
    35  C    0.096073
    36  C    0.030011
    37  C   -0.038595
    38  C    0.107736
    39  C   -0.030066
    40  C    0.314407
    41  O   -0.541687
    42  C    0.074549
    43  C    0.485247
    44  O   -0.519403
    45  O   -0.275469
    46  C    0.077838
    47  C    0.116058
    48  C   -0.088894
    49  C   -0.020648
    50  C   -0.052134
    51  C   -0.019578
    52  C   -0.043964
    53  C   -0.032345
    54  C   -0.011189
    55  C   -0.057622
    56  C   -0.034294
    57  C   -0.045172
    58  C   -0.034242
    59  C   -0.004772
    60  C   -0.062032
    61  C   -0.026677
    62  C   -0.041533
    63  C   -0.030310
    64  C   -0.004088
    65  C   -0.057988
    66  C   -0.056022
    67  H    0.022468
    68  H    0.047626
    69  H    0.026694
    70  H    0.050011
    71  H    0.018556
    72  H    0.014171
    73  H    0.049143
    74  H    0.033847
    75  H    0.030418
    76  H    0.018447
    77  H    0.031151
    78  H    0.039061
    79  H    0.028413
    80  H    0.029810
    81  H    0.033626
    82  H    0.024515
    83  H    0.034818
    84  H    0.040123
    85  H    0.037360
    86  H    0.040349
    87  H    0.020432
    88  H    0.021819
    89  H    0.024453
    90  H    0.022550
    91  H    0.022335
    92  H    0.019095
    93  H    0.024472
    94  H    0.025698
    95  H    0.039826
    96  H    0.031345
    97  H    0.028725
    98  H    0.059983
    99  H    0.048468
   100  H    0.050652
   101  H    0.026352
   102  H    0.060876
   103  H    0.051601
   104  H    0.017207
   105  H    0.013731
   106  H    0.032975
   107  H    0.025437
   108  H    0.021569
   109  H    0.030901
   110  H    0.025628
   111  H    0.011642
   112  H    0.027955
   113  H    0.012234
   114  H    0.018069
   115  H    0.023057
   116  H    0.003719
   117  H    0.024699
   118  H    0.017572
   119  H    0.014362
   120  H    0.000187
   121  H    0.029039
   122  H    0.013821
   123  H    0.025458
   124  H    0.019347
   125  H    0.023691
   126  H    0.014916
   127  H    0.020731
   128  H    0.017687
   129  H    0.000323
   130  H    0.028042
   131  H    0.015287
   132  H    0.025812
   133  H    0.016210
   134  H    0.016063
   135  H    0.015663
   136  H    0.016486
   137  H    0.020474
   138  H    0.011178
   139  H    0.022943
   140  H    0.018654
 Sum of Mulliken charges =  -0.00000

 Dipole moment (field-independent basis, Debye):
    X=              5.3118    Y=              1.5656    Z=             -4.2827  Tot=              7.0005
 N-N= 4.209800341228D+03 E-N= 0.000000000000D+00  KE=-9.094403324548D+03
 Leave Link  601 at Sat Apr 30 07:07:22 2022, MaxMem=  6710886400 cpu:               1.2 elap:               0.1
 (Enter /sw/apps/gaussian-16.0/g16/l9999.exe)
 1\1\GINC-BP1-COMPUTE103\SP\RZINDO CIS\STO-3G\C55H74Mg1N4O6\OF15641\30-
 Apr-2022\0\\#p ZINDO=(nstates=5)\\step_601_chromophore_6 ZINDO\\0,1\Mg
 ,0,16.876,-3.019,28.208\C,0,16.062,-0.801,30.883\C,0,18.972,-4.777,30.
 351\C,0,18.536,-4.58,25.622\C,0,15.761,-0.587,26.037\N,0,17.506,-2.797
 ,30.38\C,0,16.889,-1.921,31.301\C,0,17.273,-2.277,32.745\C,0,18.486,-3
 .289,32.524\C,0,18.262,-3.682,31.019\C,0,19.967,-2.802,32.98\C,0,16.10
 1,-2.814,33.637\C,0,16.181,-2.439,35.163\C,0,17.501,-2.217,35.824\O,0,

 Normal termination of Gaussian 16 at Sat Apr 30 07:07:22 2022.
