 Gaussian 16, Revision A.03,
 Gaussian 16:  ES64L-G16RevA.03 25-Dec-2016

 ------------------------------
 #p blyp/Def2SVP td=(nstates=5)
 ------------------------------

 --------------------------------------------------
 step_101_chromophore_20 TDDFT with blyp functional
 --------------------------------------------------
 Symbolic Z-matrix:
 Charge =  0 Multiplicity = 1

                         Standard orientation:
 ---------------------------------------------------------------------
 Center     Atomic      Atomic             Coordinates (Angstroms)
 Number     Number       Type             X           Y           Z
 ---------------------------------------------------------------------
      1         12           0       -4.555865    1.077295    0.459262
      2          6           0       -3.960398   -2.318451    0.525130
      3          6           0       -2.096345    1.429622    3.026814
      4          6           0       -4.609421    4.463126    0.094416
      5          6           0       -6.563829    0.771951   -2.294468
      6          7           0       -3.104655   -0.271063    1.670561
      7          6           0       -3.182382   -1.636155    1.596502
      8          6           0       -2.215335   -2.238314    2.606633
      9          6           0       -2.252933   -1.130945    3.691054
     10          6           0       -2.487540    0.071434    2.768540
     11          6           0       -3.327241   -1.254870    4.794292
     12          6           0       -0.897946   -2.636126    1.926585
     13          6           0        0.408969   -2.580782    2.871237
     14          6           0        1.358215   -3.799370    2.936970
     15          8           0        1.080898   -4.915463    3.476927
     16          8           0        2.545143   -3.598998    2.244338
     17          7           0       -3.489601    2.708442    1.403136
     18          6           0       -2.559083    2.608317    2.392729
     19          6           0       -2.178680    3.958045    2.802574
     20          6           0       -3.010826    4.814694    2.065329
     21          6           0       -3.704477    4.010477    1.116915
     22          6           0       -1.071767    4.170580    3.818364
     23          6           0       -3.086117    6.321375    2.342173
     24          8           0       -2.369704    6.858211    3.185300
     25          6           0       -4.129268    7.212120    1.721548
     26          7           0       -5.168422    2.399431   -1.158578
     27          6           0       -5.254996    3.725274   -0.950425
     28          6           0       -5.826464    4.426735   -2.234656
     29          6           0       -6.475774    3.264030   -2.914769
     30          6           0       -6.081926    2.072168   -2.106831
     31          6           0       -6.792625    5.673467   -2.076848
     32          6           0       -6.089733    3.255382   -4.448730
     33          6           0       -6.964720    2.684666   -5.570761
     34          7           0       -5.207399   -0.426684   -0.608411
     35          6           0       -6.144242   -0.449022   -1.683180
     36          6           0       -6.628705   -1.775108   -1.819181
     37          6           0       -5.776066   -2.520540   -1.018250
     38          6           0       -4.875052   -1.706998   -0.320841
     39          6           0       -7.822259   -2.258093   -2.625757
     40          6           0       -5.500926   -3.907188   -0.608559
     41          8           0       -6.026074   -4.983473   -0.959995
     42          6           0       -4.195724   -3.822369    0.228612
     43          6           0       -3.118520   -4.541511   -0.516359
     44          8           0       -2.170424   -3.978278   -1.008913
     45          8           0       -3.408713   -5.901823   -0.521637
     46          6           0       -2.420910   -6.665473   -1.282339
     47          6           0        3.316167   -4.757036    1.865864
     48          6           0        4.037836   -4.444573    0.511005
     49          6           0        3.528074   -4.745252   -0.665028
     50          6           0        2.266045   -5.616244   -0.958133
     51          6           0        4.130665   -4.096227   -1.944502
     52          6           0        3.864261   -2.652165   -2.235853
     53          6           0        5.098806   -1.801924   -2.697712
     54          6           0        5.355037   -0.490826   -1.919077
     55          6           0        5.045536    0.801838   -2.732813
     56          6           0        6.849725   -0.496025   -1.556741
     57          6           0        7.134740    0.194228   -0.194630
     58          6           0        7.843967    1.530198   -0.203060
     59          6           0        9.270233    1.436282    0.391727
     60          6           0        9.217126    1.829232    1.898514
     61          6           0       10.340956    2.254926   -0.397247
     62          6           0       11.682412    2.245917    0.291939
     63          6           0       12.846512    1.574338   -0.576709
     64          6           0       13.745851    2.593301   -1.199457
     65          6           0       13.276918    3.275808   -2.559407
     66          6           0       15.206093    2.008289   -1.234543
     67          1           0       -1.586548    1.526212    3.987890
     68          1           0       -4.736009    5.537613   -0.054445
     69          1           0       -7.308750    0.653438   -3.084793
     70          1           0       -2.594174   -3.053060    3.223872
     71          1           0       -1.366852   -1.061693    4.322693
     72          1           0       -3.888720   -2.181273    4.672720
     73          1           0       -4.026467   -0.426016    4.902319
     74          1           0       -2.788018   -1.322792    5.739500
     75          1           0       -0.674713   -2.046374    1.037621
     76          1           0       -0.943305   -3.651636    1.533407
     77          1           0        0.092141   -2.521058    3.911577
     78          1           0        1.084504   -1.727161    2.819117
     79          1           0       -1.533943    4.979295    4.384464
     80          1           0       -0.117333    4.433680    3.363365
     81          1           0       -0.861115    3.372309    4.529850
     82          1           0       -5.086630    6.694092    1.770604
     83          1           0       -3.802901    7.533397    0.732789
     84          1           0       -4.132987    8.121675    2.320463
     85          1           0       -4.908805    4.768993   -2.712187
     86          1           0       -7.549950    3.392962   -2.780211
     87          1           0       -6.806742    6.009216   -1.039694
     88          1           0       -7.814492    5.449210   -2.381010
     89          1           0       -6.319654    6.472448   -2.647603
     90          1           0       -5.330061    2.481326   -4.552238
     91          1           0       -5.805075    4.277688   -4.697539
     92          1           0       -6.528215    1.785231   -6.004077
     93          1           0       -7.057732    3.424050   -6.366106
     94          1           0       -7.973050    2.494968   -5.202644
     95          1           0       -7.344001   -2.842089   -3.411465
     96          1           0       -8.506715   -1.506886   -3.020458
     97          1           0       -8.504128   -2.829057   -1.995243
     98          1           0       -4.273450   -4.337740    1.185468
     99          1           0       -2.201140   -6.156216   -2.220806
    100          1           0       -2.798276   -7.677707   -1.426587
    101          1           0       -1.480528   -6.834595   -0.758191
    102          1           0        2.799167   -5.712130    1.776299
    103          1           0        4.184708   -4.763504    2.523518
    104          1           0        5.010391   -3.963146    0.611826
    105          1           0        2.603492   -6.453495   -1.568031
    106          1           0        1.544464   -4.998460   -1.493484
    107          1           0        1.851853   -6.105460   -0.077036
    108          1           0        3.783765   -4.670389   -2.803365
    109          1           0        5.179583   -4.266874   -1.702496
    110          1           0        3.422833   -2.295182   -1.305249
    111          1           0        3.060125   -2.644855   -2.972102
    112          1           0        4.950186   -1.675844   -3.770243
    113          1           0        5.975253   -2.450219   -2.673339
    114          1           0        4.664008   -0.463596   -1.076230
    115          1           0        5.885100    1.062932   -3.376499
    116          1           0        4.924002    1.669097   -2.083851
    117          1           0        4.202620    0.630100   -3.401861
    118          1           0        7.446968    0.114317   -2.233405
    119          1           0        7.345849   -1.464126   -1.482379
    120          1           0        7.677866   -0.519588    0.424653
    121          1           0        6.194435    0.391986    0.320230
    122          1           0        7.268432    2.247067    0.381880
    123          1           0        7.959641    1.995798   -1.182562
    124          1           0        9.715965    0.446713    0.285142
    125          1           0        9.472875    2.842901    2.205996
    126          1           0        9.882987    1.131004    2.407165
    127          1           0        8.237200    1.728548    2.363626
    128          1           0        9.873676    3.227039   -0.558649
    129          1           0       10.422891    1.874837   -1.415486
    130          1           0       11.623890    1.602382    1.169426
    131          1           0       11.859422    3.245565    0.688307
    132          1           0       12.418168    0.976466   -1.381323
    133          1           0       13.323629    0.882721    0.118804
    134          1           0       13.786471    3.513955   -0.617185
    135          1           0       13.916163    3.176668   -3.437711
    136          1           0       13.199523    4.360410   -2.492902
    137          1           0       12.314245    2.882773   -2.886199
    138          1           0       15.332513    1.615666   -2.243513
    139          1           0       15.307536    1.186680   -0.525466
    140          1           0       15.972348    2.751539   -1.016559
 ---------------------------------------------------------------------

 SCF Done:  E(RB-LYP) =  -3007.32857048     A.U. after   21 cycles

 Excitation energies and oscillator strengths:

 Excited State   1:      Singlet-A      1.8222 eV  680.41 nm  f=0.2529  <S**2>=0.000
     244 -> 247        0.17889
     245 -> 248        0.20488
     246 -> 247        0.66011
     246 <- 247       -0.13081
 This state for optimization and/or second-order correction.
 Total Energy, E(TD-HF/TD-DFT) =  -3007.26160556
 Copying the excited state density for this state as the 1-particle RhoCI density.

 Excited State   2:      Singlet-A      1.8506 eV  669.96 nm  f=0.0166  <S**2>=0.000
     243 -> 247       -0.17950
     244 -> 247        0.63753
     245 -> 247        0.18335
     246 -> 247       -0.15222

 Excited State   3:      Singlet-A      1.8899 eV  656.03 nm  f=0.0187  <S**2>=0.000
     243 -> 247        0.57268
     244 -> 247        0.23633
     245 -> 247       -0.31537

 Excited State   4:      Singlet-A      2.0491 eV  605.07 nm  f=0.0465  <S**2>=0.000
     243 -> 247        0.36168
     245 -> 247        0.52890
     246 -> 248       -0.26750

 Excited State   5:      Singlet-A      2.3076 eV  537.29 nm  f=0.0009  <S**2>=0.000
     242 -> 247        0.70225

 The electronic state is 1-A.
 Alpha  occ. eigenvalues --  -46.27820 -18.82064 -18.81749 -18.77423 -18.76122
 Alpha  occ. eigenvalues --  -18.75621 -18.75446 -14.03511 -14.03093 -14.01232
 Alpha  occ. eigenvalues --  -14.00718 -10.04150 -10.04058  -9.99860  -9.99723
 Alpha  occ. eigenvalues --   -9.97631  -9.97358  -9.97262  -9.97017  -9.96518
 Alpha  occ. eigenvalues --   -9.96486  -9.96292  -9.96019  -9.95495  -9.94746
 Alpha  occ. eigenvalues --   -9.94714  -9.94541  -9.94397  -9.94266  -9.94238
 Alpha  occ. eigenvalues --   -9.94199  -9.94007  -9.93736  -9.93668  -9.93636
 Alpha  occ. eigenvalues --   -9.93263  -9.93229  -9.93158  -9.93058  -9.93025
 Alpha  occ. eigenvalues --   -9.93017  -9.92843  -9.92823  -9.92489  -9.92333
 Alpha  occ. eigenvalues --   -9.92178  -9.91942  -9.91941  -9.91771  -9.91762
 Alpha  occ. eigenvalues --   -9.91376  -9.91268  -9.91219  -9.91179  -9.91063
 Alpha  occ. eigenvalues --   -9.90942  -9.90904  -9.90872  -9.90736  -9.90632
 Alpha  occ. eigenvalues --   -9.90614  -9.90467  -9.90442  -9.90271  -9.90212
 Alpha  occ. eigenvalues --   -9.90199  -2.92457  -1.72840  -1.72393  -1.72144
 Alpha  occ. eigenvalues --   -0.97685  -0.96344  -0.91296  -0.90771  -0.89842
 Alpha  occ. eigenvalues --   -0.87995  -0.87465  -0.87312  -0.86146  -0.85591
 Alpha  occ. eigenvalues --   -0.75294  -0.73254  -0.73020  -0.72976  -0.72640
 Alpha  occ. eigenvalues --   -0.71647  -0.71577  -0.70508  -0.70366  -0.70253
 Alpha  occ. eigenvalues --   -0.69616  -0.69054  -0.67982  -0.67693  -0.67282
 Alpha  occ. eigenvalues --   -0.66303  -0.65948  -0.65132  -0.64860  -0.64200
 Alpha  occ. eigenvalues --   -0.63378  -0.62692  -0.62520  -0.61931  -0.60611
 Alpha  occ. eigenvalues --   -0.60391  -0.60118  -0.60100  -0.59279  -0.58860
 Alpha  occ. eigenvalues --   -0.58322  -0.57791  -0.57286  -0.56498  -0.54629
 Alpha  occ. eigenvalues --   -0.54065  -0.53902  -0.52475  -0.52134  -0.51833
 Alpha  occ. eigenvalues --   -0.51537  -0.50861  -0.50343  -0.50092  -0.49718
 Alpha  occ. eigenvalues --   -0.49259  -0.48948  -0.48577  -0.48234  -0.47194
 Alpha  occ. eigenvalues --   -0.46575  -0.46201  -0.45591  -0.45280  -0.44922
 Alpha  occ. eigenvalues --   -0.44289  -0.43649  -0.43322  -0.42922  -0.42365
 Alpha  occ. eigenvalues --   -0.42051  -0.41745  -0.41417  -0.41147  -0.40764
 Alpha  occ. eigenvalues --   -0.40593  -0.40426  -0.40260  -0.40096  -0.39917
 Alpha  occ. eigenvalues --   -0.39884  -0.39828  -0.39348  -0.39261  -0.39046
 Alpha  occ. eigenvalues --   -0.38955  -0.38591  -0.38308  -0.38245  -0.38194
 Alpha  occ. eigenvalues --   -0.37946  -0.37728  -0.37620  -0.37459  -0.37170
 Alpha  occ. eigenvalues --   -0.37140  -0.36764  -0.36540  -0.36444  -0.36278
 Alpha  occ. eigenvalues --   -0.36073  -0.35972  -0.35772  -0.35482  -0.35455
 Alpha  occ. eigenvalues --   -0.35197  -0.35005  -0.34874  -0.34834  -0.34508
 Alpha  occ. eigenvalues --   -0.34363  -0.34282  -0.34075  -0.33900  -0.33551
 Alpha  occ. eigenvalues --   -0.33371  -0.33246  -0.33135  -0.33085  -0.32933
 Alpha  occ. eigenvalues --   -0.32873  -0.32804  -0.32540  -0.32474  -0.32308
 Alpha  occ. eigenvalues --   -0.32178  -0.32110  -0.31956  -0.31729  -0.31676
 Alpha  occ. eigenvalues --   -0.31348  -0.31337  -0.31185  -0.30933  -0.30676
 Alpha  occ. eigenvalues --   -0.30426  -0.30201  -0.30134  -0.30097  -0.29953
 Alpha  occ. eigenvalues --   -0.29511  -0.29375  -0.29235  -0.29049  -0.28799
 Alpha  occ. eigenvalues --   -0.28614  -0.28529  -0.28052  -0.27955  -0.27722
 Alpha  occ. eigenvalues --   -0.27696  -0.26791  -0.26630  -0.26580  -0.26341
 Alpha  occ. eigenvalues --   -0.26290  -0.25592  -0.25536  -0.25449  -0.25261
 Alpha  occ. eigenvalues --   -0.25060  -0.24243  -0.24027  -0.23684  -0.23458
 Alpha  occ. eigenvalues --   -0.22668  -0.22451  -0.22026  -0.21339  -0.20834
 Alpha  occ. eigenvalues --   -0.20411  -0.20141  -0.18570  -0.18404  -0.17457
 Alpha  occ. eigenvalues --   -0.16151
 Alpha virt. eigenvalues --   -0.11670  -0.07488  -0.06478  -0.05024  -0.03941
 Alpha virt. eigenvalues --   -0.03706  -0.02228  -0.01996  -0.01731  -0.00329
 Alpha virt. eigenvalues --    0.00792   0.01945   0.02149   0.02636   0.03183

 Mulliken charges:
               1
     1  Mg   0.698229
     2  C    0.042722
     3  C   -0.057475
     4  C   -0.068750
     5  C   -0.082298
     6  N   -0.142429
     7  C   -0.074390
     8  C    0.037125
     9  C   -0.025637
    10  C   -0.039105
    11  C    0.136384
    12  C    0.187968
    13  C    0.117493
    14  C    0.069088
    15  O   -0.241681
    16  O   -0.262612
    17  N   -0.235117
    18  C    0.134164
    19  C   -0.132163
    20  C    0.025971
    21  C    0.122905
    22  C    0.171624
    23  C   -0.099354
    24  O   -0.170229
    25  C    0.154080
    26  N   -0.207419
    27  C   -0.006020
    28  C   -0.050483
    29  C    0.119482
    30  C    0.016803
    31  C    0.130672
    32  C    0.056578
    33  C    0.073692
    34  N   -0.366306
    35  C    0.125377
    36  C   -0.164527
    37  C    0.094566
    38  C    0.096661
    39  C    0.169015
    40  C   -0.033942
    41  O   -0.150939
    42  C    0.021028
    43  C    0.120723
    44  O   -0.168597
    45  O   -0.261312
    46  C    0.224393
    47  C    0.327970
    48  C   -0.137028
    49  C   -0.130842
    50  C    0.133913
    51  C    0.096455
    52  C    0.089701
    53  C    0.120394
    54  C   -0.043372
    55  C    0.101191
    56  C    0.112035
    57  C    0.066712
    58  C    0.130371
    59  C   -0.118367
    60  C    0.109482
    61  C    0.081777
    62  C    0.088394
    63  C    0.112505
    64  C   -0.062424
    65  C    0.075226
    66  C    0.098600
    67  H   -0.059578
    68  H   -0.077340
    69  H   -0.070254
    70  H   -0.041375
    71  H   -0.038305
    72  H   -0.006994
    73  H   -0.001958
    74  H   -0.007891
    75  H    0.001314
    76  H    0.002831
    77  H   -0.009989
    78  H   -0.010608
    79  H    0.013864
    80  H    0.015069
    81  H   -0.023232
    82  H    0.012047
    83  H    0.015723
    84  H   -0.012555
    85  H   -0.003250
    86  H   -0.039389
    87  H   -0.006595
    88  H   -0.000706
    89  H   -0.006224
    90  H   -0.008211
    91  H   -0.009532
    92  H   -0.000349
    93  H   -0.013762
    94  H   -0.014577
    95  H    0.020842
    96  H   -0.018301
    97  H    0.010785
    98  H    0.002022
    99  H    0.014951
   100  H    0.011439
   101  H    0.005228
   102  H    0.010182
   103  H   -0.025794
   104  H   -0.036378
   105  H   -0.000990
   106  H    0.020693
   107  H   -0.015007
   108  H   -0.043040
   109  H   -0.018193
   110  H   -0.026986
   111  H   -0.032523
   112  H   -0.043004
   113  H   -0.037825
   114  H   -0.018133
   115  H   -0.025335
   116  H   -0.012087
   117  H   -0.013971
   118  H   -0.035272
   119  H   -0.033003
   120  H   -0.033161
   121  H   -0.042425
   122  H   -0.042557
   123  H   -0.043925
   124  H   -0.038391
   125  H   -0.018507
   126  H   -0.014669
   127  H   -0.024403
   128  H   -0.046692
   129  H   -0.036810
   130  H   -0.040551
   131  H   -0.028342
   132  H   -0.029453
   133  H   -0.035096
   134  H   -0.032948
   135  H   -0.024993
   136  H   -0.016597
   137  H   -0.018125
   138  H   -0.016677
   139  H   -0.019230
   140  H   -0.013572
 Sum of Mulliken charges =  -0.00000

 Dipole moment (field-independent basis, Debye):
    X=             -1.9168    Y=              2.4047    Z=             -2.3540  Tot=              3.8727
 Quadrupole moment (field-independent basis, Debye-Ang):
   XX=           -383.1895   YY=           -431.3598   ZZ=           -398.7401
   XY=            -34.8403   XZ=              5.1111   YZ=            -11.7748

 Normal termination of Gaussian 16 at Wed Apr 27 01:07:35 2022.
