 Gaussian 16, Revision A.03,
 Gaussian 16:  ES64L-G16RevA.03 25-Dec-2016

 -----------------------------------
 #p cam-b3lyp/Def2SVP td=(nstates=5)
 -----------------------------------

 -------------------------------------------------------
 step_101_chromophore_20 TDDFT with cam-b3lyp functional
 -------------------------------------------------------
 Symbolic Z-matrix:
 Charge =  0 Multiplicity = 1

                         Standard orientation:
 ---------------------------------------------------------------------
 Center     Atomic      Atomic             Coordinates (Angstroms)
 Number     Number       Type             X           Y           Z
 ---------------------------------------------------------------------
      1         12           0       -4.555865    1.077295    0.459262
      2          6           0       -3.960398   -2.318451    0.525130
      3          6           0       -2.096345    1.429622    3.026814
      4          6           0       -4.609421    4.463126    0.094416
      5          6           0       -6.563829    0.771951   -2.294468
      6          7           0       -3.104655   -0.271063    1.670561
      7          6           0       -3.182382   -1.636155    1.596502
      8          6           0       -2.215335   -2.238314    2.606633
      9          6           0       -2.252933   -1.130945    3.691054
     10          6           0       -2.487540    0.071434    2.768540
     11          6           0       -3.327241   -1.254870    4.794292
     12          6           0       -0.897946   -2.636126    1.926585
     13          6           0        0.408969   -2.580782    2.871237
     14          6           0        1.358215   -3.799370    2.936970
     15          8           0        1.080898   -4.915463    3.476927
     16          8           0        2.545143   -3.598998    2.244338
     17          7           0       -3.489601    2.708442    1.403136
     18          6           0       -2.559083    2.608317    2.392729
     19          6           0       -2.178680    3.958045    2.802574
     20          6           0       -3.010826    4.814694    2.065329
     21          6           0       -3.704477    4.010477    1.116915
     22          6           0       -1.071767    4.170580    3.818364
     23          6           0       -3.086117    6.321375    2.342173
     24          8           0       -2.369704    6.858211    3.185300
     25          6           0       -4.129268    7.212120    1.721548
     26          7           0       -5.168422    2.399431   -1.158578
     27          6           0       -5.254996    3.725274   -0.950425
     28          6           0       -5.826464    4.426735   -2.234656
     29          6           0       -6.475774    3.264030   -2.914769
     30          6           0       -6.081926    2.072168   -2.106831
     31          6           0       -6.792625    5.673467   -2.076848
     32          6           0       -6.089733    3.255382   -4.448730
     33          6           0       -6.964720    2.684666   -5.570761
     34          7           0       -5.207399   -0.426684   -0.608411
     35          6           0       -6.144242   -0.449022   -1.683180
     36          6           0       -6.628705   -1.775108   -1.819181
     37          6           0       -5.776066   -2.520540   -1.018250
     38          6           0       -4.875052   -1.706998   -0.320841
     39          6           0       -7.822259   -2.258093   -2.625757
     40          6           0       -5.500926   -3.907188   -0.608559
     41          8           0       -6.026074   -4.983473   -0.959995
     42          6           0       -4.195724   -3.822369    0.228612
     43          6           0       -3.118520   -4.541511   -0.516359
     44          8           0       -2.170424   -3.978278   -1.008913
     45          8           0       -3.408713   -5.901823   -0.521637
     46          6           0       -2.420910   -6.665473   -1.282339
     47          6           0        3.316167   -4.757036    1.865864
     48          6           0        4.037836   -4.444573    0.511005
     49          6           0        3.528074   -4.745252   -0.665028
     50          6           0        2.266045   -5.616244   -0.958133
     51          6           0        4.130665   -4.096227   -1.944502
     52          6           0        3.864261   -2.652165   -2.235853
     53          6           0        5.098806   -1.801924   -2.697712
     54          6           0        5.355037   -0.490826   -1.919077
     55          6           0        5.045536    0.801838   -2.732813
     56          6           0        6.849725   -0.496025   -1.556741
     57          6           0        7.134740    0.194228   -0.194630
     58          6           0        7.843967    1.530198   -0.203060
     59          6           0        9.270233    1.436282    0.391727
     60          6           0        9.217126    1.829232    1.898514
     61          6           0       10.340956    2.254926   -0.397247
     62          6           0       11.682412    2.245917    0.291939
     63          6           0       12.846512    1.574338   -0.576709
     64          6           0       13.745851    2.593301   -1.199457
     65          6           0       13.276918    3.275808   -2.559407
     66          6           0       15.206093    2.008289   -1.234543
     67          1           0       -1.586548    1.526212    3.987890
     68          1           0       -4.736009    5.537613   -0.054445
     69          1           0       -7.308750    0.653438   -3.084793
     70          1           0       -2.594174   -3.053060    3.223872
     71          1           0       -1.366852   -1.061693    4.322693
     72          1           0       -3.888720   -2.181273    4.672720
     73          1           0       -4.026467   -0.426016    4.902319
     74          1           0       -2.788018   -1.322792    5.739500
     75          1           0       -0.674713   -2.046374    1.037621
     76          1           0       -0.943305   -3.651636    1.533407
     77          1           0        0.092141   -2.521058    3.911577
     78          1           0        1.084504   -1.727161    2.819117
     79          1           0       -1.533943    4.979295    4.384464
     80          1           0       -0.117333    4.433680    3.363365
     81          1           0       -0.861115    3.372309    4.529850
     82          1           0       -5.086630    6.694092    1.770604
     83          1           0       -3.802901    7.533397    0.732789
     84          1           0       -4.132987    8.121675    2.320463
     85          1           0       -4.908805    4.768993   -2.712187
     86          1           0       -7.549950    3.392962   -2.780211
     87          1           0       -6.806742    6.009216   -1.039694
     88          1           0       -7.814492    5.449210   -2.381010
     89          1           0       -6.319654    6.472448   -2.647603
     90          1           0       -5.330061    2.481326   -4.552238
     91          1           0       -5.805075    4.277688   -4.697539
     92          1           0       -6.528215    1.785231   -6.004077
     93          1           0       -7.057732    3.424050   -6.366106
     94          1           0       -7.973050    2.494968   -5.202644
     95          1           0       -7.344001   -2.842089   -3.411465
     96          1           0       -8.506715   -1.506886   -3.020458
     97          1           0       -8.504128   -2.829057   -1.995243
     98          1           0       -4.273450   -4.337740    1.185468
     99          1           0       -2.201140   -6.156216   -2.220806
    100          1           0       -2.798276   -7.677707   -1.426587
    101          1           0       -1.480528   -6.834595   -0.758191
    102          1           0        2.799167   -5.712130    1.776299
    103          1           0        4.184708   -4.763504    2.523518
    104          1           0        5.010391   -3.963146    0.611826
    105          1           0        2.603492   -6.453495   -1.568031
    106          1           0        1.544464   -4.998460   -1.493484
    107          1           0        1.851853   -6.105460   -0.077036
    108          1           0        3.783765   -4.670389   -2.803365
    109          1           0        5.179583   -4.266874   -1.702496
    110          1           0        3.422833   -2.295182   -1.305249
    111          1           0        3.060125   -2.644855   -2.972102
    112          1           0        4.950186   -1.675844   -3.770243
    113          1           0        5.975253   -2.450219   -2.673339
    114          1           0        4.664008   -0.463596   -1.076230
    115          1           0        5.885100    1.062932   -3.376499
    116          1           0        4.924002    1.669097   -2.083851
    117          1           0        4.202620    0.630100   -3.401861
    118          1           0        7.446968    0.114317   -2.233405
    119          1           0        7.345849   -1.464126   -1.482379
    120          1           0        7.677866   -0.519588    0.424653
    121          1           0        6.194435    0.391986    0.320230
    122          1           0        7.268432    2.247067    0.381880
    123          1           0        7.959641    1.995798   -1.182562
    124          1           0        9.715965    0.446713    0.285142
    125          1           0        9.472875    2.842901    2.205996
    126          1           0        9.882987    1.131004    2.407165
    127          1           0        8.237200    1.728548    2.363626
    128          1           0        9.873676    3.227039   -0.558649
    129          1           0       10.422891    1.874837   -1.415486
    130          1           0       11.623890    1.602382    1.169426
    131          1           0       11.859422    3.245565    0.688307
    132          1           0       12.418168    0.976466   -1.381323
    133          1           0       13.323629    0.882721    0.118804
    134          1           0       13.786471    3.513955   -0.617185
    135          1           0       13.916163    3.176668   -3.437711
    136          1           0       13.199523    4.360410   -2.492902
    137          1           0       12.314245    2.882773   -2.886199
    138          1           0       15.332513    1.615666   -2.243513
    139          1           0       15.307536    1.186680   -0.525466
    140          1           0       15.972348    2.751539   -1.016559
 ---------------------------------------------------------------------

 SCF Done:  E(RCAM-B3LYP) =  -3007.11578997     A.U. after   17 cycles

 Excitation energies and oscillator strengths:

 Excited State   1:      Singlet-A      1.7457 eV  710.24 nm  f=0.3303  <S**2>=0.000
     245 -> 248        0.19757
     246 -> 247        0.68020
     245 <- 248        0.10927
 This state for optimization and/or second-order correction.
 Total Energy, E(TD-HF/TD-DFT) =  -3007.05163754
 Copying the excited state density for this state as the 1-particle RhoCI density.

 Excited State   2:      Singlet-A      2.2519 eV  550.58 nm  f=0.0802  <S**2>=0.000
     245 -> 247        0.62367
     246 -> 248       -0.31935

 Excited State   3:      Singlet-A      3.3730 eV  367.57 nm  f=0.0115  <S**2>=0.000
     241 -> 247       -0.15189
     241 -> 249        0.12116
     243 -> 247        0.53734
     244 -> 247       -0.34583
     246 -> 248        0.11564

 Excited State   4:      Singlet-A      3.4136 eV  363.20 nm  f=0.2233  <S**2>=0.000
     241 -> 247        0.40937
     241 -> 249        0.15295
     241 -> 251        0.11623
     243 -> 249        0.12945
     244 -> 247       -0.12405
     245 -> 247       -0.18062
     246 -> 248       -0.40385

 Excited State   5:      Singlet-A      3.4505 eV  359.32 nm  f=0.0990  <S**2>=0.000
     241 -> 247        0.18909
     241 -> 249        0.13970
     243 -> 247        0.24147
     244 -> 247        0.47093
     245 -> 247        0.11092
     246 -> 248        0.27448

 The electronic state is 1-A.
 Alpha  occ. eigenvalues --  -46.89420 -19.24955 -19.24600 -19.20531 -19.19163
 Alpha  occ. eigenvalues --  -19.18861 -19.18616 -14.42550 -14.41742 -14.39807
 Alpha  occ. eigenvalues --  -14.38969 -10.39667 -10.39514 -10.35240 -10.34950
 Alpha  occ. eigenvalues --  -10.32015 -10.31797 -10.31410 -10.31181 -10.31177
 Alpha  occ. eigenvalues --  -10.31149 -10.30665 -10.30162 -10.29977 -10.29275
 Alpha  occ. eigenvalues --  -10.28730 -10.28683 -10.28541 -10.28522 -10.28517
 Alpha  occ. eigenvalues --  -10.28282 -10.28150 -10.28109 -10.27741 -10.27620
 Alpha  occ. eigenvalues --  -10.27509 -10.27181 -10.27100 -10.27042 -10.26923
 Alpha  occ. eigenvalues --  -10.26861 -10.26769 -10.26661 -10.26294 -10.26110
 Alpha  occ. eigenvalues --  -10.25980 -10.25843 -10.25714 -10.25598 -10.25488
 Alpha  occ. eigenvalues --  -10.25115 -10.25065 -10.25041 -10.24907 -10.24741
 Alpha  occ. eigenvalues --  -10.24539 -10.24498 -10.24494 -10.24318 -10.24294
 Alpha  occ. eigenvalues --  -10.24242 -10.24071 -10.24051 -10.23916 -10.23866
 Alpha  occ. eigenvalues --  -10.23822  -3.17957  -1.92815  -1.92444  -1.92242
 Alpha  occ. eigenvalues --   -1.16230  -1.14714  -1.09893  -1.08705  -1.07970
 Alpha  occ. eigenvalues --   -1.05891  -1.05343  -1.05001  -1.03986  -1.02945
 Alpha  occ. eigenvalues --   -0.92328  -0.90076  -0.89789  -0.89642  -0.89438
 Alpha  occ. eigenvalues --   -0.88347  -0.88319  -0.87033  -0.86920  -0.86663
 Alpha  occ. eigenvalues --   -0.86416  -0.85472  -0.84233  -0.83735  -0.83521
 Alpha  occ. eigenvalues --   -0.82332  -0.82131  -0.81216  -0.80626  -0.79978
 Alpha  occ. eigenvalues --   -0.79130  -0.78261  -0.78056  -0.77688  -0.75947
 Alpha  occ. eigenvalues --   -0.75710  -0.75470  -0.75414  -0.74557  -0.74096
 Alpha  occ. eigenvalues --   -0.73418  -0.72770  -0.72238  -0.71361  -0.69127
 Alpha  occ. eigenvalues --   -0.68715  -0.68508  -0.67143  -0.66476  -0.65870
 Alpha  occ. eigenvalues --   -0.65647  -0.64889  -0.64368  -0.64164  -0.63720
 Alpha  occ. eigenvalues --   -0.63233  -0.62708  -0.62484  -0.61891  -0.60870
 Alpha  occ. eigenvalues --   -0.60286  -0.59767  -0.58974  -0.58600  -0.58424
 Alpha  occ. eigenvalues --   -0.57807  -0.56818  -0.56561  -0.56035  -0.55738
 Alpha  occ. eigenvalues --   -0.55029  -0.54632  -0.54313  -0.54282  -0.54066
 Alpha  occ. eigenvalues --   -0.53358  -0.53170  -0.52909  -0.52801  -0.52677
 Alpha  occ. eigenvalues --   -0.52510  -0.52358  -0.52141  -0.51847  -0.51650
 Alpha  occ. eigenvalues --   -0.51402  -0.51228  -0.50759  -0.50668  -0.50602
 Alpha  occ. eigenvalues --   -0.50397  -0.50150  -0.50054  -0.49842  -0.49522
 Alpha  occ. eigenvalues --   -0.49438  -0.49276  -0.48887  -0.48592  -0.48391
 Alpha  occ. eigenvalues --   -0.48351  -0.48216  -0.48181  -0.47465  -0.47409
 Alpha  occ. eigenvalues --   -0.47367  -0.47150  -0.47012  -0.46751  -0.46661
 Alpha  occ. eigenvalues --   -0.46155  -0.46113  -0.45843  -0.45693  -0.45413
 Alpha  occ. eigenvalues --   -0.45235  -0.45082  -0.44908  -0.44740  -0.44672
 Alpha  occ. eigenvalues --   -0.44598  -0.44419  -0.44159  -0.44045  -0.43980
 Alpha  occ. eigenvalues --   -0.43769  -0.43730  -0.43620  -0.43242  -0.43112
 Alpha  occ. eigenvalues --   -0.43074  -0.42719  -0.42626  -0.42453  -0.42289
 Alpha  occ. eigenvalues --   -0.42000  -0.41878  -0.41672  -0.41376  -0.41288
 Alpha  occ. eigenvalues --   -0.40708  -0.40648  -0.40581  -0.40158  -0.39979
 Alpha  occ. eigenvalues --   -0.39923  -0.39516  -0.39141  -0.39003  -0.38575
 Alpha  occ. eigenvalues --   -0.38537  -0.37672  -0.37608  -0.37381  -0.37260
 Alpha  occ. eigenvalues --   -0.37135  -0.36804  -0.36498  -0.36194  -0.36108
 Alpha  occ. eigenvalues --   -0.35713  -0.34786  -0.34591  -0.34484  -0.34458
 Alpha  occ. eigenvalues --   -0.33607  -0.33293  -0.33003  -0.31451  -0.31155
 Alpha  occ. eigenvalues --   -0.30346  -0.30242  -0.30060  -0.29626  -0.24230
 Alpha  occ. eigenvalues --   -0.21503
 Alpha virt. eigenvalues --   -0.08629  -0.02510  -0.00006   0.01192   0.02104
 Alpha virt. eigenvalues --    0.03795   0.04979   0.05714   0.05866   0.06919
 Alpha virt. eigenvalues --    0.07911   0.08335   0.08393   0.08869   0.09273

 Mulliken charges:
               1
     1  Mg   0.829651
     2  C    0.033853
     3  C   -0.062117
     4  C   -0.098245
     5  C   -0.092947
     6  N   -0.202360
     7  C   -0.046974
     8  C   -0.013959
     9  C   -0.081046
    10  C   -0.023563
    11  C    0.078911
    12  C    0.136059
    13  C    0.044931
    14  C    0.156941
    15  O   -0.283181
    16  O   -0.327708
    17  N   -0.325011
    18  C    0.143232
    19  C   -0.135842
    20  C   -0.051069
    21  C    0.159991
    22  C    0.119384
    23  C   -0.014462
    24  O   -0.210422
    25  C    0.065587
    26  N   -0.279700
    27  C    0.030285
    28  C   -0.106440
    29  C    0.053409
    30  C    0.036112
    31  C    0.074332
    32  C    0.007327
    33  C    0.012048
    34  N   -0.455740
    35  C    0.128389
    36  C   -0.169648
    37  C    0.018851
    38  C    0.121203
    39  C    0.121722
    40  C    0.060440
    41  O   -0.189039
    42  C   -0.054913
    43  C    0.210029
    44  O   -0.205259
    45  O   -0.323703
    46  C    0.183791
    47  C    0.291138
    48  C   -0.155415
    49  C   -0.151589
    50  C    0.076788
    51  C    0.040932
    52  C    0.033921
    53  C    0.064065
    54  C   -0.103587
    55  C    0.047809
    56  C    0.056223
    57  C    0.014389
    58  C    0.071472
    59  C   -0.166949
    60  C    0.045141
    61  C    0.039092
    62  C    0.022155
    63  C    0.057392
    64  C   -0.124637
    65  C    0.019054
    66  C    0.041922
    67  H   -0.024329
    68  H   -0.043980
    69  H   -0.037089
    70  H   -0.004278
    71  H   -0.002251
    72  H    0.018489
    73  H    0.024553
    74  H    0.016871
    75  H    0.034539
    76  H    0.031311
    77  H    0.019720
    78  H    0.023829
    79  H    0.042815
    80  H    0.043492
    81  H    0.004993
    82  H    0.039188
    83  H    0.044004
    84  H    0.025011
    85  H    0.032218
    86  H   -0.003828
    87  H    0.016186
    88  H    0.024473
    89  H    0.018290
    90  H    0.020764
    91  H    0.016027
    92  H    0.023157
    93  H    0.010652
    94  H    0.007217
    95  H    0.044466
    96  H    0.006269
    97  H    0.034977
    98  H    0.043641
    99  H    0.039091
   100  H    0.036174
   101  H    0.025072
   102  H    0.039166
   103  H    0.003734
   104  H   -0.004203
   105  H    0.022865
   106  H    0.042213
   107  H    0.006890
   108  H   -0.012664
   109  H    0.009326
   110  H    0.002525
   111  H   -0.003647
   112  H   -0.012541
   113  H   -0.008403
   114  H    0.012241
   115  H   -0.002500
   116  H    0.011161
   117  H    0.010324
   118  H   -0.007924
   119  H   -0.003218
   120  H   -0.004487
   121  H   -0.013394
   122  H   -0.011863
   123  H   -0.015504
   124  H   -0.008277
   125  H    0.006798
   126  H    0.008639
   127  H    0.000844
   128  H   -0.017874
   129  H   -0.010882
   130  H   -0.010050
   131  H    0.001089
   132  H   -0.001587
   133  H   -0.004296
   134  H   -0.000933
   135  H    0.000053
   136  H    0.007488
   137  H    0.003615
   138  H    0.005854
   139  H    0.004572
   140  H    0.010673
 Sum of Mulliken charges =  -0.00000

 Dipole moment (field-independent basis, Debye):
    X=             -1.6877    Y=              3.1605    Z=             -1.8438  Tot=              4.0295
 Quadrupole moment (field-independent basis, Debye-Ang):
   XX=           -384.6194   YY=           -427.7412   ZZ=           -396.7160
   XY=            -38.7586   XZ=              3.6079   YZ=            -11.1075

 Normal termination of Gaussian 16 at Wed Apr 27 00:07:27 2022.
