 Gaussian 16, Revision A.03,
 Gaussian 16:  ES64L-G16RevA.03 25-Dec-2016

 ---------------------------------
 #p PBE1PBE/Def2SVP td=(nstates=5)
 ---------------------------------

 -----------------------------------------------------
 step_101_chromophore_20 TDDFT with PBE1PBE functional
 -----------------------------------------------------
 Symbolic Z-matrix:
 Charge =  0 Multiplicity = 1

                         Standard orientation:
 ---------------------------------------------------------------------
 Center     Atomic      Atomic             Coordinates (Angstroms)
 Number     Number       Type             X           Y           Z
 ---------------------------------------------------------------------
      1         12           0       -4.555865    1.077295    0.459262
      2          6           0       -3.960398   -2.318451    0.525130
      3          6           0       -2.096345    1.429622    3.026814
      4          6           0       -4.609421    4.463126    0.094416
      5          6           0       -6.563829    0.771951   -2.294468
      6          7           0       -3.104655   -0.271063    1.670561
      7          6           0       -3.182382   -1.636155    1.596502
      8          6           0       -2.215335   -2.238314    2.606633
      9          6           0       -2.252933   -1.130945    3.691054
     10          6           0       -2.487540    0.071434    2.768540
     11          6           0       -3.327241   -1.254870    4.794292
     12          6           0       -0.897946   -2.636126    1.926585
     13          6           0        0.408969   -2.580782    2.871237
     14          6           0        1.358215   -3.799370    2.936970
     15          8           0        1.080898   -4.915463    3.476927
     16          8           0        2.545143   -3.598998    2.244338
     17          7           0       -3.489601    2.708442    1.403136
     18          6           0       -2.559083    2.608317    2.392729
     19          6           0       -2.178680    3.958045    2.802574
     20          6           0       -3.010826    4.814694    2.065329
     21          6           0       -3.704477    4.010477    1.116915
     22          6           0       -1.071767    4.170580    3.818364
     23          6           0       -3.086117    6.321375    2.342173
     24          8           0       -2.369704    6.858211    3.185300
     25          6           0       -4.129268    7.212120    1.721548
     26          7           0       -5.168422    2.399431   -1.158578
     27          6           0       -5.254996    3.725274   -0.950425
     28          6           0       -5.826464    4.426735   -2.234656
     29          6           0       -6.475774    3.264030   -2.914769
     30          6           0       -6.081926    2.072168   -2.106831
     31          6           0       -6.792625    5.673467   -2.076848
     32          6           0       -6.089733    3.255382   -4.448730
     33          6           0       -6.964720    2.684666   -5.570761
     34          7           0       -5.207399   -0.426684   -0.608411
     35          6           0       -6.144242   -0.449022   -1.683180
     36          6           0       -6.628705   -1.775108   -1.819181
     37          6           0       -5.776066   -2.520540   -1.018250
     38          6           0       -4.875052   -1.706998   -0.320841
     39          6           0       -7.822259   -2.258093   -2.625757
     40          6           0       -5.500926   -3.907188   -0.608559
     41          8           0       -6.026074   -4.983473   -0.959995
     42          6           0       -4.195724   -3.822369    0.228612
     43          6           0       -3.118520   -4.541511   -0.516359
     44          8           0       -2.170424   -3.978278   -1.008913
     45          8           0       -3.408713   -5.901823   -0.521637
     46          6           0       -2.420910   -6.665473   -1.282339
     47          6           0        3.316167   -4.757036    1.865864
     48          6           0        4.037836   -4.444573    0.511005
     49          6           0        3.528074   -4.745252   -0.665028
     50          6           0        2.266045   -5.616244   -0.958133
     51          6           0        4.130665   -4.096227   -1.944502
     52          6           0        3.864261   -2.652165   -2.235853
     53          6           0        5.098806   -1.801924   -2.697712
     54          6           0        5.355037   -0.490826   -1.919077
     55          6           0        5.045536    0.801838   -2.732813
     56          6           0        6.849725   -0.496025   -1.556741
     57          6           0        7.134740    0.194228   -0.194630
     58          6           0        7.843967    1.530198   -0.203060
     59          6           0        9.270233    1.436282    0.391727
     60          6           0        9.217126    1.829232    1.898514
     61          6           0       10.340956    2.254926   -0.397247
     62          6           0       11.682412    2.245917    0.291939
     63          6           0       12.846512    1.574338   -0.576709
     64          6           0       13.745851    2.593301   -1.199457
     65          6           0       13.276918    3.275808   -2.559407
     66          6           0       15.206093    2.008289   -1.234543
     67          1           0       -1.586548    1.526212    3.987890
     68          1           0       -4.736009    5.537613   -0.054445
     69          1           0       -7.308750    0.653438   -3.084793
     70          1           0       -2.594174   -3.053060    3.223872
     71          1           0       -1.366852   -1.061693    4.322693
     72          1           0       -3.888720   -2.181273    4.672720
     73          1           0       -4.026467   -0.426016    4.902319
     74          1           0       -2.788018   -1.322792    5.739500
     75          1           0       -0.674713   -2.046374    1.037621
     76          1           0       -0.943305   -3.651636    1.533407
     77          1           0        0.092141   -2.521058    3.911577
     78          1           0        1.084504   -1.727161    2.819117
     79          1           0       -1.533943    4.979295    4.384464
     80          1           0       -0.117333    4.433680    3.363365
     81          1           0       -0.861115    3.372309    4.529850
     82          1           0       -5.086630    6.694092    1.770604
     83          1           0       -3.802901    7.533397    0.732789
     84          1           0       -4.132987    8.121675    2.320463
     85          1           0       -4.908805    4.768993   -2.712187
     86          1           0       -7.549950    3.392962   -2.780211
     87          1           0       -6.806742    6.009216   -1.039694
     88          1           0       -7.814492    5.449210   -2.381010
     89          1           0       -6.319654    6.472448   -2.647603
     90          1           0       -5.330061    2.481326   -4.552238
     91          1           0       -5.805075    4.277688   -4.697539
     92          1           0       -6.528215    1.785231   -6.004077
     93          1           0       -7.057732    3.424050   -6.366106
     94          1           0       -7.973050    2.494968   -5.202644
     95          1           0       -7.344001   -2.842089   -3.411465
     96          1           0       -8.506715   -1.506886   -3.020458
     97          1           0       -8.504128   -2.829057   -1.995243
     98          1           0       -4.273450   -4.337740    1.185468
     99          1           0       -2.201140   -6.156216   -2.220806
    100          1           0       -2.798276   -7.677707   -1.426587
    101          1           0       -1.480528   -6.834595   -0.758191
    102          1           0        2.799167   -5.712130    1.776299
    103          1           0        4.184708   -4.763504    2.523518
    104          1           0        5.010391   -3.963146    0.611826
    105          1           0        2.603492   -6.453495   -1.568031
    106          1           0        1.544464   -4.998460   -1.493484
    107          1           0        1.851853   -6.105460   -0.077036
    108          1           0        3.783765   -4.670389   -2.803365
    109          1           0        5.179583   -4.266874   -1.702496
    110          1           0        3.422833   -2.295182   -1.305249
    111          1           0        3.060125   -2.644855   -2.972102
    112          1           0        4.950186   -1.675844   -3.770243
    113          1           0        5.975253   -2.450219   -2.673339
    114          1           0        4.664008   -0.463596   -1.076230
    115          1           0        5.885100    1.062932   -3.376499
    116          1           0        4.924002    1.669097   -2.083851
    117          1           0        4.202620    0.630100   -3.401861
    118          1           0        7.446968    0.114317   -2.233405
    119          1           0        7.345849   -1.464126   -1.482379
    120          1           0        7.677866   -0.519588    0.424653
    121          1           0        6.194435    0.391986    0.320230
    122          1           0        7.268432    2.247067    0.381880
    123          1           0        7.959641    1.995798   -1.182562
    124          1           0        9.715965    0.446713    0.285142
    125          1           0        9.472875    2.842901    2.205996
    126          1           0        9.882987    1.131004    2.407165
    127          1           0        8.237200    1.728548    2.363626
    128          1           0        9.873676    3.227039   -0.558649
    129          1           0       10.422891    1.874837   -1.415486
    130          1           0       11.623890    1.602382    1.169426
    131          1           0       11.859422    3.245565    0.688307
    132          1           0       12.418168    0.976466   -1.381323
    133          1           0       13.323629    0.882721    0.118804
    134          1           0       13.786471    3.513955   -0.617185
    135          1           0       13.916163    3.176668   -3.437711
    136          1           0       13.199523    4.360410   -2.492902
    137          1           0       12.314245    2.882773   -2.886199
    138          1           0       15.332513    1.615666   -2.243513
    139          1           0       15.307536    1.186680   -0.525466
    140          1           0       15.972348    2.751539   -1.016559
 ---------------------------------------------------------------------

 SCF Done:  E(RPBE1PBE) =  -3005.30538759     A.U. after   15 cycles

 Excitation energies and oscillator strengths:

 Excited State   1:      Singlet-A      1.8825 eV  658.63 nm  f=0.3241  <S**2>=0.000
     245 -> 248        0.19264
     246 -> 247        0.68631
 This state for optimization and/or second-order correction.
 Total Energy, E(TD-HF/TD-DFT) =  -3005.23620829
 Copying the excited state density for this state as the 1-particle RhoCI density.

 Excited State   2:      Singlet-A      2.2485 eV  551.42 nm  f=0.0806  <S**2>=0.000
     245 -> 247        0.63750
     246 -> 248       -0.29201

 Excited State   3:      Singlet-A      2.9338 eV  422.61 nm  f=0.0024  <S**2>=0.000
     241 -> 247        0.13902
     242 -> 247       -0.16300
     243 -> 247        0.42373
     243 -> 249       -0.12523
     244 -> 247        0.46859

 Excited State   4:      Singlet-A      2.9728 eV  417.06 nm  f=0.0004  <S**2>=0.000
     241 -> 247       -0.11101
     242 -> 247        0.17733
     243 -> 247       -0.41006
     244 -> 247        0.50040
     244 -> 249        0.10771

 Excited State   5:      Singlet-A      3.0885 eV  401.43 nm  f=0.0013  <S**2>=0.000
     241 -> 247       -0.38338
     242 -> 247        0.45288
     243 -> 247        0.32573
     246 -> 248        0.14826

 The electronic state is 1-A.
 Alpha  occ. eigenvalues --  -46.92818 -19.25638 -19.25303 -19.20750 -19.19467
 Alpha  occ. eigenvalues --  -19.18997 -19.18949 -14.41924 -14.41374 -14.39349
 Alpha  occ. eigenvalues --  -14.38757 -10.36731 -10.36512 -10.32264 -10.32224
 Alpha  occ. eigenvalues --  -10.29964 -10.29370 -10.28823 -10.28730 -10.28524
 Alpha  occ. eigenvalues --  -10.28507 -10.28420 -10.27941 -10.27595 -10.27024
 Alpha  occ. eigenvalues --  -10.26542 -10.26393 -10.26271 -10.26197 -10.26085
 Alpha  occ. eigenvalues --  -10.26047 -10.25769 -10.25629 -10.25590 -10.25383
 Alpha  occ. eigenvalues --  -10.25199 -10.24951 -10.24629 -10.24618 -10.24598
 Alpha  occ. eigenvalues --  -10.24525 -10.24364 -10.24293 -10.23894 -10.23385
 Alpha  occ. eigenvalues --  -10.23332 -10.23297 -10.23197 -10.23152 -10.23108
 Alpha  occ. eigenvalues --  -10.22972 -10.22803 -10.22624 -10.22463 -10.22295
 Alpha  occ. eigenvalues --  -10.22084 -10.22046 -10.21928 -10.21863 -10.21815
 Alpha  occ. eigenvalues --  -10.21669 -10.21457 -10.21450 -10.21447 -10.21393
 Alpha  occ. eigenvalues --  -10.21347  -3.14936  -1.87733  -1.87341  -1.87143
 Alpha  occ. eigenvalues --   -1.10987  -1.09534  -1.04489  -1.03547  -1.02819
 Alpha  occ. eigenvalues --   -1.00470  -1.00177  -0.99669  -0.98517  -0.97782
 Alpha  occ. eigenvalues --   -0.86752  -0.84211  -0.84016  -0.83972  -0.83537
 Alpha  occ. eigenvalues --   -0.82604  -0.82424  -0.81367  -0.81060  -0.81027
 Alpha  occ. eigenvalues --   -0.80639  -0.79667  -0.78430  -0.78061  -0.77723
 Alpha  occ. eigenvalues --   -0.76554  -0.76273  -0.75399  -0.74988  -0.74245
 Alpha  occ. eigenvalues --   -0.73285  -0.72544  -0.72382  -0.71889  -0.70284
 Alpha  occ. eigenvalues --   -0.70067  -0.69591  -0.69539  -0.68668  -0.68251
 Alpha  occ. eigenvalues --   -0.67712  -0.67230  -0.66645  -0.65705  -0.63547
 Alpha  occ. eigenvalues --   -0.63066  -0.62838  -0.61479  -0.60764  -0.60322
 Alpha  occ. eigenvalues --   -0.60130  -0.59430  -0.58903  -0.58414  -0.57868
 Alpha  occ. eigenvalues --   -0.57390  -0.57195  -0.56633  -0.56499  -0.55406
 Alpha  occ. eigenvalues --   -0.54787  -0.54365  -0.53371  -0.53239  -0.53007
 Alpha  occ. eigenvalues --   -0.52307  -0.51377  -0.50978  -0.50567  -0.50276
 Alpha  occ. eigenvalues --   -0.49428  -0.49191  -0.48947  -0.48746  -0.48681
 Alpha  occ. eigenvalues --   -0.47853  -0.47710  -0.47339  -0.47237  -0.47198
 Alpha  occ. eigenvalues --   -0.47045  -0.46808  -0.46722  -0.46319  -0.46134
 Alpha  occ. eigenvalues --   -0.45984  -0.45728  -0.45314  -0.45250  -0.45145
 Alpha  occ. eigenvalues --   -0.45003  -0.44720  -0.44656  -0.44373  -0.44096
 Alpha  occ. eigenvalues --   -0.44081  -0.43821  -0.43596  -0.43161  -0.43037
 Alpha  occ. eigenvalues --   -0.42942  -0.42874  -0.42799  -0.42068  -0.42014
 Alpha  occ. eigenvalues --   -0.41984  -0.41819  -0.41662  -0.41424  -0.41331
 Alpha  occ. eigenvalues --   -0.40916  -0.40707  -0.40678  -0.40335  -0.40157
 Alpha  occ. eigenvalues --   -0.39948  -0.39893  -0.39475  -0.39456  -0.39370
 Alpha  occ. eigenvalues --   -0.39319  -0.39091  -0.38898  -0.38816  -0.38686
 Alpha  occ. eigenvalues --   -0.38583  -0.38478  -0.38386  -0.38065  -0.37886
 Alpha  occ. eigenvalues --   -0.37801  -0.37637  -0.37453  -0.37298  -0.37063
 Alpha  occ. eigenvalues --   -0.36884  -0.36585  -0.36465  -0.36202  -0.36104
 Alpha  occ. eigenvalues --   -0.35568  -0.35496  -0.35284  -0.34942  -0.34874
 Alpha  occ. eigenvalues --   -0.34779  -0.34278  -0.34035  -0.33777  -0.33472
 Alpha  occ. eigenvalues --   -0.33338  -0.32666  -0.32392  -0.32315  -0.32241
 Alpha  occ. eigenvalues --   -0.31971  -0.31734  -0.31552  -0.31070  -0.30915
 Alpha  occ. eigenvalues --   -0.30503  -0.29898  -0.29599  -0.29449  -0.29384
 Alpha  occ. eigenvalues --   -0.29121  -0.28064  -0.27954  -0.27006  -0.26187
 Alpha  occ. eigenvalues --   -0.25500  -0.25454  -0.25263  -0.25171  -0.21168
 Alpha  occ. eigenvalues --   -0.19111
 Alpha virt. eigenvalues --   -0.11193  -0.05951  -0.04160  -0.02445  -0.01520
 Alpha virt. eigenvalues --   -0.00843   0.00695   0.01076   0.01357   0.02712
 Alpha virt. eigenvalues --    0.03955   0.04698   0.04964   0.05487   0.06087

 Mulliken charges:
               1
     1  Mg   0.973585
     2  C    0.035505
     3  C   -0.050957
     4  C   -0.092061
     5  C   -0.085652
     6  N   -0.297257
     7  C    0.017965
     8  C   -0.089267
     9  C   -0.160886
    10  C    0.018469
    11  C    0.028004
    12  C    0.089605
    13  C   -0.031180
    14  C    0.222038
    15  O   -0.313525
    16  O   -0.357252
    17  N   -0.441291
    18  C    0.165317
    19  C   -0.167083
    20  C   -0.101334
    21  C    0.184945
    22  C    0.063739
    23  C    0.042821
    24  O   -0.245887
    25  C   -0.016471
    26  N   -0.373680
    27  C    0.067888
    28  C   -0.181385
    29  C   -0.029222
    30  C    0.070115
    31  C    0.017105
    32  C   -0.049734
    33  C   -0.059331
    34  N   -0.580650
    35  C    0.147507
    36  C   -0.188419
    37  C   -0.032494
    38  C    0.166219
    39  C    0.072086
    40  C    0.147480
    41  O   -0.230933
    42  C   -0.161687
    43  C    0.299066
    44  O   -0.238944
    45  O   -0.354235
    46  C    0.127682
    47  C    0.246367
    48  C   -0.166539
    49  C   -0.187226
    50  C    0.010160
    51  C   -0.020083
    52  C   -0.028859
    53  C    0.013316
    54  C   -0.194837
    55  C   -0.008877
    56  C   -0.000845
    57  C   -0.041878
    58  C    0.012796
    59  C   -0.254136
    60  C   -0.013030
    61  C   -0.009127
    62  C   -0.044404
    63  C   -0.001483
    64  C   -0.213058
    65  C   -0.037833
    66  C   -0.020864
    67  H    0.006863
    68  H   -0.006839
    69  H   -0.001105
    70  H    0.032872
    71  H    0.033867
    72  H    0.044727
    73  H    0.052012
    74  H    0.043774
    75  H    0.065627
    76  H    0.065980
    77  H    0.052645
    78  H    0.055104
    79  H    0.069231
    80  H    0.069736
    81  H    0.030520
    82  H    0.065509
    83  H    0.070011
    84  H    0.053156
    85  H    0.068904
    86  H    0.034597
    87  H    0.043203
    88  H    0.050356
    89  H    0.045372
    90  H    0.053594
    91  H    0.048370
    92  H    0.049732
    93  H    0.039270
    94  H    0.034369
    95  H    0.072739
    96  H    0.032903
    97  H    0.062814
    98  H    0.080191
    99  H    0.060719
   100  H    0.058313
   101  H    0.047706
   102  H    0.064397
   103  H    0.032807
   104  H    0.024277
   105  H    0.051225
   106  H    0.069067
   107  H    0.034058
   108  H    0.019972
   109  H    0.041466
   110  H    0.035941
   111  H    0.029112
   112  H    0.019866
   113  H    0.022791
   114  H    0.048228
   115  H    0.024235
   116  H    0.039278
   117  H    0.038218
   118  H    0.025546
   119  H    0.028243
   120  H    0.027575
   121  H    0.019415
   122  H    0.021161
   123  H    0.016321
   124  H    0.030592
   125  H    0.034160
   126  H    0.035610
   127  H    0.029212
   128  H    0.015532
   129  H    0.021625
   130  H    0.023816
   131  H    0.032341
   132  H    0.030797
   133  H    0.027267
   134  H    0.037876
   135  H    0.026467
   136  H    0.033942
   137  H    0.031209
   138  H    0.033879
   139  H    0.031748
   140  H    0.037999
 Sum of Mulliken charges =  -0.00000

 Dipole moment (field-independent basis, Debye):
    X=             -1.9432    Y=              2.9395    Z=             -2.1956  Tot=              4.1518
 Quadrupole moment (field-independent basis, Debye-Ang):
   XX=           -378.8315   YY=           -425.5104   ZZ=           -393.0071
   XY=            -38.0949   XZ=              5.8572   YZ=            -12.0782

 Normal termination of Gaussian 16 at Wed Apr 27 00:25:44 2022.
