 Gaussian 16, Revision A.03,
 Gaussian 16:  ES64L-G16RevA.03 25-Dec-2016

 --------------------------------
 #p wB97XD/Def2SVP td=(nstates=5)
 --------------------------------

 ----------------------------------------------------
 step_101_chromophore_20 TDDFT with wB97XD functional
 ----------------------------------------------------
 Symbolic Z-matrix:
 Charge =  0 Multiplicity = 1

                         Standard orientation:
 ---------------------------------------------------------------------
 Center     Atomic      Atomic             Coordinates (Angstroms)
 Number     Number       Type             X           Y           Z
 ---------------------------------------------------------------------
      1         12           0       -4.555865    1.077295    0.459262
      2          6           0       -3.960398   -2.318451    0.525130
      3          6           0       -2.096345    1.429622    3.026814
      4          6           0       -4.609421    4.463126    0.094416
      5          6           0       -6.563829    0.771951   -2.294468
      6          7           0       -3.104655   -0.271063    1.670561
      7          6           0       -3.182382   -1.636155    1.596502
      8          6           0       -2.215335   -2.238314    2.606633
      9          6           0       -2.252933   -1.130945    3.691054
     10          6           0       -2.487540    0.071434    2.768540
     11          6           0       -3.327241   -1.254870    4.794292
     12          6           0       -0.897946   -2.636126    1.926585
     13          6           0        0.408969   -2.580782    2.871237
     14          6           0        1.358215   -3.799370    2.936970
     15          8           0        1.080898   -4.915463    3.476927
     16          8           0        2.545143   -3.598998    2.244338
     17          7           0       -3.489601    2.708442    1.403136
     18          6           0       -2.559083    2.608317    2.392729
     19          6           0       -2.178680    3.958045    2.802574
     20          6           0       -3.010826    4.814694    2.065329
     21          6           0       -3.704477    4.010477    1.116915
     22          6           0       -1.071767    4.170580    3.818364
     23          6           0       -3.086117    6.321375    2.342173
     24          8           0       -2.369704    6.858211    3.185300
     25          6           0       -4.129268    7.212120    1.721548
     26          7           0       -5.168422    2.399431   -1.158578
     27          6           0       -5.254996    3.725274   -0.950425
     28          6           0       -5.826464    4.426735   -2.234656
     29          6           0       -6.475774    3.264030   -2.914769
     30          6           0       -6.081926    2.072168   -2.106831
     31          6           0       -6.792625    5.673467   -2.076848
     32          6           0       -6.089733    3.255382   -4.448730
     33          6           0       -6.964720    2.684666   -5.570761
     34          7           0       -5.207399   -0.426684   -0.608411
     35          6           0       -6.144242   -0.449022   -1.683180
     36          6           0       -6.628705   -1.775108   -1.819181
     37          6           0       -5.776066   -2.520540   -1.018250
     38          6           0       -4.875052   -1.706998   -0.320841
     39          6           0       -7.822259   -2.258093   -2.625757
     40          6           0       -5.500926   -3.907188   -0.608559
     41          8           0       -6.026074   -4.983473   -0.959995
     42          6           0       -4.195724   -3.822369    0.228612
     43          6           0       -3.118520   -4.541511   -0.516359
     44          8           0       -2.170424   -3.978278   -1.008913
     45          8           0       -3.408713   -5.901823   -0.521637
     46          6           0       -2.420910   -6.665473   -1.282339
     47          6           0        3.316167   -4.757036    1.865864
     48          6           0        4.037836   -4.444573    0.511005
     49          6           0        3.528074   -4.745252   -0.665028
     50          6           0        2.266045   -5.616244   -0.958133
     51          6           0        4.130665   -4.096227   -1.944502
     52          6           0        3.864261   -2.652165   -2.235853
     53          6           0        5.098806   -1.801924   -2.697712
     54          6           0        5.355037   -0.490826   -1.919077
     55          6           0        5.045536    0.801838   -2.732813
     56          6           0        6.849725   -0.496025   -1.556741
     57          6           0        7.134740    0.194228   -0.194630
     58          6           0        7.843967    1.530198   -0.203060
     59          6           0        9.270233    1.436282    0.391727
     60          6           0        9.217126    1.829232    1.898514
     61          6           0       10.340956    2.254926   -0.397247
     62          6           0       11.682412    2.245917    0.291939
     63          6           0       12.846512    1.574338   -0.576709
     64          6           0       13.745851    2.593301   -1.199457
     65          6           0       13.276918    3.275808   -2.559407
     66          6           0       15.206093    2.008289   -1.234543
     67          1           0       -1.586548    1.526212    3.987890
     68          1           0       -4.736009    5.537613   -0.054445
     69          1           0       -7.308750    0.653438   -3.084793
     70          1           0       -2.594174   -3.053060    3.223872
     71          1           0       -1.366852   -1.061693    4.322693
     72          1           0       -3.888720   -2.181273    4.672720
     73          1           0       -4.026467   -0.426016    4.902319
     74          1           0       -2.788018   -1.322792    5.739500
     75          1           0       -0.674713   -2.046374    1.037621
     76          1           0       -0.943305   -3.651636    1.533407
     77          1           0        0.092141   -2.521058    3.911577
     78          1           0        1.084504   -1.727161    2.819117
     79          1           0       -1.533943    4.979295    4.384464
     80          1           0       -0.117333    4.433680    3.363365
     81          1           0       -0.861115    3.372309    4.529850
     82          1           0       -5.086630    6.694092    1.770604
     83          1           0       -3.802901    7.533397    0.732789
     84          1           0       -4.132987    8.121675    2.320463
     85          1           0       -4.908805    4.768993   -2.712187
     86          1           0       -7.549950    3.392962   -2.780211
     87          1           0       -6.806742    6.009216   -1.039694
     88          1           0       -7.814492    5.449210   -2.381010
     89          1           0       -6.319654    6.472448   -2.647603
     90          1           0       -5.330061    2.481326   -4.552238
     91          1           0       -5.805075    4.277688   -4.697539
     92          1           0       -6.528215    1.785231   -6.004077
     93          1           0       -7.057732    3.424050   -6.366106
     94          1           0       -7.973050    2.494968   -5.202644
     95          1           0       -7.344001   -2.842089   -3.411465
     96          1           0       -8.506715   -1.506886   -3.020458
     97          1           0       -8.504128   -2.829057   -1.995243
     98          1           0       -4.273450   -4.337740    1.185468
     99          1           0       -2.201140   -6.156216   -2.220806
    100          1           0       -2.798276   -7.677707   -1.426587
    101          1           0       -1.480528   -6.834595   -0.758191
    102          1           0        2.799167   -5.712130    1.776299
    103          1           0        4.184708   -4.763504    2.523518
    104          1           0        5.010391   -3.963146    0.611826
    105          1           0        2.603492   -6.453495   -1.568031
    106          1           0        1.544464   -4.998460   -1.493484
    107          1           0        1.851853   -6.105460   -0.077036
    108          1           0        3.783765   -4.670389   -2.803365
    109          1           0        5.179583   -4.266874   -1.702496
    110          1           0        3.422833   -2.295182   -1.305249
    111          1           0        3.060125   -2.644855   -2.972102
    112          1           0        4.950186   -1.675844   -3.770243
    113          1           0        5.975253   -2.450219   -2.673339
    114          1           0        4.664008   -0.463596   -1.076230
    115          1           0        5.885100    1.062932   -3.376499
    116          1           0        4.924002    1.669097   -2.083851
    117          1           0        4.202620    0.630100   -3.401861
    118          1           0        7.446968    0.114317   -2.233405
    119          1           0        7.345849   -1.464126   -1.482379
    120          1           0        7.677866   -0.519588    0.424653
    121          1           0        6.194435    0.391986    0.320230
    122          1           0        7.268432    2.247067    0.381880
    123          1           0        7.959641    1.995798   -1.182562
    124          1           0        9.715965    0.446713    0.285142
    125          1           0        9.472875    2.842901    2.205996
    126          1           0        9.882987    1.131004    2.407165
    127          1           0        8.237200    1.728548    2.363626
    128          1           0        9.873676    3.227039   -0.558649
    129          1           0       10.422891    1.874837   -1.415486
    130          1           0       11.623890    1.602382    1.169426
    131          1           0       11.859422    3.245565    0.688307
    132          1           0       12.418168    0.976466   -1.381323
    133          1           0       13.323629    0.882721    0.118804
    134          1           0       13.786471    3.513955   -0.617185
    135          1           0       13.916163    3.176668   -3.437711
    136          1           0       13.199523    4.360410   -2.492902
    137          1           0       12.314245    2.882773   -2.886199
    138          1           0       15.332513    1.615666   -2.243513
    139          1           0       15.307536    1.186680   -0.525466
    140          1           0       15.972348    2.751539   -1.016559
 ---------------------------------------------------------------------

 SCF Done:  E(RwB97XD) =  -3007.81215766     A.U. after   19 cycles

 Excitation energies and oscillator strengths:

 Excited State   1:      Singlet-A      1.7004 eV  729.15 nm  f=0.3291  <S**2>=0.000
     245 -> 248        0.20215
     246 -> 247        0.67804
     245 <- 248        0.11779
 This state for optimization and/or second-order correction.
 Total Energy, E(TD-HF/TD-DFT) =  -3007.74966957
 Copying the excited state density for this state as the 1-particle RhoCI density.

 Excited State   2:      Singlet-A      2.2036 eV  562.64 nm  f=0.0787  <S**2>=0.000
     245 -> 247        0.62201
     246 -> 248       -0.31931

 Excited State   3:      Singlet-A      3.3823 eV  366.57 nm  f=0.0393  <S**2>=0.000
     240 -> 247       -0.12303
     241 -> 247       -0.36817
     241 -> 249        0.13882
     243 -> 247        0.42604
     244 -> 247       -0.25871
     246 -> 248        0.19673

 Excited State   4:      Singlet-A      3.4370 eV  360.74 nm  f=0.2935  <S**2>=0.000
     241 -> 247       -0.22244
     241 -> 249       -0.10178
     243 -> 247       -0.20584
     243 -> 249       -0.13319
     244 -> 247        0.30924
     245 -> 247        0.20524
     246 -> 248        0.45210

 Excited State   5:      Singlet-A      3.4739 eV  356.90 nm  f=0.0223  <S**2>=0.000
     241 -> 247        0.20058
     241 -> 249        0.14881
     241 -> 250       -0.10440
     243 -> 247        0.32044
     243 -> 249        0.21317
     243 -> 250       -0.13794
     244 -> 247        0.41248
     246 -> 248        0.13236

 The electronic state is 1-A.
 Alpha  occ. eigenvalues --  -46.95764 -19.30182 -19.29857 -19.25430 -19.24157
 Alpha  occ. eigenvalues --  -19.23918 -19.23647 -14.47149 -14.46296 -14.44424
 Alpha  occ. eigenvalues --  -14.43569 -10.43527 -10.43329 -10.39243 -10.38952
 Alpha  occ. eigenvalues --  -10.36045 -10.35889 -10.35307 -10.35275 -10.35244
 Alpha  occ. eigenvalues --  -10.34905 -10.34635 -10.34275 -10.33961 -10.33460
 Alpha  occ. eigenvalues --  -10.32904 -10.32786 -10.32596 -10.32567 -10.32458
 Alpha  occ. eigenvalues --  -10.32336 -10.32127 -10.32060 -10.31866 -10.31649
 Alpha  occ. eigenvalues --  -10.31526 -10.31258 -10.31238 -10.30932 -10.30908
 Alpha  occ. eigenvalues --  -10.30740 -10.30739 -10.30584 -10.30119 -10.30009
 Alpha  occ. eigenvalues --  -10.29818 -10.29802 -10.29578 -10.29507 -10.29440
 Alpha  occ. eigenvalues --  -10.29088 -10.29059 -10.28950 -10.28815 -10.28663
 Alpha  occ. eigenvalues --  -10.28431 -10.28396 -10.28355 -10.28239 -10.28167
 Alpha  occ. eigenvalues --  -10.28111 -10.27894 -10.27888 -10.27825 -10.27777
 Alpha  occ. eigenvalues --  -10.27721  -3.21756  -1.95301  -1.94908  -1.94703
 Alpha  occ. eigenvalues --   -1.18371  -1.16923  -1.12136  -1.10888  -1.10175
 Alpha  occ. eigenvalues --   -1.07915  -1.07555  -1.07005  -1.06085  -1.04959
 Alpha  occ. eigenvalues --   -0.94299  -0.91860  -0.91642  -0.91494  -0.91204
 Alpha  occ. eigenvalues --   -0.90310  -0.90089  -0.88952  -0.88695  -0.88646
 Alpha  occ. eigenvalues --   -0.88376  -0.87351  -0.86093  -0.85592  -0.85404
 Alpha  occ. eigenvalues --   -0.84204  -0.84023  -0.83124  -0.82588  -0.81876
 Alpha  occ. eigenvalues --   -0.80949  -0.80145  -0.79991  -0.79640  -0.77880
 Alpha  occ. eigenvalues --   -0.77656  -0.77255  -0.77248  -0.76362  -0.75926
 Alpha  occ. eigenvalues --   -0.75325  -0.74755  -0.74201  -0.73301  -0.71030
 Alpha  occ. eigenvalues --   -0.70627  -0.70455  -0.69184  -0.68365  -0.67784
 Alpha  occ. eigenvalues --   -0.67609  -0.66885  -0.66368  -0.66027  -0.65530
 Alpha  occ. eigenvalues --   -0.65045  -0.64680  -0.64295  -0.63878  -0.62843
 Alpha  occ. eigenvalues --   -0.62309  -0.61773  -0.60857  -0.60577  -0.60405
 Alpha  occ. eigenvalues --   -0.59756  -0.58799  -0.58464  -0.57943  -0.57745
 Alpha  occ. eigenvalues --   -0.56902  -0.56553  -0.56272  -0.56173  -0.56037
 Alpha  occ. eigenvalues --   -0.55226  -0.55072  -0.54868  -0.54678  -0.54546
 Alpha  occ. eigenvalues --   -0.54409  -0.54207  -0.54073  -0.53806  -0.53509
 Alpha  occ. eigenvalues --   -0.53294  -0.53155  -0.52698  -0.52568  -0.52519
 Alpha  occ. eigenvalues --   -0.52322  -0.52104  -0.51978  -0.51716  -0.51422
 Alpha  occ. eigenvalues --   -0.51342  -0.51239  -0.50792  -0.50459  -0.50287
 Alpha  occ. eigenvalues --   -0.50244  -0.50133  -0.50089  -0.49455  -0.49303
 Alpha  occ. eigenvalues --   -0.49249  -0.49085  -0.48931  -0.48648  -0.48573
 Alpha  occ. eigenvalues --   -0.48080  -0.47977  -0.47788  -0.47572  -0.47363
 Alpha  occ. eigenvalues --   -0.47162  -0.47014  -0.46729  -0.46662  -0.46538
 Alpha  occ. eigenvalues --   -0.46494  -0.46283  -0.46074  -0.45970  -0.45853
 Alpha  occ. eigenvalues --   -0.45644  -0.45633  -0.45540  -0.45142  -0.45085
 Alpha  occ. eigenvalues --   -0.44940  -0.44646  -0.44521  -0.44415  -0.44170
 Alpha  occ. eigenvalues --   -0.43981  -0.43891  -0.43584  -0.43234  -0.43154
 Alpha  occ. eigenvalues --   -0.42608  -0.42523  -0.42432  -0.42000  -0.41870
 Alpha  occ. eigenvalues --   -0.41836  -0.41348  -0.41048  -0.40853  -0.40458
 Alpha  occ. eigenvalues --   -0.40407  -0.39606  -0.39458  -0.39345  -0.39226
 Alpha  occ. eigenvalues --   -0.39021  -0.38805  -0.38487  -0.38046  -0.37951
 Alpha  occ. eigenvalues --   -0.37548  -0.36781  -0.36555  -0.36417  -0.36322
 Alpha  occ. eigenvalues --   -0.35857  -0.35213  -0.34822  -0.33635  -0.33227
 Alpha  occ. eigenvalues --   -0.32387  -0.32242  -0.32145  -0.31736  -0.26164
 Alpha  occ. eigenvalues --   -0.23333
 Alpha virt. eigenvalues --   -0.06961  -0.00604   0.02144   0.03989   0.04494
 Alpha virt. eigenvalues --    0.05938   0.07422   0.07940   0.08154   0.09385
 Alpha virt. eigenvalues --    0.10853   0.11149   0.11673   0.12228   0.12709

 Mulliken charges:
               1
     1  Mg   0.965619
     2  C    0.031939
     3  C   -0.066613
     4  C   -0.108793
     5  C   -0.103120
     6  N   -0.263673
     7  C   -0.015866
     8  C   -0.057986
     9  C   -0.131162
    10  C   -0.000397
    11  C    0.032394
    12  C    0.092627
    13  C   -0.012625
    14  C    0.212895
    15  O   -0.311243
    16  O   -0.357048
    17  N   -0.409292
    18  C    0.160267
    19  C   -0.154165
    20  C   -0.097424
    21  C    0.187061
    22  C    0.075559
    23  C    0.035958
    24  O   -0.240808
    25  C   -0.000937
    26  N   -0.347516
    27  C    0.060099
    28  C   -0.157161
    29  C   -0.000931
    30  C    0.059082
    31  C    0.028321
    32  C   -0.035600
    33  C   -0.044351
    34  N   -0.546304
    35  C    0.139869
    36  C   -0.185812
    37  C   -0.027258
    38  C    0.148652
    39  C    0.081915
    40  C    0.129880
    41  O   -0.222745
    42  C   -0.122627
    43  C    0.276636
    44  O   -0.233767
    45  O   -0.354840
    46  C    0.143052
    47  C    0.259800
    48  C   -0.176089
    49  C   -0.176600
    50  C    0.026869
    51  C   -0.001602
    52  C   -0.011784
    53  C    0.026232
    54  C   -0.164468
    55  C    0.001808
    56  C    0.018115
    57  C   -0.028678
    58  C    0.029831
    59  C   -0.217705
    60  C   -0.004912
    61  C    0.002792
    62  C   -0.026439
    63  C    0.016441
    64  C   -0.187376
    65  C   -0.027233
    66  C   -0.005552
    67  H    0.000602
    68  H   -0.023368
    69  H   -0.010119
    70  H    0.022565
    71  H    0.023206
    72  H    0.039476
    73  H    0.046727
    74  H    0.039254
    75  H    0.060681
    76  H    0.057212
    77  H    0.043130
    78  H    0.050414
    79  H    0.064471
    80  H    0.067648
    81  H    0.027493
    82  H    0.059376
    83  H    0.066804
    84  H    0.052102
    85  H    0.058510
    86  H    0.022048
    87  H    0.036247
    88  H    0.045908
    89  H    0.040346
    90  H    0.044453
    91  H    0.039452
    92  H    0.044783
    93  H    0.033532
    94  H    0.027677
    95  H    0.066765
    96  H    0.027419
    97  H    0.057093
    98  H    0.074191
    99  H    0.056155
   100  H    0.055248
   101  H    0.043235
   102  H    0.058699
   103  H    0.028673
   104  H    0.021615
   105  H    0.044731
   106  H    0.063920
   107  H    0.027603
   108  H    0.013030
   109  H    0.030817
   110  H    0.023764
   111  H    0.022628
   112  H    0.013053
   113  H    0.011641
   114  H    0.035773
   115  H    0.017094
   116  H    0.033570
   117  H    0.032689
   118  H    0.012554
   119  H    0.020812
   120  H    0.018857
   121  H    0.010450
   122  H    0.012922
   123  H    0.005549
   124  H    0.015510
   125  H    0.028609
   126  H    0.029189
   127  H    0.022800
   128  H    0.006392
   129  H    0.009269
   130  H    0.012289
   131  H    0.025295
   132  H    0.020978
   133  H    0.019839
   134  H    0.025285
   135  H    0.021008
   136  H    0.029010
   137  H    0.023420
   138  H    0.026321
   139  H    0.025163
   140  H    0.033239
 Sum of Mulliken charges =  -0.00000

 Dipole moment (field-independent basis, Debye):
    X=             -1.6772    Y=              3.3332    Z=             -1.7853  Tot=              4.1365
 Quadrupole moment (field-independent basis, Debye-Ang):
   XX=           -380.9271   YY=           -423.5552   ZZ=           -392.6435
   XY=            -39.2957   XZ=              3.8658   YZ=            -10.8709

 Normal termination of Gaussian 16 at Wed Apr 27 00:54:00 2022.
