 Gaussian 16, Revision A.03,
 Gaussian 16:  ES64L-G16RevA.03 25-Dec-2016

 --------------------
 #p ZINDO=(nstates=5)
 --------------------

 -----------------------------
 step_101_chromophore_20 ZINDO
 -----------------------------
 Symbolic Z-matrix:
 Charge =  0 Multiplicity = 1

                         Standard orientation:
 ---------------------------------------------------------------------
 Center     Atomic      Atomic             Coordinates (Angstroms)
 Number     Number       Type             X           Y           Z
 ---------------------------------------------------------------------
      1         12           0       -4.555865    1.077295    0.459262
      2          6           0       -3.960398   -2.318451    0.525130
      3          6           0       -2.096345    1.429622    3.026814
      4          6           0       -4.609421    4.463126    0.094416
      5          6           0       -6.563829    0.771951   -2.294468
      6          7           0       -3.104655   -0.271063    1.670561
      7          6           0       -3.182382   -1.636155    1.596502
      8          6           0       -2.215335   -2.238314    2.606633
      9          6           0       -2.252933   -1.130945    3.691054
     10          6           0       -2.487540    0.071434    2.768540
     11          6           0       -3.327241   -1.254870    4.794292
     12          6           0       -0.897946   -2.636126    1.926585
     13          6           0        0.408969   -2.580782    2.871237
     14          6           0        1.358215   -3.799370    2.936970
     15          8           0        1.080898   -4.915463    3.476927
     16          8           0        2.545143   -3.598998    2.244338
     17          7           0       -3.489601    2.708442    1.403136
     18          6           0       -2.559083    2.608317    2.392729
     19          6           0       -2.178680    3.958045    2.802574
     20          6           0       -3.010826    4.814694    2.065329
     21          6           0       -3.704477    4.010477    1.116915
     22          6           0       -1.071767    4.170580    3.818364
     23          6           0       -3.086117    6.321375    2.342173
     24          8           0       -2.369704    6.858211    3.185300
     25          6           0       -4.129268    7.212120    1.721548
     26          7           0       -5.168422    2.399431   -1.158578
     27          6           0       -5.254996    3.725274   -0.950425
     28          6           0       -5.826464    4.426735   -2.234656
     29          6           0       -6.475774    3.264030   -2.914769
     30          6           0       -6.081926    2.072168   -2.106831
     31          6           0       -6.792625    5.673467   -2.076848
     32          6           0       -6.089733    3.255382   -4.448730
     33          6           0       -6.964720    2.684666   -5.570761
     34          7           0       -5.207399   -0.426684   -0.608411
     35          6           0       -6.144242   -0.449022   -1.683180
     36          6           0       -6.628705   -1.775108   -1.819181
     37          6           0       -5.776066   -2.520540   -1.018250
     38          6           0       -4.875052   -1.706998   -0.320841
     39          6           0       -7.822259   -2.258093   -2.625757
     40          6           0       -5.500926   -3.907188   -0.608559
     41          8           0       -6.026074   -4.983473   -0.959995
     42          6           0       -4.195724   -3.822369    0.228612
     43          6           0       -3.118520   -4.541511   -0.516359
     44          8           0       -2.170424   -3.978278   -1.008913
     45          8           0       -3.408713   -5.901823   -0.521637
     46          6           0       -2.420910   -6.665473   -1.282339
     47          6           0        3.316167   -4.757036    1.865864
     48          6           0        4.037836   -4.444573    0.511005
     49          6           0        3.528074   -4.745252   -0.665028
     50          6           0        2.266045   -5.616244   -0.958133
     51          6           0        4.130665   -4.096227   -1.944502
     52          6           0        3.864261   -2.652165   -2.235853
     53          6           0        5.098806   -1.801924   -2.697712
     54          6           0        5.355037   -0.490826   -1.919077
     55          6           0        5.045536    0.801838   -2.732813
     56          6           0        6.849725   -0.496025   -1.556741
     57          6           0        7.134740    0.194228   -0.194630
     58          6           0        7.843967    1.530198   -0.203060
     59          6           0        9.270233    1.436282    0.391727
     60          6           0        9.217126    1.829232    1.898514
     61          6           0       10.340956    2.254926   -0.397247
     62          6           0       11.682412    2.245917    0.291939
     63          6           0       12.846512    1.574338   -0.576709
     64          6           0       13.745851    2.593301   -1.199457
     65          6           0       13.276918    3.275808   -2.559407
     66          6           0       15.206093    2.008289   -1.234543
     67          1           0       -1.586548    1.526212    3.987890
     68          1           0       -4.736009    5.537613   -0.054445
     69          1           0       -7.308750    0.653438   -3.084793
     70          1           0       -2.594174   -3.053060    3.223872
     71          1           0       -1.366852   -1.061693    4.322693
     72          1           0       -3.888720   -2.181273    4.672720
     73          1           0       -4.026467   -0.426016    4.902319
     74          1           0       -2.788018   -1.322792    5.739500
     75          1           0       -0.674713   -2.046374    1.037621
     76          1           0       -0.943305   -3.651636    1.533407
     77          1           0        0.092141   -2.521058    3.911577
     78          1           0        1.084504   -1.727161    2.819117
     79          1           0       -1.533943    4.979295    4.384464
     80          1           0       -0.117333    4.433680    3.363365
     81          1           0       -0.861115    3.372309    4.529850
     82          1           0       -5.086630    6.694092    1.770604
     83          1           0       -3.802901    7.533397    0.732789
     84          1           0       -4.132987    8.121675    2.320463
     85          1           0       -4.908805    4.768993   -2.712187
     86          1           0       -7.549950    3.392962   -2.780211
     87          1           0       -6.806742    6.009216   -1.039694
     88          1           0       -7.814492    5.449210   -2.381010
     89          1           0       -6.319654    6.472448   -2.647603
     90          1           0       -5.330061    2.481326   -4.552238
     91          1           0       -5.805075    4.277688   -4.697539
     92          1           0       -6.528215    1.785231   -6.004077
     93          1           0       -7.057732    3.424050   -6.366106
     94          1           0       -7.973050    2.494968   -5.202644
     95          1           0       -7.344001   -2.842089   -3.411465
     96          1           0       -8.506715   -1.506886   -3.020458
     97          1           0       -8.504128   -2.829057   -1.995243
     98          1           0       -4.273450   -4.337740    1.185468
     99          1           0       -2.201140   -6.156216   -2.220806
    100          1           0       -2.798276   -7.677707   -1.426587
    101          1           0       -1.480528   -6.834595   -0.758191
    102          1           0        2.799167   -5.712130    1.776299
    103          1           0        4.184708   -4.763504    2.523518
    104          1           0        5.010391   -3.963146    0.611826
    105          1           0        2.603492   -6.453495   -1.568031
    106          1           0        1.544464   -4.998460   -1.493484
    107          1           0        1.851853   -6.105460   -0.077036
    108          1           0        3.783765   -4.670389   -2.803365
    109          1           0        5.179583   -4.266874   -1.702496
    110          1           0        3.422833   -2.295182   -1.305249
    111          1           0        3.060125   -2.644855   -2.972102
    112          1           0        4.950186   -1.675844   -3.770243
    113          1           0        5.975253   -2.450219   -2.673339
    114          1           0        4.664008   -0.463596   -1.076230
    115          1           0        5.885100    1.062932   -3.376499
    116          1           0        4.924002    1.669097   -2.083851
    117          1           0        4.202620    0.630100   -3.401861
    118          1           0        7.446968    0.114317   -2.233405
    119          1           0        7.345849   -1.464126   -1.482379
    120          1           0        7.677866   -0.519588    0.424653
    121          1           0        6.194435    0.391986    0.320230
    122          1           0        7.268432    2.247067    0.381880
    123          1           0        7.959641    1.995798   -1.182562
    124          1           0        9.715965    0.446713    0.285142
    125          1           0        9.472875    2.842901    2.205996
    126          1           0        9.882987    1.131004    2.407165
    127          1           0        8.237200    1.728548    2.363626
    128          1           0        9.873676    3.227039   -0.558649
    129          1           0       10.422891    1.874837   -1.415486
    130          1           0       11.623890    1.602382    1.169426
    131          1           0       11.859422    3.245565    0.688307
    132          1           0       12.418168    0.976466   -1.381323
    133          1           0       13.323629    0.882721    0.118804
    134          1           0       13.786471    3.513955   -0.617185
    135          1           0       13.916163    3.176668   -3.437711
    136          1           0       13.199523    4.360410   -2.492902
    137          1           0       12.314245    2.882773   -2.886199
    138          1           0       15.332513    1.615666   -2.243513
    139          1           0       15.307536    1.186680   -0.525466
    140          1           0       15.972348    2.751539   -1.016559
 ---------------------------------------------------------------------

 SCF Done:  E(RZINDO/S) =  -474.184046756     A.U. after   19 cycles

 Excitation energies and oscillator strengths:

 Excited State   1:      Singlet-A      1.2819 eV  967.20 nm  f=0.4917  <S**2>=0.000
     175 ->178         0.18068
     176 ->177         0.66536
 This state for optimization and/or second-order correction.
 Total Energy, E(CIS/TDA) =  -474.136938101
 Copying the excited state density for this state as the 1-particle RhoCI density.

 Excited State   2:      Singlet-A      1.8917 eV  655.40 nm  f=0.0119  <S**2>=0.000
     175 ->177         0.51159
     176 ->178        -0.45698

 Excited State   3:      Singlet-A      2.8619 eV  433.22 nm  f=0.6282  <S**2>=0.000
     175 ->177         0.33183
     176 ->178         0.43269
     176 ->179        -0.35740
     176 ->180        -0.10654
     176 ->181         0.10993

 Excited State   4:      Singlet-A      2.9351 eV  422.42 nm  f=0.0011  <S**2>=0.000
     168 ->177         0.24719
     168 ->179        -0.37876
     168 ->180         0.25377
     168 ->181        -0.14036
     168 ->184        -0.17471
     168 ->185         0.18081
     171 ->177         0.16011
     171 ->179        -0.12537

 Excited State   5:      Singlet-A      2.9984 eV  413.51 nm  f=0.0156  <S**2>=0.000
     169 ->177         0.10526
     169 ->179         0.13245
     169 ->180         0.13501
     170 ->177         0.26204
     170 ->178        -0.19197
     170 ->179         0.28728
     170 ->180         0.26869
     170 ->181        -0.15563
     170 ->185        -0.16245
     170 ->187         0.17742

 The electronic state is 1-A.
 Alpha  occ. eigenvalues --   -1.85027  -1.83026  -1.82830  -1.74699  -1.71827
 Alpha  occ. eigenvalues --   -1.70098  -1.65219  -1.60434  -1.60221  -1.56036
 Alpha  occ. eigenvalues --   -1.54606  -1.50543  -1.49431  -1.48025  -1.46419
 Alpha  occ. eigenvalues --   -1.43037  -1.41802  -1.39890  -1.38403  -1.38188
 Alpha  occ. eigenvalues --   -1.35410  -1.32711  -1.31826  -1.30906  -1.29167
 Alpha  occ. eigenvalues --   -1.26790  -1.24782  -1.22907  -1.20837  -1.17874
 Alpha  occ. eigenvalues --   -1.16898  -1.16871  -1.15392  -1.14212  -1.13004
 Alpha  occ. eigenvalues --   -1.12843  -1.11254  -1.10740  -1.04973  -1.03799
 Alpha  occ. eigenvalues --   -1.02876  -1.01975  -0.99791  -0.97720  -0.97053
 Alpha  occ. eigenvalues --   -0.96917  -0.94672  -0.93032  -0.92348  -0.92115
 Alpha  occ. eigenvalues --   -0.90808  -0.90614  -0.88915  -0.87821  -0.87471
 Alpha  occ. eigenvalues --   -0.86048  -0.84330  -0.83733  -0.81617  -0.80246
 Alpha  occ. eigenvalues --   -0.79440  -0.78399  -0.77419  -0.76487  -0.76318
 Alpha  occ. eigenvalues --   -0.75929  -0.75147  -0.74627  -0.74085  -0.73941
 Alpha  occ. eigenvalues --   -0.73865  -0.73252  -0.72489  -0.71957  -0.71005
 Alpha  occ. eigenvalues --   -0.70434  -0.69461  -0.69104  -0.68490  -0.67791
 Alpha  occ. eigenvalues --   -0.67593  -0.67298  -0.66522  -0.66061  -0.65220
 Alpha  occ. eigenvalues --   -0.65012  -0.64949  -0.64433  -0.63876  -0.63736
 Alpha  occ. eigenvalues --   -0.63533  -0.63425  -0.62848  -0.62805  -0.62219
 Alpha  occ. eigenvalues --   -0.61575  -0.60972  -0.60597  -0.59796  -0.59396
 Alpha  occ. eigenvalues --   -0.59048  -0.58846  -0.58628  -0.58081  -0.57835
 Alpha  occ. eigenvalues --   -0.57450  -0.57445  -0.56599  -0.56463  -0.56417
 Alpha  occ. eigenvalues --   -0.56272  -0.55807  -0.55688  -0.55443  -0.55196
 Alpha  occ. eigenvalues --   -0.54450  -0.53956  -0.53659  -0.53398  -0.53058
 Alpha  occ. eigenvalues --   -0.52648  -0.52364  -0.52074  -0.51820  -0.51619
 Alpha  occ. eigenvalues --   -0.51187  -0.51036  -0.50720  -0.50324  -0.50203
 Alpha  occ. eigenvalues --   -0.49967  -0.49700  -0.49430  -0.49227  -0.48814
 Alpha  occ. eigenvalues --   -0.48570  -0.48538  -0.48371  -0.47531  -0.47498
 Alpha  occ. eigenvalues --   -0.47217  -0.47120  -0.46900  -0.46787  -0.46435
 Alpha  occ. eigenvalues --   -0.46206  -0.45681  -0.45434  -0.45369  -0.44962
 Alpha  occ. eigenvalues --   -0.44821  -0.44454  -0.44386  -0.44031  -0.43958
 Alpha  occ. eigenvalues --   -0.43345  -0.43244  -0.42776  -0.42259  -0.42171
 Alpha  occ. eigenvalues --   -0.41806  -0.40564  -0.40418  -0.39039  -0.38828
 Alpha  occ. eigenvalues --   -0.38477  -0.37493  -0.36048  -0.35268  -0.34560
 Alpha  occ. eigenvalues --   -0.34021  -0.32455  -0.32381  -0.31789  -0.26929
 Alpha  occ. eigenvalues --   -0.22027
 Alpha virt. eigenvalues --   -0.08374  -0.02879  -0.00810   0.00824   0.01002
 Alpha virt. eigenvalues --    0.01045   0.02546   0.02920   0.04144   0.05557
 Alpha virt. eigenvalues --    0.05809   0.06410   0.06756   0.07280   0.07796

 Mulliken charges:
               1
     1  Mg   0.438520
     2  C   -0.035164
     3  C   -0.089359
     4  C   -0.128352
     5  C   -0.082287
     6  N   -0.260996
     7  C    0.081300
     8  C    0.020061
     9  C    0.003636
    10  C    0.167830
    11  C   -0.046726
    12  C   -0.002234
    13  C   -0.006080
    14  C    0.461167
    15  O   -0.534844
    16  O   -0.260767
    17  N   -0.335216
    18  C    0.128972
    19  C    0.061479
    20  C   -0.040152
    21  C    0.169278
    22  C   -0.039642
    23  C    0.320862
    24  O   -0.524358
    25  C   -0.028716
    26  N   -0.276401
    27  C    0.160739
    28  C    0.002053
    29  C    0.015101
    30  C    0.113323
    31  C   -0.057570
    32  C   -0.044373
    33  C   -0.055054
    34  N   -0.334181
    35  C    0.071761
    36  C    0.018694
    37  C   -0.050592
    38  C    0.102579
    39  C   -0.040594
    40  C    0.320190
    41  O   -0.535189
    42  C    0.061241
    43  C    0.494345
    44  O   -0.518224
    45  O   -0.253657
    46  C    0.074528
    47  C    0.097779
    48  C   -0.098340
    49  C   -0.002566
    50  C   -0.045637
    51  C   -0.027669
    52  C   -0.030993
    53  C   -0.036627
    54  C   -0.000083
    55  C   -0.057354
    56  C   -0.034474
    57  C   -0.039859
    58  C   -0.029450
    59  C   -0.014441
    60  C   -0.057966
    61  C   -0.034894
    62  C   -0.042054
    63  C   -0.024063
    64  C   -0.008083
    65  C   -0.062148
    66  C   -0.061756
    67  H    0.028407
    68  H    0.023241
    69  H    0.018026
    70  H    0.028700
    71  H    0.027435
    72  H    0.024530
    73  H    0.028331
    74  H    0.017609
    75  H    0.037106
    76  H    0.039816
    77  H    0.031695
    78  H    0.037860
    79  H    0.044041
    80  H    0.044895
    81  H    0.026923
    82  H    0.037743
    83  H    0.044474
    84  H    0.036768
    85  H    0.038174
    86  H    0.027278
    87  H    0.019365
    88  H    0.031767
    89  H    0.021712
    90  H    0.029387
    91  H    0.024999
    92  H    0.025792
    93  H    0.015436
    94  H    0.017848
    95  H    0.039593
    96  H    0.020028
    97  H    0.032079
    98  H    0.051760
    99  H    0.047927
   100  H    0.031979
   101  H    0.035675
   102  H    0.065873
   103  H    0.034599
   104  H    0.033255
   105  H    0.024375
   106  H    0.037533
   107  H    0.025366
   108  H    0.017116
   109  H    0.022362
   110  H    0.019698
   111  H    0.018252
   112  H    0.015239
   113  H    0.018580
   114  H    0.030534
   115  H    0.014765
   116  H    0.020283
   117  H    0.019043
   118  H    0.021511
   119  H    0.021033
   120  H    0.016080
   121  H    0.010493
   122  H    0.015752
   123  H    0.015595
   124  H    0.020843
   125  H    0.022814
   126  H    0.011785
   127  H    0.011765
   128  H    0.011950
   129  H    0.012558
   130  H    0.013983
   131  H    0.025144
   132  H    0.022221
   133  H    0.020406
   134  H    0.015209
   135  H    0.017299
   136  H    0.017265
   137  H    0.016588
   138  H    0.018321
   139  H    0.019794
   140  H    0.020069
 Sum of Mulliken charges =  -0.00000

 Dipole moment (field-independent basis, Debye):
    X=             -1.2377    Y=              6.1105    Z=              0.3049  Tot=              6.2421
 N-N= 4.417316758255D+03 E-N= 0.000000000000D+00  KE=-9.508809401733D+03
 Leave Link  601 at Wed Apr 27 01:07:43 2022, MaxMem=  6710886400 cpu:               1.0 elap:               0.1
 (Enter /sw/apps/gaussian-16.0/g16/l9999.exe)
 1\1\GINC-BP1-COMPUTE154\SP\RZINDO CIS\STO-3G\C55H74Mg1N4O6\OF15641\27-
 Apr-2022\0\\#p ZINDO=(nstates=5)\\step_101_chromophore_20 ZINDO\\0,1\M
 g,0,7.143,56.764,41.186\C,0,6.597,53.411,40.595\C,0,10.484,56.297,40.0
 09\C,0,7.642,60.133,41.16\C,0,3.832,57.283,41.876\N,0,8.46,55.053,40.3
 32\C,0,8.024,53.755,40.342\C,0,9.154,52.854,39.863\C,0,10.369,53.674,4
 0.368\C,0,9.761,55.075,40.229\C,0,10.876,53.383,41.798\C,0,8.988,52.52
 ,38.374\C,0,10.361,52.243,37.573\C,0,10.499,50.969,36.708\O,0,10.585,4

 Normal termination of Gaussian 16 at Wed Apr 27 01:07:43 2022.
