 Gaussian 16, Revision A.03,
 Gaussian 16:  ES64L-G16RevA.03 25-Dec-2016

 ------------------------------
 #p blyp/Def2SVP td=(nstates=5)
 ------------------------------

 --------------------------------------------------
 step_101_chromophore_14 TDDFT with blyp functional
 --------------------------------------------------
 Symbolic Z-matrix:
 Charge =  0 Multiplicity = 1

                         Standard orientation:
 ---------------------------------------------------------------------
 Center     Atomic      Atomic             Coordinates (Angstroms)
 Number     Number       Type             X           Y           Z
 ---------------------------------------------------------------------
      1         12           0        5.543160    0.793967   -0.117714
      2          6           0        4.542233   -2.544909    0.498079
      3          6           0        4.442206    0.578260   -3.396496
      4          6           0        5.842645    4.129026   -0.362489
      5          6           0        6.393832    0.954445    3.290663
      6          7           0        4.539542   -0.706920   -1.221047
      7          6           0        4.192197   -2.043718   -0.783846
      8          6           0        3.358289   -2.806074   -1.861304
      9          6           0        3.629265   -1.894014   -3.138714
     10          6           0        4.315419   -0.561890   -2.583287
     11          6           0        4.445390   -2.483898   -4.403484
     12          6           0        1.931801   -2.669312   -1.459134
     13          6           0        1.157809   -4.006453   -1.407173
     14          6           0       -0.199618   -4.174904   -2.041705
     15          8           0       -0.500002   -4.909095   -3.023761
     16          8           0       -1.074874   -3.291218   -1.409398
     17          7           0        5.359647    2.145134   -1.749349
     18          6           0        4.936900    1.840302   -2.993586
     19          6           0        4.714978    3.058173   -3.739247
     20          6           0        5.067159    4.169231   -2.915286
     21          6           0        5.521340    3.488880   -1.589083
     22          6           0        4.232123    3.125041   -5.189473
     23          6           0        5.066973    5.603811   -3.309044
     24          8           0        4.750647    5.870664   -4.456260
     25          6           0        5.445408    6.712041   -2.366640
     26          7           0        5.814918    2.339515    1.287639
     27          6           0        5.935812    3.656787    0.942466
     28          6           0        6.278816    4.535159    2.154166
     29          6           0        6.765038    3.483584    3.176384
     30          6           0        6.319617    2.172807    2.583827
     31          6           0        7.308025    5.736802    1.948523
     32          6           0        6.282435    3.753363    4.670511
     33          6           0        7.317244    3.889980    5.771899
     34          7           0        5.569679   -0.483685    1.556519
     35          6           0        5.980052   -0.349383    2.896175
     36          6           0        5.813724   -1.604985    3.636629
     37          6           0        5.215642   -2.469949    2.738807
     38          6           0        5.108460   -1.769611    1.499300
     39          6           0        5.998938   -1.836947    5.184053
     40          6           0        4.683751   -3.843000    2.546426
     41          8           0        4.691710   -4.884069    3.267899
     42          6           0        4.275809   -3.945428    0.997710
     43          6           0        5.060735   -4.983216    0.327856
     44          8           0        4.620278   -6.046361   -0.094705
     45          8           0        6.401441   -4.631377    0.163071
     46          6           0        7.175219   -5.642401   -0.577270
     47          6           0       -2.504535   -3.448993   -1.761012
     48          6           0       -3.358109   -2.567337   -0.841276
     49          6           0       -3.621679   -1.225738   -0.841310
     50          6           0       -3.104004   -0.255717   -1.942229
     51          6           0       -4.447238   -0.622239    0.233758
     52          6           0       -5.824216   -0.053906   -0.039262
     53          6           0       -6.792455   -0.227718    1.161006
     54          6           0       -8.212784    0.484494    0.939487
     55          6           0       -8.323272    1.815720    1.754442
     56          6           0       -9.361121   -0.496331    1.210207
     57          6           0      -10.573436   -0.309041    0.242900
     58          6           0      -11.707101   -1.040777    0.866626
     59          6           0      -12.972061   -0.233952    1.118604
     60          6           0      -13.587284   -0.747511    2.381049
     61          6           0      -14.011375   -0.368717   -0.076833
     62          6           0      -14.303233    1.004765   -0.730711
     63          6           0      -15.849707    1.220531   -0.735340
     64          6           0      -16.218822    2.178646    0.381186
     65          6           0      -17.752560    1.888091    0.737085
     66          6           0      -16.074958    3.692201    0.025931
     67          1           0        4.011003    0.468331   -4.393981
     68          1           0        5.971803    5.212695   -0.359533
     69          1           0        6.820283    1.129501    4.281013
     70          1           0        3.866166   -3.770125   -1.896388
     71          1           0        2.674446   -1.658399   -3.608268
     72          1           0        3.942860   -2.209084   -5.331160
     73          1           0        4.675974   -3.541831   -4.277583
     74          1           0        5.370673   -1.910792   -4.470053
     75          1           0        1.403034   -1.954544   -2.089183
     76          1           0        1.861155   -2.203630   -0.475924
     77          1           0        1.029381   -4.268138   -0.356754
     78          1           0        1.567680   -4.840264   -1.977246
     79          1           0        3.997221    2.124733   -5.552967
     80          1           0        4.985584    3.555732   -5.849237
     81          1           0        3.310422    3.696669   -5.291807
     82          1           0        6.479070    6.457903   -2.130459
     83          1           0        4.770428    6.672760   -1.511320
     84          1           0        5.484401    7.663386   -2.896742
     85          1           0        5.345571    4.951633    2.531611
     86          1           0        7.851045    3.432499    3.100921
     87          1           0        6.833219    6.711280    1.829713
     88          1           0        8.004507    5.575135    1.125678
     89          1           0        7.920630    5.929496    2.828995
     90          1           0        5.611378    2.976025    5.037673
     91          1           0        5.723837    4.680824    4.546389
     92          1           0        7.246002    4.800448    6.367068
     93          1           0        8.304861    3.846303    5.311584
     94          1           0        7.274366    3.025357    6.433804
     95          1           0        5.197353   -2.411972    5.645884
     96          1           0        6.069233   -0.795761    5.501382
     97          1           0        6.909882   -2.422902    5.311064
     98          1           0        3.237710   -4.279821    1.003142
     99          1           0        7.174009   -5.320897   -1.619004
    100          1           0        6.838216   -6.671533   -0.700808
    101          1           0        8.178538   -5.697152   -0.156262
    102          1           0       -2.772181   -4.488506   -1.571541
    103          1           0       -2.622916   -3.269051   -2.829883
    104          1           0       -3.857959   -3.190214   -0.099496
    105          1           0       -2.586013    0.609163   -1.528476
    106          1           0       -3.863192    0.254278   -2.533607
    107          1           0       -2.420111   -0.803670   -2.590127
    108          1           0       -3.945733    0.142269    0.827252
    109          1           0       -4.578205   -1.350484    1.033647
    110          1           0       -6.310137   -0.436926   -0.936746
    111          1           0       -5.599929    1.008582   -0.136315
    112          1           0       -6.234095    0.229407    1.977893
    113          1           0       -6.887787   -1.278769    1.432555
    114          1           0       -8.275678    0.804776   -0.100348
    115          1           0       -7.507840    1.955331    2.464460
    116          1           0       -9.265987    1.846561    2.300062
    117          1           0       -8.263905    2.687555    1.104074
    118          1           0       -9.494103   -0.527309    2.292285
    119          1           0       -8.913883   -1.461676    0.976650
    120          1           0      -10.328203   -0.884483   -0.649228
    121          1           0      -10.774746    0.721878   -0.048455
    122          1           0      -11.514364   -1.590006    1.787642
    123          1           0      -11.940349   -1.842623    0.166520
    124          1           0      -12.633603    0.772612    1.361736
    125          1           0      -12.953225   -0.409181    3.200669
    126          1           0      -13.712653   -1.831092    2.396978
    127          1           0      -14.565970   -0.276658    2.466056
    128          1           0      -14.921752   -0.842344    0.290918
    129          1           0      -13.592686   -1.097875   -0.770693
    130          1           0      -13.905996    0.998876   -1.746343
    131          1           0      -13.797553    1.844682   -0.255327
    132          1           0      -16.349085    0.271647   -0.545488
    133          1           0      -15.975868    1.677814   -1.717262
    134          1           0      -15.572773    1.943277    1.227824
    135          1           0      -17.719025    1.896587    1.825807
    136          1           0      -18.174759    0.940978    0.400867
    137          1           0      -18.407729    2.705639    0.438571
    138          1           0      -15.517015    3.847063   -0.897840
    139          1           0      -15.548800    4.074963    0.900568
    140          1           0      -16.988462    4.274392   -0.088740
 ---------------------------------------------------------------------

 SCF Done:  E(RB-LYP) =  -3007.37160436     A.U. after   21 cycles

 Excitation energies and oscillator strengths:

 Excited State   1:      Singlet-A      1.7244 eV  719.00 nm  f=0.0080  <S**2>=0.000
     244 -> 247        0.69504
 This state for optimization and/or second-order correction.
 Total Energy, E(TD-HF/TD-DFT) =  -3007.30823398
 Copying the excited state density for this state as the 1-particle RhoCI density.

 Excited State   2:      Singlet-A      1.7539 eV  706.91 nm  f=0.3003  <S**2>=0.000
     245 -> 248       -0.18300
     246 -> 247        0.69023
     246 <- 247       -0.15917

 Excited State   3:      Singlet-A      1.9465 eV  636.96 nm  f=0.0274  <S**2>=0.000
     243 -> 247        0.57281
     245 -> 247        0.38230
     246 -> 248        0.11582

 Excited State   4:      Singlet-A      2.0477 eV  605.49 nm  f=0.0491  <S**2>=0.000
     243 -> 247       -0.40663
     245 -> 247        0.50505
     246 -> 248        0.24628

 Excited State   5:      Singlet-A      2.2767 eV  544.59 nm  f=0.0009  <S**2>=0.000
     242 -> 247        0.70365

 The electronic state is 1-A.
 Alpha  occ. eigenvalues --  -46.27328 -18.82160 -18.81472 -18.76949 -18.76668
 Alpha  occ. eigenvalues --  -18.76612 -18.75141 -14.04275 -14.03683 -14.02013
 Alpha  occ. eigenvalues --  -14.01661 -10.03963 -10.03931 -10.01014  -9.99570
 Alpha  occ. eigenvalues --   -9.97616  -9.97571  -9.97547  -9.97316  -9.97277
 Alpha  occ. eigenvalues --   -9.97198  -9.97126  -9.96655  -9.96070  -9.95228
 Alpha  occ. eigenvalues --   -9.95096  -9.94728  -9.94721  -9.94619  -9.94560
 Alpha  occ. eigenvalues --   -9.94507  -9.94246  -9.94016  -9.93966  -9.93747
 Alpha  occ. eigenvalues --   -9.93650  -9.93607  -9.93520  -9.93453  -9.93255
 Alpha  occ. eigenvalues --   -9.93231  -9.93151  -9.93105  -9.92696  -9.92487
 Alpha  occ. eigenvalues --   -9.92398  -9.92391  -9.92281  -9.92191  -9.92085
 Alpha  occ. eigenvalues --   -9.91945  -9.91912  -9.91669  -9.91588  -9.91510
 Alpha  occ. eigenvalues --   -9.91162  -9.91012  -9.90972  -9.90871  -9.90856
 Alpha  occ. eigenvalues --   -9.90828  -9.90692  -9.90537  -9.90442  -9.90262
 Alpha  occ. eigenvalues --   -9.89758  -2.91995  -1.72416  -1.71845  -1.71744
 Alpha  occ. eigenvalues --   -0.97211  -0.95822  -0.91697  -0.89703  -0.89213
 Alpha  occ. eigenvalues --   -0.88184  -0.86488  -0.85870  -0.85452  -0.83610
 Alpha  occ. eigenvalues --   -0.76014  -0.73659  -0.73419  -0.73123  -0.73015
 Alpha  occ. eigenvalues --   -0.71943  -0.71806  -0.70793  -0.70730  -0.70004
 Alpha  occ. eigenvalues --   -0.69273  -0.68949  -0.68184  -0.67914  -0.67546
 Alpha  occ. eigenvalues --   -0.66454  -0.66224  -0.65456  -0.65007  -0.64772
 Alpha  occ. eigenvalues --   -0.64068  -0.62660  -0.62647  -0.61534  -0.61305
 Alpha  occ. eigenvalues --   -0.60465  -0.60213  -0.59765  -0.59416  -0.58618
 Alpha  occ. eigenvalues --   -0.58462  -0.57466  -0.57298  -0.56093  -0.55226
 Alpha  occ. eigenvalues --   -0.54470  -0.53407  -0.53399  -0.52166  -0.52119
 Alpha  occ. eigenvalues --   -0.51343  -0.51207  -0.51149  -0.50724  -0.49926
 Alpha  occ. eigenvalues --   -0.49603  -0.49350  -0.49060  -0.48392  -0.46655
 Alpha  occ. eigenvalues --   -0.46220  -0.46051  -0.45608  -0.45493  -0.44560
 Alpha  occ. eigenvalues --   -0.43795  -0.43426  -0.43142  -0.42772  -0.42337
 Alpha  occ. eigenvalues --   -0.41844  -0.41722  -0.41615  -0.41413  -0.41066
 Alpha  occ. eigenvalues --   -0.40987  -0.40767  -0.40593  -0.40309  -0.40270
 Alpha  occ. eigenvalues --   -0.39843  -0.39593  -0.39275  -0.39009  -0.38920
 Alpha  occ. eigenvalues --   -0.38807  -0.38551  -0.38436  -0.38237  -0.38076
 Alpha  occ. eigenvalues --   -0.37908  -0.37737  -0.37538  -0.37475  -0.37284
 Alpha  occ. eigenvalues --   -0.36990  -0.36897  -0.36746  -0.36458  -0.36386
 Alpha  occ. eigenvalues --   -0.36251  -0.36115  -0.36076  -0.35874  -0.35600
 Alpha  occ. eigenvalues --   -0.35443  -0.35344  -0.35134  -0.35008  -0.34932
 Alpha  occ. eigenvalues --   -0.34640  -0.34538  -0.34344  -0.34231  -0.34123
 Alpha  occ. eigenvalues --   -0.33912  -0.33841  -0.33534  -0.33405  -0.33101
 Alpha  occ. eigenvalues --   -0.32901  -0.32672  -0.32604  -0.32460  -0.32384
 Alpha  occ. eigenvalues --   -0.32229  -0.31934  -0.31836  -0.31754  -0.31554
 Alpha  occ. eigenvalues --   -0.31464  -0.31312  -0.31173  -0.30958  -0.30852
 Alpha  occ. eigenvalues --   -0.30732  -0.30571  -0.30327  -0.30152  -0.30108
 Alpha  occ. eigenvalues --   -0.29745  -0.29648  -0.29484  -0.29371  -0.29137
 Alpha  occ. eigenvalues --   -0.28998  -0.28715  -0.28570  -0.27990  -0.27819
 Alpha  occ. eigenvalues --   -0.27434  -0.27342  -0.26962  -0.26895  -0.26835
 Alpha  occ. eigenvalues --   -0.26741  -0.26433  -0.26321  -0.25574  -0.24811
 Alpha  occ. eigenvalues --   -0.24738  -0.24497  -0.24434  -0.24268  -0.24175
 Alpha  occ. eigenvalues --   -0.22783  -0.22681  -0.22076  -0.21882  -0.21397
 Alpha  occ. eigenvalues --   -0.20920  -0.20523  -0.19297  -0.18441  -0.18014
 Alpha  occ. eigenvalues --   -0.16200
 Alpha virt. eigenvalues --   -0.12170  -0.07474  -0.07026  -0.05217  -0.03950
 Alpha virt. eigenvalues --   -0.03215  -0.03146  -0.02641  -0.02252  -0.00160
 Alpha virt. eigenvalues --    0.00888   0.00954   0.01930   0.02418   0.02737

 Mulliken charges:
               1
     1  Mg   0.703680
     2  C    0.008153
     3  C   -0.065106
     4  C   -0.042415
     5  C   -0.075630
     6  N   -0.286795
     7  C   -0.125973
     8  C    0.066637
     9  C   -0.051376
    10  C    0.075798
    11  C    0.109781
    12  C    0.169564
    13  C    0.136552
    14  C    0.060539
    15  O   -0.221541
    16  O   -0.294735
    17  N   -0.258494
    18  C    0.151728
    19  C   -0.161382
    20  C    0.034909
    21  C    0.128241
    22  C    0.200906
    23  C   -0.127219
    24  O   -0.165765
    25  C    0.163614
    26  N   -0.248045
    27  C   -0.018466
    28  C    0.055883
    29  C    0.030759
    30  C   -0.014966
    31  C    0.112715
    32  C    0.087972
    33  C    0.065350
    34  N   -0.260794
    35  C    0.143615
    36  C   -0.209156
    37  C    0.097653
    38  C    0.111683
    39  C    0.164543
    40  C   -0.019199
    41  O   -0.165323
    42  C    0.096960
    43  C    0.099694
    44  O   -0.173212
    45  O   -0.286369
    46  C    0.215857
    47  C    0.313344
    48  C   -0.113405
    49  C   -0.063103
    50  C    0.123425
    51  C    0.130857
    52  C    0.060725
    53  C    0.063305
    54  C   -0.045757
    55  C    0.106735
    56  C    0.058633
    57  C    0.122923
    58  C    0.117901
    59  C   -0.101428
    60  C    0.106845
    61  C    0.137373
    62  C    0.058478
    63  C    0.114243
    64  C   -0.121882
    65  C    0.090130
    66  C    0.105570
    67  H   -0.049390
    68  H   -0.081780
    69  H   -0.067386
    70  H   -0.002796
    71  H   -0.015045
    72  H   -0.003260
    73  H    0.007574
    74  H   -0.015248
    75  H   -0.014466
    76  H   -0.009483
    77  H    0.011166
    78  H    0.005283
    79  H   -0.041130
    80  H    0.012310
    81  H    0.004370
    82  H    0.011195
    83  H    0.024200
    84  H   -0.010475
    85  H   -0.013973
    86  H   -0.016800
    87  H   -0.009860
    88  H    0.001095
    89  H   -0.011075
    90  H   -0.008013
    91  H   -0.026165
    92  H   -0.001023
    93  H   -0.016449
    94  H   -0.005507
    95  H    0.016722
    96  H   -0.003788
    97  H    0.012346
    98  H   -0.007120
    99  H   -0.002315
   100  H    0.022654
   101  H    0.018569
   102  H   -0.013536
   103  H   -0.000842
   104  H   -0.030628
   105  H   -0.013788
   106  H    0.000151
   107  H   -0.005344
   108  H   -0.031211
   109  H   -0.049880
   110  H   -0.020062
   111  H   -0.030896
   112  H   -0.040288
   113  H   -0.026397
   114  H   -0.039586
   115  H   -0.021526
   116  H   -0.019488
   117  H   -0.019093
   118  H   -0.025166
   119  H   -0.038816
   120  H   -0.038150
   121  H   -0.016226
   122  H   -0.044818
   123  H   -0.057373
   124  H   -0.043217
   125  H   -0.020665
   126  H   -0.015677
   127  H   -0.026919
   128  H   -0.039693
   129  H   -0.039219
   130  H   -0.043385
   131  H   -0.026001
   132  H   -0.023359
   133  H   -0.035531
   134  H   -0.018876
   135  H   -0.021612
   136  H   -0.009733
   137  H   -0.014428
   138  H   -0.014155
   139  H   -0.014702
   140  H   -0.010541
 Sum of Mulliken charges =  -0.00000

 Dipole moment (field-independent basis, Debye):
    X=              1.5451    Y=              6.0324    Z=              2.3980  Tot=              6.6729
 Quadrupole moment (field-independent basis, Debye-Ang):
   XX=           -365.0310   YY=           -442.6052   ZZ=           -415.2534
   XY=             17.6736   XZ=             11.6061   YZ=             32.3180

 Normal termination of Gaussian 16 at Tue May  3 19:58:28 2022.
