 Gaussian 16, Revision A.03,
 Gaussian 16:  ES64L-G16RevA.03 25-Dec-2016

 -----------------------------------
 #p cam-b3lyp/Def2SVP td=(nstates=5)
 -----------------------------------

 -------------------------------------------------------
 step_101_chromophore_14 TDDFT with cam-b3lyp functional
 -------------------------------------------------------
 Symbolic Z-matrix:
 Charge =  0 Multiplicity = 1

                         Standard orientation:
 ---------------------------------------------------------------------
 Center     Atomic      Atomic             Coordinates (Angstroms)
 Number     Number       Type             X           Y           Z
 ---------------------------------------------------------------------
      1         12           0        5.543160    0.793967   -0.117714
      2          6           0        4.542233   -2.544909    0.498079
      3          6           0        4.442206    0.578260   -3.396496
      4          6           0        5.842645    4.129026   -0.362489
      5          6           0        6.393832    0.954445    3.290663
      6          7           0        4.539542   -0.706920   -1.221047
      7          6           0        4.192197   -2.043718   -0.783846
      8          6           0        3.358289   -2.806074   -1.861304
      9          6           0        3.629265   -1.894014   -3.138714
     10          6           0        4.315419   -0.561890   -2.583287
     11          6           0        4.445390   -2.483898   -4.403484
     12          6           0        1.931801   -2.669312   -1.459134
     13          6           0        1.157809   -4.006453   -1.407173
     14          6           0       -0.199618   -4.174904   -2.041705
     15          8           0       -0.500002   -4.909095   -3.023761
     16          8           0       -1.074874   -3.291218   -1.409398
     17          7           0        5.359647    2.145134   -1.749349
     18          6           0        4.936900    1.840302   -2.993586
     19          6           0        4.714978    3.058173   -3.739247
     20          6           0        5.067159    4.169231   -2.915286
     21          6           0        5.521340    3.488880   -1.589083
     22          6           0        4.232123    3.125041   -5.189473
     23          6           0        5.066973    5.603811   -3.309044
     24          8           0        4.750647    5.870664   -4.456260
     25          6           0        5.445408    6.712041   -2.366640
     26          7           0        5.814918    2.339515    1.287639
     27          6           0        5.935812    3.656787    0.942466
     28          6           0        6.278816    4.535159    2.154166
     29          6           0        6.765038    3.483584    3.176384
     30          6           0        6.319617    2.172807    2.583827
     31          6           0        7.308025    5.736802    1.948523
     32          6           0        6.282435    3.753363    4.670511
     33          6           0        7.317244    3.889980    5.771899
     34          7           0        5.569679   -0.483685    1.556519
     35          6           0        5.980052   -0.349383    2.896175
     36          6           0        5.813724   -1.604985    3.636629
     37          6           0        5.215642   -2.469949    2.738807
     38          6           0        5.108460   -1.769611    1.499300
     39          6           0        5.998938   -1.836947    5.184053
     40          6           0        4.683751   -3.843000    2.546426
     41          8           0        4.691710   -4.884069    3.267899
     42          6           0        4.275809   -3.945428    0.997710
     43          6           0        5.060735   -4.983216    0.327856
     44          8           0        4.620278   -6.046361   -0.094705
     45          8           0        6.401441   -4.631377    0.163071
     46          6           0        7.175219   -5.642401   -0.577270
     47          6           0       -2.504535   -3.448993   -1.761012
     48          6           0       -3.358109   -2.567337   -0.841276
     49          6           0       -3.621679   -1.225738   -0.841310
     50          6           0       -3.104004   -0.255717   -1.942229
     51          6           0       -4.447238   -0.622239    0.233758
     52          6           0       -5.824216   -0.053906   -0.039262
     53          6           0       -6.792455   -0.227718    1.161006
     54          6           0       -8.212784    0.484494    0.939487
     55          6           0       -8.323272    1.815720    1.754442
     56          6           0       -9.361121   -0.496331    1.210207
     57          6           0      -10.573436   -0.309041    0.242900
     58          6           0      -11.707101   -1.040777    0.866626
     59          6           0      -12.972061   -0.233952    1.118604
     60          6           0      -13.587284   -0.747511    2.381049
     61          6           0      -14.011375   -0.368717   -0.076833
     62          6           0      -14.303233    1.004765   -0.730711
     63          6           0      -15.849707    1.220531   -0.735340
     64          6           0      -16.218822    2.178646    0.381186
     65          6           0      -17.752560    1.888091    0.737085
     66          6           0      -16.074958    3.692201    0.025931
     67          1           0        4.011003    0.468331   -4.393981
     68          1           0        5.971803    5.212695   -0.359533
     69          1           0        6.820283    1.129501    4.281013
     70          1           0        3.866166   -3.770125   -1.896388
     71          1           0        2.674446   -1.658399   -3.608268
     72          1           0        3.942860   -2.209084   -5.331160
     73          1           0        4.675974   -3.541831   -4.277583
     74          1           0        5.370673   -1.910792   -4.470053
     75          1           0        1.403034   -1.954544   -2.089183
     76          1           0        1.861155   -2.203630   -0.475924
     77          1           0        1.029381   -4.268138   -0.356754
     78          1           0        1.567680   -4.840264   -1.977246
     79          1           0        3.997221    2.124733   -5.552967
     80          1           0        4.985584    3.555732   -5.849237
     81          1           0        3.310422    3.696669   -5.291807
     82          1           0        6.479070    6.457903   -2.130459
     83          1           0        4.770428    6.672760   -1.511320
     84          1           0        5.484401    7.663386   -2.896742
     85          1           0        5.345571    4.951633    2.531611
     86          1           0        7.851045    3.432499    3.100921
     87          1           0        6.833219    6.711280    1.829713
     88          1           0        8.004507    5.575135    1.125678
     89          1           0        7.920630    5.929496    2.828995
     90          1           0        5.611378    2.976025    5.037673
     91          1           0        5.723837    4.680824    4.546389
     92          1           0        7.246002    4.800448    6.367068
     93          1           0        8.304861    3.846303    5.311584
     94          1           0        7.274366    3.025357    6.433804
     95          1           0        5.197353   -2.411972    5.645884
     96          1           0        6.069233   -0.795761    5.501382
     97          1           0        6.909882   -2.422902    5.311064
     98          1           0        3.237710   -4.279821    1.003142
     99          1           0        7.174009   -5.320897   -1.619004
    100          1           0        6.838216   -6.671533   -0.700808
    101          1           0        8.178538   -5.697152   -0.156262
    102          1           0       -2.772181   -4.488506   -1.571541
    103          1           0       -2.622916   -3.269051   -2.829883
    104          1           0       -3.857959   -3.190214   -0.099496
    105          1           0       -2.586013    0.609163   -1.528476
    106          1           0       -3.863192    0.254278   -2.533607
    107          1           0       -2.420111   -0.803670   -2.590127
    108          1           0       -3.945733    0.142269    0.827252
    109          1           0       -4.578205   -1.350484    1.033647
    110          1           0       -6.310137   -0.436926   -0.936746
    111          1           0       -5.599929    1.008582   -0.136315
    112          1           0       -6.234095    0.229407    1.977893
    113          1           0       -6.887787   -1.278769    1.432555
    114          1           0       -8.275678    0.804776   -0.100348
    115          1           0       -7.507840    1.955331    2.464460
    116          1           0       -9.265987    1.846561    2.300062
    117          1           0       -8.263905    2.687555    1.104074
    118          1           0       -9.494103   -0.527309    2.292285
    119          1           0       -8.913883   -1.461676    0.976650
    120          1           0      -10.328203   -0.884483   -0.649228
    121          1           0      -10.774746    0.721878   -0.048455
    122          1           0      -11.514364   -1.590006    1.787642
    123          1           0      -11.940349   -1.842623    0.166520
    124          1           0      -12.633603    0.772612    1.361736
    125          1           0      -12.953225   -0.409181    3.200669
    126          1           0      -13.712653   -1.831092    2.396978
    127          1           0      -14.565970   -0.276658    2.466056
    128          1           0      -14.921752   -0.842344    0.290918
    129          1           0      -13.592686   -1.097875   -0.770693
    130          1           0      -13.905996    0.998876   -1.746343
    131          1           0      -13.797553    1.844682   -0.255327
    132          1           0      -16.349085    0.271647   -0.545488
    133          1           0      -15.975868    1.677814   -1.717262
    134          1           0      -15.572773    1.943277    1.227824
    135          1           0      -17.719025    1.896587    1.825807
    136          1           0      -18.174759    0.940978    0.400867
    137          1           0      -18.407729    2.705639    0.438571
    138          1           0      -15.517015    3.847063   -0.897840
    139          1           0      -15.548800    4.074963    0.900568
    140          1           0      -16.988462    4.274392   -0.088740
 ---------------------------------------------------------------------

 SCF Done:  E(RCAM-B3LYP) =  -3007.14729862     A.U. after   19 cycles

 Excitation energies and oscillator strengths:

 Excited State   1:      Singlet-A      1.6344 eV  758.60 nm  f=0.3818  <S**2>=0.000
     245 -> 248        0.16771
     246 -> 247        0.68978
     245 <- 248        0.10821
 This state for optimization and/or second-order correction.
 Total Energy, E(TD-HF/TD-DFT) =  -3007.08723586
 Copying the excited state density for this state as the 1-particle RhoCI density.

 Excited State   2:      Singlet-A      2.2531 eV  550.28 nm  f=0.0831  <S**2>=0.000
     245 -> 247        0.62252
     246 -> 248       -0.32462

 Excited State   3:      Singlet-A      3.4228 eV  362.23 nm  f=0.0129  <S**2>=0.000
     242 -> 247        0.12712
     243 -> 247        0.64481
     244 -> 247        0.10577
     246 -> 248        0.12273

 Excited State   4:      Singlet-A      3.4347 eV  360.98 nm  f=0.0595  <S**2>=0.000
     239 -> 247        0.10997
     239 -> 249        0.10652
     240 -> 247        0.47359
     240 -> 249        0.35831
     240 -> 250       -0.14111
     243 -> 247       -0.15226
     245 -> 247        0.10102
     246 -> 248        0.18886

 Excited State   5:      Singlet-A      3.4765 eV  356.63 nm  f=0.4452  <S**2>=0.000
     240 -> 247       -0.11688
     240 -> 249       -0.12450
     241 -> 247       -0.14349
     242 -> 247        0.28015
     243 -> 247       -0.11345
     245 -> 247        0.25419
     246 -> 248        0.52252

 The electronic state is 1-A.
 Alpha  occ. eigenvalues --  -46.88869 -19.25044 -19.24363 -19.19967 -19.19855
 Alpha  occ. eigenvalues --  -19.19775 -19.18481 -14.43283 -14.42556 -14.40691
 Alpha  occ. eigenvalues --  -14.40034 -10.39465 -10.39372 -10.36487 -10.34822
 Alpha  occ. eigenvalues --  -10.32280 -10.32143 -10.32074 -10.31869 -10.31789
 Alpha  occ. eigenvalues --  -10.31397 -10.31211 -10.30702 -10.30665 -10.29248
 Alpha  occ. eigenvalues --  -10.29240 -10.29014 -10.28896 -10.28848 -10.28769
 Alpha  occ. eigenvalues --  -10.28763 -10.28491 -10.28420 -10.28212 -10.28000
 Alpha  occ. eigenvalues --  -10.27727 -10.27483 -10.27443 -10.27428 -10.27421
 Alpha  occ. eigenvalues --  -10.27238 -10.27100 -10.26885 -10.26560 -10.26508
 Alpha  occ. eigenvalues --  -10.26253 -10.26180 -10.26080 -10.26049 -10.25923
 Alpha  occ. eigenvalues --  -10.25813 -10.25668 -10.25293 -10.25237 -10.25227
 Alpha  occ. eigenvalues --  -10.24761 -10.24664 -10.24552 -10.24533 -10.24508
 Alpha  occ. eigenvalues --  -10.24439 -10.24329 -10.24143 -10.24070 -10.23822
 Alpha  occ. eigenvalues --  -10.23341  -3.17441  -1.92339  -1.91874  -1.91774
 Alpha  occ. eigenvalues --   -1.15739  -1.14221  -1.10242  -1.07965  -1.07136
 Alpha  occ. eigenvalues --   -1.06024  -1.04270  -1.03509  -1.02968  -1.01139
 Alpha  occ. eigenvalues --   -0.93107  -0.90510  -0.90222  -0.89916  -0.89693
 Alpha  occ. eigenvalues --   -0.88657  -0.88488  -0.87365  -0.87299  -0.86471
 Alpha  occ. eigenvalues --   -0.86007  -0.85292  -0.84495  -0.84025  -0.83778
 Alpha  occ. eigenvalues --   -0.82725  -0.82312  -0.81463  -0.80789  -0.80649
 Alpha  occ. eigenvalues --   -0.79789  -0.78254  -0.78146  -0.77209  -0.76761
 Alpha  occ. eigenvalues --   -0.75810  -0.75560  -0.75077  -0.74692  -0.73826
 Alpha  occ. eigenvalues --   -0.73506  -0.72449  -0.72253  -0.70960  -0.69792
 Alpha  occ. eigenvalues --   -0.69114  -0.68094  -0.67937  -0.66488  -0.66264
 Alpha  occ. eigenvalues --   -0.65520  -0.65352  -0.65226  -0.64652  -0.63951
 Alpha  occ. eigenvalues --   -0.63305  -0.63244  -0.62844  -0.62259  -0.60228
 Alpha  occ. eigenvalues --   -0.59733  -0.59561  -0.59100  -0.58878  -0.58050
 Alpha  occ. eigenvalues --   -0.57138  -0.56752  -0.56446  -0.55829  -0.55426
 Alpha  occ. eigenvalues --   -0.55005  -0.54724  -0.54559  -0.54171  -0.53950
 Alpha  occ. eigenvalues --   -0.53819  -0.53381  -0.53290  -0.53175  -0.53086
 Alpha  occ. eigenvalues --   -0.52732  -0.52614  -0.51735  -0.51681  -0.51581
 Alpha  occ. eigenvalues --   -0.51439  -0.51067  -0.50898  -0.50734  -0.50417
 Alpha  occ. eigenvalues --   -0.50289  -0.50132  -0.50005  -0.49809  -0.49584
 Alpha  occ. eigenvalues --   -0.49382  -0.49112  -0.48938  -0.48841  -0.48634
 Alpha  occ. eigenvalues --   -0.48398  -0.48262  -0.48097  -0.47900  -0.47714
 Alpha  occ. eigenvalues --   -0.47580  -0.47455  -0.47238  -0.47099  -0.46903
 Alpha  occ. eigenvalues --   -0.46673  -0.46598  -0.46232  -0.46075  -0.45993
 Alpha  occ. eigenvalues --   -0.45728  -0.45543  -0.45284  -0.45121  -0.44782
 Alpha  occ. eigenvalues --   -0.44447  -0.44389  -0.44227  -0.44137  -0.43932
 Alpha  occ. eigenvalues --   -0.43852  -0.43673  -0.43443  -0.43119  -0.43100
 Alpha  occ. eigenvalues --   -0.42933  -0.42847  -0.42677  -0.42584  -0.42409
 Alpha  occ. eigenvalues --   -0.42192  -0.42122  -0.41896  -0.41543  -0.41345
 Alpha  occ. eigenvalues --   -0.41314  -0.40751  -0.40694  -0.40479  -0.40403
 Alpha  occ. eigenvalues --   -0.40014  -0.39890  -0.39558  -0.38893  -0.38758
 Alpha  occ. eigenvalues --   -0.38298  -0.38288  -0.38198  -0.37621  -0.37608
 Alpha  occ. eigenvalues --   -0.37512  -0.37425  -0.37030  -0.36299  -0.36221
 Alpha  occ. eigenvalues --   -0.35928  -0.35310  -0.35253  -0.34988  -0.34679
 Alpha  occ. eigenvalues --   -0.34032  -0.33410  -0.32966  -0.31820  -0.31234
 Alpha  occ. eigenvalues --   -0.30938  -0.30694  -0.30458  -0.30331  -0.24965
 Alpha  occ. eigenvalues --   -0.21384
 Alpha virt. eigenvalues --   -0.09287  -0.02369  -0.00414   0.01658   0.02377
 Alpha virt. eigenvalues --    0.03612   0.04314   0.04497   0.04694   0.06585
 Alpha virt. eigenvalues --    0.07625   0.07785   0.08419   0.08603   0.08955

 Mulliken charges:
               1
     1  Mg   0.835734
     2  C   -0.026418
     3  C   -0.080490
     4  C   -0.075109
     5  C   -0.083309
     6  N   -0.355485
     7  C   -0.075840
     8  C    0.005659
     9  C   -0.094680
    10  C    0.089214
    11  C    0.053891
    12  C    0.114829
    13  C    0.064941
    14  C    0.146410
    15  O   -0.264038
    16  O   -0.357176
    17  N   -0.346757
    18  C    0.164903
    19  C   -0.165209
    20  C   -0.032632
    21  C    0.164941
    22  C    0.147999
    23  C   -0.050154
    24  O   -0.206182
    25  C    0.079527
    26  N   -0.321430
    27  C    0.016717
    28  C   -0.004030
    29  C   -0.030972
    30  C    0.012307
    31  C    0.053133
    32  C    0.028419
    33  C    0.005113
    34  N   -0.344881
    35  C    0.136074
    36  C   -0.198854
    37  C    0.015922
    38  C    0.144906
    39  C    0.120989
    40  C    0.084262
    41  O   -0.204057
    42  C    0.018487
    43  C    0.191565
    44  O   -0.212780
    45  O   -0.347056
    46  C    0.175520
    47  C    0.280840
    48  C   -0.138566
    49  C   -0.085658
    50  C    0.069073
    51  C    0.069434
    52  C    0.008068
    53  C    0.012995
    54  C   -0.101805
    55  C    0.049281
    56  C    0.006527
    57  C    0.064385
    58  C    0.063253
    59  C   -0.158561
    60  C    0.050264
    61  C    0.083934
    62  C    0.004982
    63  C    0.054952
    64  C   -0.174835
    65  C    0.032171
    66  C    0.046176
    67  H   -0.014099
    68  H   -0.045164
    69  H   -0.033886
    70  H    0.029266
    71  H    0.019280
    72  H    0.019915
    73  H    0.031414
    74  H    0.010944
    75  H    0.017321
    76  H    0.025313
    77  H    0.040851
    78  H    0.037280
    79  H   -0.014647
    80  H    0.040707
    81  H    0.033022
    82  H    0.036816
    83  H    0.050567
    84  H    0.026834
    85  H    0.021069
    86  H    0.016978
    87  H    0.014835
    88  H    0.025874
    89  H    0.014730
    90  H    0.022087
    91  H    0.002236
    92  H    0.023414
    93  H    0.006162
    94  H    0.016831
    95  H    0.041502
    96  H    0.016297
    97  H    0.037465
    98  H    0.034504
    99  H    0.018930
   100  H    0.048790
   101  H    0.040958
   102  H    0.016636
   103  H    0.028059
   104  H    0.001028
   105  H    0.010874
   106  H    0.023598
   107  H    0.017837
   108  H   -0.000710
   109  H   -0.017665
   110  H    0.006738
   111  H   -0.004134
   112  H   -0.012966
   113  H    0.001005
   114  H   -0.006958
   115  H    0.002468
   116  H    0.004122
   117  H    0.004863
   118  H    0.001672
   119  H   -0.008959
   120  H   -0.007026
   121  H    0.009423
   122  H   -0.012974
   123  H   -0.026902
   124  H   -0.012814
   125  H    0.004108
   126  H    0.008202
   127  H   -0.004030
   128  H   -0.010957
   129  H   -0.009443
   130  H   -0.012356
   131  H    0.000020
   132  H    0.003770
   133  H   -0.005597
   134  H    0.007882
   135  H    0.002457
   136  H    0.013856
   137  H    0.008643
   138  H    0.008639
   139  H    0.008874
   140  H    0.013488
 Sum of Mulliken charges =  -0.00000

 Dipole moment (field-independent basis, Debye):
    X=              1.6531    Y=              6.5936    Z=              2.0384  Tot=              7.0967
 Quadrupole moment (field-independent basis, Debye-Ang):
   XX=           -365.2678   YY=           -439.2156   ZZ=           -413.8591
   XY=             21.5172   XZ=              9.3052   YZ=             32.3765

 Normal termination of Gaussian 16 at Tue May  3 18:53:18 2022.
