 Gaussian 16, Revision A.03,
 Gaussian 16:  ES64L-G16RevA.03 25-Dec-2016

 ---------------------------------
 #p PBE1PBE/Def2SVP td=(nstates=5)
 ---------------------------------

 -----------------------------------------------------
 step_101_chromophore_14 TDDFT with PBE1PBE functional
 -----------------------------------------------------
 Symbolic Z-matrix:
 Charge =  0 Multiplicity = 1

                         Standard orientation:
 ---------------------------------------------------------------------
 Center     Atomic      Atomic             Coordinates (Angstroms)
 Number     Number       Type             X           Y           Z
 ---------------------------------------------------------------------
      1         12           0        5.543160    0.793967   -0.117714
      2          6           0        4.542233   -2.544909    0.498079
      3          6           0        4.442206    0.578260   -3.396496
      4          6           0        5.842645    4.129026   -0.362489
      5          6           0        6.393832    0.954445    3.290663
      6          7           0        4.539542   -0.706920   -1.221047
      7          6           0        4.192197   -2.043718   -0.783846
      8          6           0        3.358289   -2.806074   -1.861304
      9          6           0        3.629265   -1.894014   -3.138714
     10          6           0        4.315419   -0.561890   -2.583287
     11          6           0        4.445390   -2.483898   -4.403484
     12          6           0        1.931801   -2.669312   -1.459134
     13          6           0        1.157809   -4.006453   -1.407173
     14          6           0       -0.199618   -4.174904   -2.041705
     15          8           0       -0.500002   -4.909095   -3.023761
     16          8           0       -1.074874   -3.291218   -1.409398
     17          7           0        5.359647    2.145134   -1.749349
     18          6           0        4.936900    1.840302   -2.993586
     19          6           0        4.714978    3.058173   -3.739247
     20          6           0        5.067159    4.169231   -2.915286
     21          6           0        5.521340    3.488880   -1.589083
     22          6           0        4.232123    3.125041   -5.189473
     23          6           0        5.066973    5.603811   -3.309044
     24          8           0        4.750647    5.870664   -4.456260
     25          6           0        5.445408    6.712041   -2.366640
     26          7           0        5.814918    2.339515    1.287639
     27          6           0        5.935812    3.656787    0.942466
     28          6           0        6.278816    4.535159    2.154166
     29          6           0        6.765038    3.483584    3.176384
     30          6           0        6.319617    2.172807    2.583827
     31          6           0        7.308025    5.736802    1.948523
     32          6           0        6.282435    3.753363    4.670511
     33          6           0        7.317244    3.889980    5.771899
     34          7           0        5.569679   -0.483685    1.556519
     35          6           0        5.980052   -0.349383    2.896175
     36          6           0        5.813724   -1.604985    3.636629
     37          6           0        5.215642   -2.469949    2.738807
     38          6           0        5.108460   -1.769611    1.499300
     39          6           0        5.998938   -1.836947    5.184053
     40          6           0        4.683751   -3.843000    2.546426
     41          8           0        4.691710   -4.884069    3.267899
     42          6           0        4.275809   -3.945428    0.997710
     43          6           0        5.060735   -4.983216    0.327856
     44          8           0        4.620278   -6.046361   -0.094705
     45          8           0        6.401441   -4.631377    0.163071
     46          6           0        7.175219   -5.642401   -0.577270
     47          6           0       -2.504535   -3.448993   -1.761012
     48          6           0       -3.358109   -2.567337   -0.841276
     49          6           0       -3.621679   -1.225738   -0.841310
     50          6           0       -3.104004   -0.255717   -1.942229
     51          6           0       -4.447238   -0.622239    0.233758
     52          6           0       -5.824216   -0.053906   -0.039262
     53          6           0       -6.792455   -0.227718    1.161006
     54          6           0       -8.212784    0.484494    0.939487
     55          6           0       -8.323272    1.815720    1.754442
     56          6           0       -9.361121   -0.496331    1.210207
     57          6           0      -10.573436   -0.309041    0.242900
     58          6           0      -11.707101   -1.040777    0.866626
     59          6           0      -12.972061   -0.233952    1.118604
     60          6           0      -13.587284   -0.747511    2.381049
     61          6           0      -14.011375   -0.368717   -0.076833
     62          6           0      -14.303233    1.004765   -0.730711
     63          6           0      -15.849707    1.220531   -0.735340
     64          6           0      -16.218822    2.178646    0.381186
     65          6           0      -17.752560    1.888091    0.737085
     66          6           0      -16.074958    3.692201    0.025931
     67          1           0        4.011003    0.468331   -4.393981
     68          1           0        5.971803    5.212695   -0.359533
     69          1           0        6.820283    1.129501    4.281013
     70          1           0        3.866166   -3.770125   -1.896388
     71          1           0        2.674446   -1.658399   -3.608268
     72          1           0        3.942860   -2.209084   -5.331160
     73          1           0        4.675974   -3.541831   -4.277583
     74          1           0        5.370673   -1.910792   -4.470053
     75          1           0        1.403034   -1.954544   -2.089183
     76          1           0        1.861155   -2.203630   -0.475924
     77          1           0        1.029381   -4.268138   -0.356754
     78          1           0        1.567680   -4.840264   -1.977246
     79          1           0        3.997221    2.124733   -5.552967
     80          1           0        4.985584    3.555732   -5.849237
     81          1           0        3.310422    3.696669   -5.291807
     82          1           0        6.479070    6.457903   -2.130459
     83          1           0        4.770428    6.672760   -1.511320
     84          1           0        5.484401    7.663386   -2.896742
     85          1           0        5.345571    4.951633    2.531611
     86          1           0        7.851045    3.432499    3.100921
     87          1           0        6.833219    6.711280    1.829713
     88          1           0        8.004507    5.575135    1.125678
     89          1           0        7.920630    5.929496    2.828995
     90          1           0        5.611378    2.976025    5.037673
     91          1           0        5.723837    4.680824    4.546389
     92          1           0        7.246002    4.800448    6.367068
     93          1           0        8.304861    3.846303    5.311584
     94          1           0        7.274366    3.025357    6.433804
     95          1           0        5.197353   -2.411972    5.645884
     96          1           0        6.069233   -0.795761    5.501382
     97          1           0        6.909882   -2.422902    5.311064
     98          1           0        3.237710   -4.279821    1.003142
     99          1           0        7.174009   -5.320897   -1.619004
    100          1           0        6.838216   -6.671533   -0.700808
    101          1           0        8.178538   -5.697152   -0.156262
    102          1           0       -2.772181   -4.488506   -1.571541
    103          1           0       -2.622916   -3.269051   -2.829883
    104          1           0       -3.857959   -3.190214   -0.099496
    105          1           0       -2.586013    0.609163   -1.528476
    106          1           0       -3.863192    0.254278   -2.533607
    107          1           0       -2.420111   -0.803670   -2.590127
    108          1           0       -3.945733    0.142269    0.827252
    109          1           0       -4.578205   -1.350484    1.033647
    110          1           0       -6.310137   -0.436926   -0.936746
    111          1           0       -5.599929    1.008582   -0.136315
    112          1           0       -6.234095    0.229407    1.977893
    113          1           0       -6.887787   -1.278769    1.432555
    114          1           0       -8.275678    0.804776   -0.100348
    115          1           0       -7.507840    1.955331    2.464460
    116          1           0       -9.265987    1.846561    2.300062
    117          1           0       -8.263905    2.687555    1.104074
    118          1           0       -9.494103   -0.527309    2.292285
    119          1           0       -8.913883   -1.461676    0.976650
    120          1           0      -10.328203   -0.884483   -0.649228
    121          1           0      -10.774746    0.721878   -0.048455
    122          1           0      -11.514364   -1.590006    1.787642
    123          1           0      -11.940349   -1.842623    0.166520
    124          1           0      -12.633603    0.772612    1.361736
    125          1           0      -12.953225   -0.409181    3.200669
    126          1           0      -13.712653   -1.831092    2.396978
    127          1           0      -14.565970   -0.276658    2.466056
    128          1           0      -14.921752   -0.842344    0.290918
    129          1           0      -13.592686   -1.097875   -0.770693
    130          1           0      -13.905996    0.998876   -1.746343
    131          1           0      -13.797553    1.844682   -0.255327
    132          1           0      -16.349085    0.271647   -0.545488
    133          1           0      -15.975868    1.677814   -1.717262
    134          1           0      -15.572773    1.943277    1.227824
    135          1           0      -17.719025    1.896587    1.825807
    136          1           0      -18.174759    0.940978    0.400867
    137          1           0      -18.407729    2.705639    0.438571
    138          1           0      -15.517015    3.847063   -0.897840
    139          1           0      -15.548800    4.074963    0.900568
    140          1           0      -16.988462    4.274392   -0.088740
 ---------------------------------------------------------------------

 SCF Done:  E(RPBE1PBE) =  -3005.33615743     A.U. after   15 cycles

 Excitation energies and oscillator strengths:

 Excited State   1:      Singlet-A      1.7901 eV  692.61 nm  f=0.3705  <S**2>=0.000
     245 -> 248        0.16257
     246 -> 247        0.69768
     246 <- 247       -0.11697
 This state for optimization and/or second-order correction.
 Total Energy, E(TD-HF/TD-DFT) =  -3005.27037251
 Copying the excited state density for this state as the 1-particle RhoCI density.

 Excited State   2:      Singlet-A      2.2563 eV  549.50 nm  f=0.0876  <S**2>=0.000
     245 -> 247        0.63746
     246 -> 248       -0.29616

 Excited State   3:      Singlet-A      2.9093 eV  426.16 nm  f=0.0004  <S**2>=0.000
     244 -> 247        0.67519
     244 -> 249       -0.11035
     244 -> 250       -0.12818

 Excited State   4:      Singlet-A      2.9961 eV  413.81 nm  f=0.0013  <S**2>=0.000
     240 -> 247        0.19183
     241 -> 247        0.62564
     241 -> 249        0.21101

 Excited State   5:      Singlet-A      3.0721 eV  403.58 nm  f=0.0035  <S**2>=0.000
     242 -> 247        0.69506

 The electronic state is 1-A.
 Alpha  occ. eigenvalues --  -46.92280 -19.25705 -19.25048 -19.20288 -19.20133
 Alpha  occ. eigenvalues --  -19.20117 -19.18593 -14.42832 -14.42117 -14.40216
 Alpha  occ. eigenvalues --  -14.39806 -10.36493 -10.36439 -10.33773 -10.31849
 Alpha  occ. eigenvalues --  -10.30028 -10.29922 -10.29657 -10.29466 -10.29295
 Alpha  occ. eigenvalues --  -10.29139 -10.28666 -10.28456 -10.28140 -10.27086
 Alpha  occ. eigenvalues --  -10.27069 -10.26723 -10.26668 -10.26659 -10.26603
 Alpha  occ. eigenvalues --  -10.26335 -10.26333 -10.26322 -10.25853 -10.25576
 Alpha  occ. eigenvalues --  -10.25337 -10.25179 -10.25074 -10.25035 -10.24971
 Alpha  occ. eigenvalues --  -10.24937 -10.24623 -10.24426 -10.24072 -10.23966
 Alpha  occ. eigenvalues --  -10.23804 -10.23779 -10.23549 -10.23493 -10.23405
 Alpha  occ. eigenvalues --  -10.23387 -10.23253 -10.22829 -10.22818 -10.22767
 Alpha  occ. eigenvalues --  -10.22282 -10.22236 -10.22224 -10.22096 -10.21945
 Alpha  occ. eigenvalues --  -10.21884 -10.21831 -10.21632 -10.21566 -10.21201
 Alpha  occ. eigenvalues --  -10.20895  -3.14430  -1.87269  -1.86783  -1.86684
 Alpha  occ. eigenvalues --   -1.10499  -1.09010  -1.04877  -1.02774  -1.01983
 Alpha  occ. eigenvalues --   -1.00882  -0.98836  -0.98159  -0.97671  -0.95698
 Alpha  occ. eigenvalues --   -0.87523  -0.84634  -0.84432  -0.84070  -0.84004
 Alpha  occ. eigenvalues --   -0.82943  -0.82587  -0.81678  -0.81457  -0.80851
 Alpha  occ. eigenvalues --   -0.80230  -0.79510  -0.78724  -0.78336  -0.77990
 Alpha  occ. eigenvalues --   -0.76884  -0.76463  -0.75708  -0.75151  -0.74844
 Alpha  occ. eigenvalues --   -0.74030  -0.72535  -0.72469  -0.71410  -0.71043
 Alpha  occ. eigenvalues --   -0.70020  -0.69831  -0.69160  -0.68828  -0.68032
 Alpha  occ. eigenvalues --   -0.67925  -0.66773  -0.66691  -0.65249  -0.64181
 Alpha  occ. eigenvalues --   -0.63615  -0.62487  -0.62168  -0.60728  -0.60677
 Alpha  occ. eigenvalues --   -0.59886  -0.59792  -0.59646  -0.59236  -0.58065
 Alpha  occ. eigenvalues --   -0.57861  -0.57520  -0.57253  -0.56457  -0.54794
 Alpha  occ. eigenvalues --   -0.54205  -0.54102  -0.53663  -0.53505  -0.52652
 Alpha  occ. eigenvalues --   -0.51676  -0.51181  -0.50977  -0.50278  -0.49997
 Alpha  occ. eigenvalues --   -0.49621  -0.49155  -0.48934  -0.48656  -0.48563
 Alpha  occ. eigenvalues --   -0.48377  -0.47959  -0.47774  -0.47715  -0.47492
 Alpha  occ. eigenvalues --   -0.47316  -0.47092  -0.46362  -0.46262  -0.46164
 Alpha  occ. eigenvalues --   -0.46015  -0.45601  -0.45483  -0.45327  -0.45036
 Alpha  occ. eigenvalues --   -0.44951  -0.44697  -0.44449  -0.44376  -0.44189
 Alpha  occ. eigenvalues --   -0.44064  -0.43685  -0.43521  -0.43452  -0.43297
 Alpha  occ. eigenvalues --   -0.42953  -0.42904  -0.42716  -0.42542  -0.42395
 Alpha  occ. eigenvalues --   -0.42195  -0.42133  -0.41955  -0.41695  -0.41514
 Alpha  occ. eigenvalues --   -0.41387  -0.41259  -0.40926  -0.40773  -0.40584
 Alpha  occ. eigenvalues --   -0.40546  -0.40181  -0.39988  -0.39843  -0.39469
 Alpha  occ. eigenvalues --   -0.39134  -0.39083  -0.38990  -0.38947  -0.38685
 Alpha  occ. eigenvalues --   -0.38591  -0.38431  -0.38177  -0.37882  -0.37831
 Alpha  occ. eigenvalues --   -0.37739  -0.37707  -0.37514  -0.37394  -0.37151
 Alpha  occ. eigenvalues --   -0.36965  -0.36930  -0.36830  -0.36457  -0.36152
 Alpha  occ. eigenvalues --   -0.36033  -0.35697  -0.35556  -0.35344  -0.35206
 Alpha  occ. eigenvalues --   -0.34993  -0.34850  -0.34337  -0.33743  -0.33650
 Alpha  occ. eigenvalues --   -0.33289  -0.33062  -0.32981  -0.32682  -0.32483
 Alpha  occ. eigenvalues --   -0.32376  -0.32319  -0.31884  -0.31236  -0.31011
 Alpha  occ. eigenvalues --   -0.30877  -0.30474  -0.30227  -0.29837  -0.29634
 Alpha  occ. eigenvalues --   -0.28940  -0.28853  -0.27940  -0.27473  -0.26437
 Alpha  occ. eigenvalues --   -0.26176  -0.25989  -0.25648  -0.25518  -0.21832
 Alpha  occ. eigenvalues --   -0.19087
 Alpha virt. eigenvalues --   -0.11779  -0.05866  -0.04724  -0.02723  -0.00952
 Alpha virt. eigenvalues --   -0.00410  -0.00128   0.00010   0.00354   0.02864
 Alpha virt. eigenvalues --    0.03448   0.04051   0.04773   0.05383   0.05567

 Mulliken charges:
               1
     1  Mg   0.985015
     2  C   -0.040834
     3  C   -0.074422
     4  C   -0.082295
     5  C   -0.083229
     6  N   -0.454436
     7  C    0.006077
     8  C   -0.086593
     9  C   -0.154371
    10  C    0.115536
    11  C   -0.004606
    12  C    0.073361
    13  C   -0.010494
    14  C    0.209939
    15  O   -0.295889
    16  O   -0.382353
    17  N   -0.463488
    18  C    0.193872
    19  C   -0.190089
    20  C   -0.076240
    21  C    0.198693
    22  C    0.089011
    23  C   -0.003593
    24  O   -0.241350
    25  C    0.001359
    26  N   -0.425194
    27  C    0.063457
    28  C   -0.083839
    29  C   -0.111853
    30  C    0.055927
    31  C   -0.007284
    32  C   -0.035073
    33  C   -0.065131
    34  N   -0.462991
    35  C    0.149564
    36  C   -0.203125
    37  C   -0.031329
    38  C    0.187657
    39  C    0.064871
    40  C    0.177712
    41  O   -0.245404
    42  C   -0.097336
    43  C    0.284486
    44  O   -0.250141
    45  O   -0.375525
    46  C    0.119370
    47  C    0.237609
    48  C   -0.151541
    49  C   -0.129637
    50  C    0.011185
    51  C    0.007632
    52  C   -0.057865
    53  C   -0.041031
    54  C   -0.183008
    55  C   -0.007713
    56  C   -0.051490
    57  C   -0.001939
    58  C    0.016132
    59  C   -0.247981
    60  C   -0.015608
    61  C    0.036136
    62  C   -0.055445
    63  C   -0.007249
    64  C   -0.267436
    65  C   -0.027988
    66  C   -0.010640
    67  H    0.016814
    68  H   -0.009072
    69  H    0.001540
    70  H    0.069807
    71  H    0.055215
    72  H    0.046199
    73  H    0.058103
    74  H    0.039796
    75  H    0.048890
    76  H    0.058887
    77  H    0.073244
    78  H    0.067496
    79  H    0.013340
    80  H    0.067382
    81  H    0.060013
    82  H    0.063668
    83  H    0.076255
    84  H    0.054532
    85  H    0.058534
    86  H    0.055690
    87  H    0.042492
    88  H    0.053245
    89  H    0.042759
    90  H    0.053983
    91  H    0.036210
    92  H    0.051019
    93  H    0.034008
    94  H    0.043479
    95  H    0.068620
    96  H    0.044387
    97  H    0.065829
    98  H    0.074334
    99  H    0.041969
   100  H    0.069904
   101  H    0.062956
   102  H    0.043372
   103  H    0.053332
   104  H    0.030080
   105  H    0.038383
   106  H    0.050343
   107  H    0.045823
   108  H    0.032251
   109  H    0.014715
   110  H    0.039416
   111  H    0.030546
   112  H    0.020145
   113  H    0.031621
   114  H    0.031039
   115  H    0.029023
   116  H    0.031438
   117  H    0.032078
   118  H    0.033007
   119  H    0.026156
   120  H    0.027254
   121  H    0.040060
   122  H    0.018721
   123  H    0.006448
   124  H    0.024462
   125  H    0.033429
   126  H    0.036491
   127  H    0.026528
   128  H    0.019870
   129  H    0.022537
   130  H    0.021034
   131  H    0.031428
   132  H    0.035913
   133  H    0.027610
   134  H    0.047127
   135  H    0.030712
   136  H    0.039926
   137  H    0.035695
   138  H    0.035126
   139  H    0.036207
   140  H    0.039598
 Sum of Mulliken charges =  -0.00000

 Dipole moment (field-independent basis, Debye):
    X=              1.7119    Y=              6.5065    Z=              2.3524  Tot=              7.1273
 Quadrupole moment (field-independent basis, Debye-Ang):
   XX=           -361.7705   YY=           -436.3272   ZZ=           -409.6612
   XY=             21.2255   XZ=             11.5168   YZ=             33.5268

 Normal termination of Gaussian 16 at Tue May  3 19:12:31 2022.
