 Gaussian 16, Revision A.03,
 Gaussian 16:  ES64L-G16RevA.03 25-Dec-2016

 --------------------------------
 #p wB97XD/Def2SVP td=(nstates=5)
 --------------------------------

 ----------------------------------------------------
 step_101_chromophore_14 TDDFT with wB97XD functional
 ----------------------------------------------------
 Symbolic Z-matrix:
 Charge =  0 Multiplicity = 1

                         Standard orientation:
 ---------------------------------------------------------------------
 Center     Atomic      Atomic             Coordinates (Angstroms)
 Number     Number       Type             X           Y           Z
 ---------------------------------------------------------------------
      1         12           0        5.543160    0.793967   -0.117714
      2          6           0        4.542233   -2.544909    0.498079
      3          6           0        4.442206    0.578260   -3.396496
      4          6           0        5.842645    4.129026   -0.362489
      5          6           0        6.393832    0.954445    3.290663
      6          7           0        4.539542   -0.706920   -1.221047
      7          6           0        4.192197   -2.043718   -0.783846
      8          6           0        3.358289   -2.806074   -1.861304
      9          6           0        3.629265   -1.894014   -3.138714
     10          6           0        4.315419   -0.561890   -2.583287
     11          6           0        4.445390   -2.483898   -4.403484
     12          6           0        1.931801   -2.669312   -1.459134
     13          6           0        1.157809   -4.006453   -1.407173
     14          6           0       -0.199618   -4.174904   -2.041705
     15          8           0       -0.500002   -4.909095   -3.023761
     16          8           0       -1.074874   -3.291218   -1.409398
     17          7           0        5.359647    2.145134   -1.749349
     18          6           0        4.936900    1.840302   -2.993586
     19          6           0        4.714978    3.058173   -3.739247
     20          6           0        5.067159    4.169231   -2.915286
     21          6           0        5.521340    3.488880   -1.589083
     22          6           0        4.232123    3.125041   -5.189473
     23          6           0        5.066973    5.603811   -3.309044
     24          8           0        4.750647    5.870664   -4.456260
     25          6           0        5.445408    6.712041   -2.366640
     26          7           0        5.814918    2.339515    1.287639
     27          6           0        5.935812    3.656787    0.942466
     28          6           0        6.278816    4.535159    2.154166
     29          6           0        6.765038    3.483584    3.176384
     30          6           0        6.319617    2.172807    2.583827
     31          6           0        7.308025    5.736802    1.948523
     32          6           0        6.282435    3.753363    4.670511
     33          6           0        7.317244    3.889980    5.771899
     34          7           0        5.569679   -0.483685    1.556519
     35          6           0        5.980052   -0.349383    2.896175
     36          6           0        5.813724   -1.604985    3.636629
     37          6           0        5.215642   -2.469949    2.738807
     38          6           0        5.108460   -1.769611    1.499300
     39          6           0        5.998938   -1.836947    5.184053
     40          6           0        4.683751   -3.843000    2.546426
     41          8           0        4.691710   -4.884069    3.267899
     42          6           0        4.275809   -3.945428    0.997710
     43          6           0        5.060735   -4.983216    0.327856
     44          8           0        4.620278   -6.046361   -0.094705
     45          8           0        6.401441   -4.631377    0.163071
     46          6           0        7.175219   -5.642401   -0.577270
     47          6           0       -2.504535   -3.448993   -1.761012
     48          6           0       -3.358109   -2.567337   -0.841276
     49          6           0       -3.621679   -1.225738   -0.841310
     50          6           0       -3.104004   -0.255717   -1.942229
     51          6           0       -4.447238   -0.622239    0.233758
     52          6           0       -5.824216   -0.053906   -0.039262
     53          6           0       -6.792455   -0.227718    1.161006
     54          6           0       -8.212784    0.484494    0.939487
     55          6           0       -8.323272    1.815720    1.754442
     56          6           0       -9.361121   -0.496331    1.210207
     57          6           0      -10.573436   -0.309041    0.242900
     58          6           0      -11.707101   -1.040777    0.866626
     59          6           0      -12.972061   -0.233952    1.118604
     60          6           0      -13.587284   -0.747511    2.381049
     61          6           0      -14.011375   -0.368717   -0.076833
     62          6           0      -14.303233    1.004765   -0.730711
     63          6           0      -15.849707    1.220531   -0.735340
     64          6           0      -16.218822    2.178646    0.381186
     65          6           0      -17.752560    1.888091    0.737085
     66          6           0      -16.074958    3.692201    0.025931
     67          1           0        4.011003    0.468331   -4.393981
     68          1           0        5.971803    5.212695   -0.359533
     69          1           0        6.820283    1.129501    4.281013
     70          1           0        3.866166   -3.770125   -1.896388
     71          1           0        2.674446   -1.658399   -3.608268
     72          1           0        3.942860   -2.209084   -5.331160
     73          1           0        4.675974   -3.541831   -4.277583
     74          1           0        5.370673   -1.910792   -4.470053
     75          1           0        1.403034   -1.954544   -2.089183
     76          1           0        1.861155   -2.203630   -0.475924
     77          1           0        1.029381   -4.268138   -0.356754
     78          1           0        1.567680   -4.840264   -1.977246
     79          1           0        3.997221    2.124733   -5.552967
     80          1           0        4.985584    3.555732   -5.849237
     81          1           0        3.310422    3.696669   -5.291807
     82          1           0        6.479070    6.457903   -2.130459
     83          1           0        4.770428    6.672760   -1.511320
     84          1           0        5.484401    7.663386   -2.896742
     85          1           0        5.345571    4.951633    2.531611
     86          1           0        7.851045    3.432499    3.100921
     87          1           0        6.833219    6.711280    1.829713
     88          1           0        8.004507    5.575135    1.125678
     89          1           0        7.920630    5.929496    2.828995
     90          1           0        5.611378    2.976025    5.037673
     91          1           0        5.723837    4.680824    4.546389
     92          1           0        7.246002    4.800448    6.367068
     93          1           0        8.304861    3.846303    5.311584
     94          1           0        7.274366    3.025357    6.433804
     95          1           0        5.197353   -2.411972    5.645884
     96          1           0        6.069233   -0.795761    5.501382
     97          1           0        6.909882   -2.422902    5.311064
     98          1           0        3.237710   -4.279821    1.003142
     99          1           0        7.174009   -5.320897   -1.619004
    100          1           0        6.838216   -6.671533   -0.700808
    101          1           0        8.178538   -5.697152   -0.156262
    102          1           0       -2.772181   -4.488506   -1.571541
    103          1           0       -2.622916   -3.269051   -2.829883
    104          1           0       -3.857959   -3.190214   -0.099496
    105          1           0       -2.586013    0.609163   -1.528476
    106          1           0       -3.863192    0.254278   -2.533607
    107          1           0       -2.420111   -0.803670   -2.590127
    108          1           0       -3.945733    0.142269    0.827252
    109          1           0       -4.578205   -1.350484    1.033647
    110          1           0       -6.310137   -0.436926   -0.936746
    111          1           0       -5.599929    1.008582   -0.136315
    112          1           0       -6.234095    0.229407    1.977893
    113          1           0       -6.887787   -1.278769    1.432555
    114          1           0       -8.275678    0.804776   -0.100348
    115          1           0       -7.507840    1.955331    2.464460
    116          1           0       -9.265987    1.846561    2.300062
    117          1           0       -8.263905    2.687555    1.104074
    118          1           0       -9.494103   -0.527309    2.292285
    119          1           0       -8.913883   -1.461676    0.976650
    120          1           0      -10.328203   -0.884483   -0.649228
    121          1           0      -10.774746    0.721878   -0.048455
    122          1           0      -11.514364   -1.590006    1.787642
    123          1           0      -11.940349   -1.842623    0.166520
    124          1           0      -12.633603    0.772612    1.361736
    125          1           0      -12.953225   -0.409181    3.200669
    126          1           0      -13.712653   -1.831092    2.396978
    127          1           0      -14.565970   -0.276658    2.466056
    128          1           0      -14.921752   -0.842344    0.290918
    129          1           0      -13.592686   -1.097875   -0.770693
    130          1           0      -13.905996    0.998876   -1.746343
    131          1           0      -13.797553    1.844682   -0.255327
    132          1           0      -16.349085    0.271647   -0.545488
    133          1           0      -15.975868    1.677814   -1.717262
    134          1           0      -15.572773    1.943277    1.227824
    135          1           0      -17.719025    1.896587    1.825807
    136          1           0      -18.174759    0.940978    0.400867
    137          1           0      -18.407729    2.705639    0.438571
    138          1           0      -15.517015    3.847063   -0.897840
    139          1           0      -15.548800    4.074963    0.900568
    140          1           0      -16.988462    4.274392   -0.088740
 ---------------------------------------------------------------------

 SCF Done:  E(RwB97XD) =  -3007.84241490     A.U. after   20 cycles

 Excitation energies and oscillator strengths:

 Excited State   1:      Singlet-A      1.5780 eV  785.70 nm  f=0.3809  <S**2>=0.000
     245 -> 248        0.17269
     246 -> 247        0.68746
     245 <- 248        0.11702
 This state for optimization and/or second-order correction.
 Total Energy, E(TD-HF/TD-DFT) =  -3007.78442393
 Copying the excited state density for this state as the 1-particle RhoCI density.

 Excited State   2:      Singlet-A      2.1982 eV  564.03 nm  f=0.0806  <S**2>=0.000
     245 -> 247        0.62086
     246 -> 248       -0.32594

 Excited State   3:      Singlet-A      3.4531 eV  359.05 nm  f=0.0511  <S**2>=0.000
     241 -> 247       -0.21816
     242 -> 247        0.11888
     243 -> 247        0.58415
     246 -> 248        0.20624

 Excited State   4:      Singlet-A      3.4692 eV  357.39 nm  f=0.1862  <S**2>=0.000
     240 -> 247        0.39813
     240 -> 249        0.31407
     240 -> 250       -0.12241
     243 -> 247       -0.22303
     245 -> 247        0.17299
     246 -> 248        0.33000

 Excited State   5:      Singlet-A      3.4945 eV  354.80 nm  f=0.2912  <S**2>=0.000
     240 -> 247       -0.24061
     240 -> 249       -0.25334
     240 -> 250        0.10038
     241 -> 247       -0.25683
     242 -> 247        0.13905
     242 -> 249        0.10228
     243 -> 247       -0.18087
     245 -> 247        0.19927
     246 -> 248        0.41188

 The electronic state is 1-A.
 Alpha  occ. eigenvalues --  -46.95237 -19.30263 -19.29597 -19.24929 -19.24848
 Alpha  occ. eigenvalues --  -19.24801 -19.23534 -14.47947 -14.47172 -14.45317
 Alpha  occ. eigenvalues --  -14.44651 -10.43314 -10.43196 -10.40544 -10.38803
 Alpha  occ. eigenvalues --  -10.36378 -10.36277 -10.36118 -10.35933 -10.35673
 Alpha  occ. eigenvalues --  -10.35386 -10.34936 -10.34759 -10.34698 -10.33312
 Alpha  occ. eigenvalues --  -10.33199 -10.33059 -10.33050 -10.32988 -10.32854
 Alpha  occ. eigenvalues --  -10.32835 -10.32605 -10.32459 -10.32224 -10.32101
 Alpha  occ. eigenvalues --  -10.31902 -10.31504 -10.31463 -10.31391 -10.31389
 Alpha  occ. eigenvalues --  -10.31185 -10.31007 -10.30736 -10.30455 -10.30391
 Alpha  occ. eigenvalues --  -10.30202 -10.30194 -10.29897 -10.29892 -10.29861
 Alpha  occ. eigenvalues --  -10.29761 -10.29656 -10.29196 -10.29172 -10.29150
 Alpha  occ. eigenvalues --  -10.28661 -10.28596 -10.28491 -10.28440 -10.28362
 Alpha  occ. eigenvalues --  -10.28250 -10.28232 -10.27982 -10.27969 -10.27637
 Alpha  occ. eigenvalues --  -10.27248  -3.21237  -1.94825  -1.94342  -1.94241
 Alpha  occ. eigenvalues --   -1.17891  -1.16391  -1.12487  -1.10200  -1.09337
 Alpha  occ. eigenvalues --   -1.08223  -1.06313  -1.05550  -1.04981  -1.03151
 Alpha  occ. eigenvalues --   -0.95075  -0.92287  -0.92051  -0.91721  -0.91569
 Alpha  occ. eigenvalues --   -0.90603  -0.90250  -0.89276  -0.89112  -0.88440
 Alpha  occ. eigenvalues --   -0.87999  -0.87163  -0.86391  -0.85905  -0.85652
 Alpha  occ. eigenvalues --   -0.84663  -0.84138  -0.83372  -0.82742  -0.82494
 Alpha  occ. eigenvalues --   -0.81665  -0.80146  -0.80056  -0.79187  -0.78678
 Alpha  occ. eigenvalues --   -0.77676  -0.77490  -0.76859  -0.76500  -0.75659
 Alpha  occ. eigenvalues --   -0.75476  -0.74374  -0.74247  -0.72868  -0.71701
 Alpha  occ. eigenvalues --   -0.71124  -0.70139  -0.69796  -0.68326  -0.68195
 Alpha  occ. eigenvalues --   -0.67442  -0.67278  -0.67222  -0.66666  -0.65745
 Alpha  occ. eigenvalues --   -0.65284  -0.65090  -0.64798  -0.64086  -0.62210
 Alpha  occ. eigenvalues --   -0.61636  -0.61588  -0.61095  -0.60863  -0.60037
 Alpha  occ. eigenvalues --   -0.59102  -0.58656  -0.58445  -0.57722  -0.57382
 Alpha  occ. eigenvalues --   -0.57005  -0.56592  -0.56409  -0.56019  -0.55933
 Alpha  occ. eigenvalues --   -0.55747  -0.55256  -0.55220  -0.55104  -0.55000
 Alpha  occ. eigenvalues --   -0.54699  -0.54558  -0.53640  -0.53626  -0.53482
 Alpha  occ. eigenvalues --   -0.53359  -0.52942  -0.52806  -0.52652  -0.52329
 Alpha  occ. eigenvalues --   -0.52218  -0.52062  -0.51979  -0.51702  -0.51514
 Alpha  occ. eigenvalues --   -0.51313  -0.50985  -0.50901  -0.50731  -0.50548
 Alpha  occ. eigenvalues --   -0.50278  -0.50169  -0.49984  -0.49809  -0.49624
 Alpha  occ. eigenvalues --   -0.49461  -0.49369  -0.49163  -0.49080  -0.48783
 Alpha  occ. eigenvalues --   -0.48576  -0.48524  -0.48202  -0.47977  -0.47828
 Alpha  occ. eigenvalues --   -0.47647  -0.47407  -0.47231  -0.47015  -0.46669
 Alpha  occ. eigenvalues --   -0.46332  -0.46285  -0.46143  -0.46076  -0.45809
 Alpha  occ. eigenvalues --   -0.45767  -0.45578  -0.45360  -0.45015  -0.44963
 Alpha  occ. eigenvalues --   -0.44886  -0.44727  -0.44630  -0.44546  -0.44396
 Alpha  occ. eigenvalues --   -0.44133  -0.44058  -0.43792  -0.43441  -0.43241
 Alpha  occ. eigenvalues --   -0.43172  -0.42677  -0.42584  -0.42366  -0.42303
 Alpha  occ. eigenvalues --   -0.41921  -0.41798  -0.41394  -0.40725  -0.40694
 Alpha  occ. eigenvalues --   -0.40229  -0.40127  -0.40033  -0.39698  -0.39459
 Alpha  occ. eigenvalues --   -0.39403  -0.39340  -0.38867  -0.38311  -0.38051
 Alpha  occ. eigenvalues --   -0.37935  -0.37315  -0.37107  -0.36815  -0.36654
 Alpha  occ. eigenvalues --   -0.35943  -0.35646  -0.34795  -0.34026  -0.33224
 Alpha  occ. eigenvalues --   -0.32949  -0.32836  -0.32650  -0.32337  -0.26905
 Alpha  occ. eigenvalues --   -0.23186
 Alpha virt. eigenvalues --   -0.07641  -0.00464   0.01634   0.03732   0.05479
 Alpha virt. eigenvalues --    0.05887   0.06603   0.06662   0.07076   0.09367
 Alpha virt. eigenvalues --    0.09976   0.10891   0.11567   0.12120   0.12306

 Mulliken charges:
               1
     1  Mg   0.974083
     2  C   -0.041272
     3  C   -0.091653
     4  C   -0.088504
     5  C   -0.094399
     6  N   -0.425281
     7  C   -0.025384
     8  C   -0.055048
     9  C   -0.134506
    10  C    0.107484
    11  C    0.007931
    12  C    0.078760
    13  C    0.006979
    14  C    0.200647
    15  O   -0.294117
    16  O   -0.382851
    17  N   -0.429340
    18  C    0.184117
    19  C   -0.180445
    20  C   -0.072963
    21  C    0.193193
    22  C    0.099905
    23  C   -0.004968
    24  O   -0.236355
    25  C    0.015906
    26  N   -0.394973
    27  C    0.048085
    28  C   -0.057833
    29  C   -0.083338
    30  C    0.041632
    31  C    0.004152
    32  C   -0.019209
    33  C   -0.049191
    34  N   -0.428829
    35  C    0.142419
    36  C   -0.206784
    37  C   -0.028214
    38  C    0.171978
    39  C    0.080860
    40  C    0.158595
    41  O   -0.237463
    42  C   -0.054620
    43  C    0.260449
    44  O   -0.244765
    45  O   -0.375461
    46  C    0.134893
    47  C    0.249540
    48  C   -0.158020
    49  C   -0.119893
    50  C    0.023740
    51  C    0.027530
    52  C   -0.041111
    53  C   -0.023242
    54  C   -0.157548
    55  C    0.002782
    56  C   -0.032587
    57  C    0.012990
    58  C    0.030563
    59  C   -0.217964
    60  C    0.001562
    61  C    0.047840
    62  C   -0.039345
    63  C    0.012183
    64  C   -0.235243
    65  C   -0.014537
    66  C   -0.001688
    67  H    0.010884
    68  H   -0.024841
    69  H   -0.008125
    70  H    0.056313
    71  H    0.044595
    72  H    0.041118
    73  H    0.054030
    74  H    0.031660
    75  H    0.041137
    76  H    0.050826
    77  H    0.066955
    78  H    0.061672
    79  H    0.008475
    80  H    0.064529
    81  H    0.056991
    82  H    0.057015
    83  H    0.071726
    84  H    0.054249
    85  H    0.048172
    86  H    0.042275
    87  H    0.037157
    88  H    0.046970
    89  H    0.036945
    90  H    0.045873
    91  H    0.026632
    92  H    0.046162
    93  H    0.026326
    94  H    0.037841
    95  H    0.064114
    96  H    0.036047
    97  H    0.060272
    98  H    0.066257
    99  H    0.037029
   100  H    0.065959
   101  H    0.059614
   102  H    0.039706
   103  H    0.049474
   104  H    0.026802
   105  H    0.032785
   106  H    0.045140
   107  H    0.040189
   108  H    0.025020
   109  H    0.004473
   110  H    0.030853
   111  H    0.020558
   112  H    0.009072
   113  H    0.022645
   114  H    0.018119
   115  H    0.022895
   116  H    0.024965
   117  H    0.026853
   118  H    0.023769
   119  H    0.015074
   120  H    0.020061
   121  H    0.031251
   122  H    0.008232
   123  H   -0.003188
   124  H    0.010780
   125  H    0.026861
   126  H    0.029919
   127  H    0.017786
   128  H    0.009426
   129  H    0.014587
   130  H    0.014538
   131  H    0.019879
   132  H    0.024134
   133  H    0.019618
   134  H    0.031191
   135  H    0.024486
   136  H    0.034526
   137  H    0.028944
   138  H    0.029062
   139  H    0.030700
   140  H    0.034110
 Sum of Mulliken charges =  -0.00000

 Dipole moment (field-independent basis, Debye):
    X=              1.7011    Y=              6.7758    Z=              1.9706  Tot=              7.2587
 Quadrupole moment (field-independent basis, Debye-Ang):
   XX=           -361.4421   YY=           -435.1567   ZZ=           -409.4700
   XY=             22.2793   XZ=              9.0863   YZ=             32.4086

 Normal termination of Gaussian 16 at Tue May  3 19:45:21 2022.
