 Gaussian 16, Revision A.03,
 Gaussian 16:  ES64L-G16RevA.03 25-Dec-2016

 --------------------
 #p ZINDO=(nstates=5)
 --------------------

 -----------------------------
 step_101_chromophore_14 ZINDO
 -----------------------------
 Symbolic Z-matrix:
 Charge =  0 Multiplicity = 1

                         Standard orientation:
 ---------------------------------------------------------------------
 Center     Atomic      Atomic             Coordinates (Angstroms)
 Number     Number       Type             X           Y           Z
 ---------------------------------------------------------------------
      1         12           0        5.543160    0.793967   -0.117714
      2          6           0        4.542233   -2.544909    0.498079
      3          6           0        4.442206    0.578260   -3.396496
      4          6           0        5.842645    4.129026   -0.362489
      5          6           0        6.393832    0.954445    3.290663
      6          7           0        4.539542   -0.706920   -1.221047
      7          6           0        4.192197   -2.043718   -0.783846
      8          6           0        3.358289   -2.806074   -1.861304
      9          6           0        3.629265   -1.894014   -3.138714
     10          6           0        4.315419   -0.561890   -2.583287
     11          6           0        4.445390   -2.483898   -4.403484
     12          6           0        1.931801   -2.669312   -1.459134
     13          6           0        1.157809   -4.006453   -1.407173
     14          6           0       -0.199618   -4.174904   -2.041705
     15          8           0       -0.500002   -4.909095   -3.023761
     16          8           0       -1.074874   -3.291218   -1.409398
     17          7           0        5.359647    2.145134   -1.749349
     18          6           0        4.936900    1.840302   -2.993586
     19          6           0        4.714978    3.058173   -3.739247
     20          6           0        5.067159    4.169231   -2.915286
     21          6           0        5.521340    3.488880   -1.589083
     22          6           0        4.232123    3.125041   -5.189473
     23          6           0        5.066973    5.603811   -3.309044
     24          8           0        4.750647    5.870664   -4.456260
     25          6           0        5.445408    6.712041   -2.366640
     26          7           0        5.814918    2.339515    1.287639
     27          6           0        5.935812    3.656787    0.942466
     28          6           0        6.278816    4.535159    2.154166
     29          6           0        6.765038    3.483584    3.176384
     30          6           0        6.319617    2.172807    2.583827
     31          6           0        7.308025    5.736802    1.948523
     32          6           0        6.282435    3.753363    4.670511
     33          6           0        7.317244    3.889980    5.771899
     34          7           0        5.569679   -0.483685    1.556519
     35          6           0        5.980052   -0.349383    2.896175
     36          6           0        5.813724   -1.604985    3.636629
     37          6           0        5.215642   -2.469949    2.738807
     38          6           0        5.108460   -1.769611    1.499300
     39          6           0        5.998938   -1.836947    5.184053
     40          6           0        4.683751   -3.843000    2.546426
     41          8           0        4.691710   -4.884069    3.267899
     42          6           0        4.275809   -3.945428    0.997710
     43          6           0        5.060735   -4.983216    0.327856
     44          8           0        4.620278   -6.046361   -0.094705
     45          8           0        6.401441   -4.631377    0.163071
     46          6           0        7.175219   -5.642401   -0.577270
     47          6           0       -2.504535   -3.448993   -1.761012
     48          6           0       -3.358109   -2.567337   -0.841276
     49          6           0       -3.621679   -1.225738   -0.841310
     50          6           0       -3.104004   -0.255717   -1.942229
     51          6           0       -4.447238   -0.622239    0.233758
     52          6           0       -5.824216   -0.053906   -0.039262
     53          6           0       -6.792455   -0.227718    1.161006
     54          6           0       -8.212784    0.484494    0.939487
     55          6           0       -8.323272    1.815720    1.754442
     56          6           0       -9.361121   -0.496331    1.210207
     57          6           0      -10.573436   -0.309041    0.242900
     58          6           0      -11.707101   -1.040777    0.866626
     59          6           0      -12.972061   -0.233952    1.118604
     60          6           0      -13.587284   -0.747511    2.381049
     61          6           0      -14.011375   -0.368717   -0.076833
     62          6           0      -14.303233    1.004765   -0.730711
     63          6           0      -15.849707    1.220531   -0.735340
     64          6           0      -16.218822    2.178646    0.381186
     65          6           0      -17.752560    1.888091    0.737085
     66          6           0      -16.074958    3.692201    0.025931
     67          1           0        4.011003    0.468331   -4.393981
     68          1           0        5.971803    5.212695   -0.359533
     69          1           0        6.820283    1.129501    4.281013
     70          1           0        3.866166   -3.770125   -1.896388
     71          1           0        2.674446   -1.658399   -3.608268
     72          1           0        3.942860   -2.209084   -5.331160
     73          1           0        4.675974   -3.541831   -4.277583
     74          1           0        5.370673   -1.910792   -4.470053
     75          1           0        1.403034   -1.954544   -2.089183
     76          1           0        1.861155   -2.203630   -0.475924
     77          1           0        1.029381   -4.268138   -0.356754
     78          1           0        1.567680   -4.840264   -1.977246
     79          1           0        3.997221    2.124733   -5.552967
     80          1           0        4.985584    3.555732   -5.849237
     81          1           0        3.310422    3.696669   -5.291807
     82          1           0        6.479070    6.457903   -2.130459
     83          1           0        4.770428    6.672760   -1.511320
     84          1           0        5.484401    7.663386   -2.896742
     85          1           0        5.345571    4.951633    2.531611
     86          1           0        7.851045    3.432499    3.100921
     87          1           0        6.833219    6.711280    1.829713
     88          1           0        8.004507    5.575135    1.125678
     89          1           0        7.920630    5.929496    2.828995
     90          1           0        5.611378    2.976025    5.037673
     91          1           0        5.723837    4.680824    4.546389
     92          1           0        7.246002    4.800448    6.367068
     93          1           0        8.304861    3.846303    5.311584
     94          1           0        7.274366    3.025357    6.433804
     95          1           0        5.197353   -2.411972    5.645884
     96          1           0        6.069233   -0.795761    5.501382
     97          1           0        6.909882   -2.422902    5.311064
     98          1           0        3.237710   -4.279821    1.003142
     99          1           0        7.174009   -5.320897   -1.619004
    100          1           0        6.838216   -6.671533   -0.700808
    101          1           0        8.178538   -5.697152   -0.156262
    102          1           0       -2.772181   -4.488506   -1.571541
    103          1           0       -2.622916   -3.269051   -2.829883
    104          1           0       -3.857959   -3.190214   -0.099496
    105          1           0       -2.586013    0.609163   -1.528476
    106          1           0       -3.863192    0.254278   -2.533607
    107          1           0       -2.420111   -0.803670   -2.590127
    108          1           0       -3.945733    0.142269    0.827252
    109          1           0       -4.578205   -1.350484    1.033647
    110          1           0       -6.310137   -0.436926   -0.936746
    111          1           0       -5.599929    1.008582   -0.136315
    112          1           0       -6.234095    0.229407    1.977893
    113          1           0       -6.887787   -1.278769    1.432555
    114          1           0       -8.275678    0.804776   -0.100348
    115          1           0       -7.507840    1.955331    2.464460
    116          1           0       -9.265987    1.846561    2.300062
    117          1           0       -8.263905    2.687555    1.104074
    118          1           0       -9.494103   -0.527309    2.292285
    119          1           0       -8.913883   -1.461676    0.976650
    120          1           0      -10.328203   -0.884483   -0.649228
    121          1           0      -10.774746    0.721878   -0.048455
    122          1           0      -11.514364   -1.590006    1.787642
    123          1           0      -11.940349   -1.842623    0.166520
    124          1           0      -12.633603    0.772612    1.361736
    125          1           0      -12.953225   -0.409181    3.200669
    126          1           0      -13.712653   -1.831092    2.396978
    127          1           0      -14.565970   -0.276658    2.466056
    128          1           0      -14.921752   -0.842344    0.290918
    129          1           0      -13.592686   -1.097875   -0.770693
    130          1           0      -13.905996    0.998876   -1.746343
    131          1           0      -13.797553    1.844682   -0.255327
    132          1           0      -16.349085    0.271647   -0.545488
    133          1           0      -15.975868    1.677814   -1.717262
    134          1           0      -15.572773    1.943277    1.227824
    135          1           0      -17.719025    1.896587    1.825807
    136          1           0      -18.174759    0.940978    0.400867
    137          1           0      -18.407729    2.705639    0.438571
    138          1           0      -15.517015    3.847063   -0.897840
    139          1           0      -15.548800    4.074963    0.900568
    140          1           0      -16.988462    4.274392   -0.088740
 ---------------------------------------------------------------------

 SCF Done:  E(RZINDO/S) =  -473.848538728     A.U. after   20 cycles

 Excitation energies and oscillator strengths:

 Excited State   1:      Singlet-A      1.1983 eV 1034.66 nm  f=0.6109  <S**2>=0.000
     175 ->178         0.17819
     176 ->177         0.66679
 This state for optimization and/or second-order correction.
 Total Energy, E(CIS/TDA) =  -473.804501555
 Copying the excited state density for this state as the 1-particle RhoCI density.

 Excited State   2:      Singlet-A      1.9018 eV  651.94 nm  f=0.0143  <S**2>=0.000
     175 ->177         0.51364
     176 ->178        -0.46180

 Excited State   3:      Singlet-A      2.8609 eV  433.37 nm  f=0.1252  <S**2>=0.000
     175 ->177        -0.15936
     176 ->178        -0.19273
     176 ->179         0.59453
     176 ->183         0.11112

 Excited State   4:      Singlet-A      2.9219 eV  424.33 nm  f=0.0688  <S**2>=0.000
     168 ->177         0.26352
     168 ->178        -0.12154
     168 ->179         0.41498
     168 ->180        -0.24254
     168 ->185         0.17146
     168 ->187         0.10826
     169 ->177        -0.12079
     169 ->179        -0.11056
     169 ->180         0.11253
     175 ->177         0.11177
     176 ->178         0.13443

 Excited State   5:      Singlet-A      2.9422 eV  421.40 nm  f=0.0179  <S**2>=0.000
     168 ->177         0.11155
     168 ->180        -0.13188
     169 ->177         0.28803
     169 ->178        -0.13789
     169 ->179        -0.29897
     169 ->180        -0.34410
     169 ->183         0.10375
     169 ->185        -0.20031
     169 ->187         0.13486
     169 ->193         0.11479

 The electronic state is 1-A.
 Alpha  occ. eigenvalues --   -1.82381  -1.80474  -1.78580  -1.71541  -1.70932
 Alpha  occ. eigenvalues --   -1.68484  -1.66667  -1.60850  -1.60773  -1.56160
 Alpha  occ. eigenvalues --   -1.55836  -1.50487  -1.48478  -1.46701  -1.45725
 Alpha  occ. eigenvalues --   -1.44551  -1.43345  -1.39732  -1.38040  -1.37643
 Alpha  occ. eigenvalues --   -1.35038  -1.33122  -1.32002  -1.30761  -1.28744
 Alpha  occ. eigenvalues --   -1.28207  -1.27333  -1.23588  -1.21058  -1.17803
 Alpha  occ. eigenvalues --   -1.16779  -1.15185  -1.14636  -1.14247  -1.12820
 Alpha  occ. eigenvalues --   -1.12634  -1.09949  -1.09374  -1.06353  -1.04601
 Alpha  occ. eigenvalues --   -1.02463  -1.01724  -0.98971  -0.98105  -0.97179
 Alpha  occ. eigenvalues --   -0.95574  -0.95209  -0.94849  -0.93471  -0.92939
 Alpha  occ. eigenvalues --   -0.91391  -0.90802  -0.88947  -0.88257  -0.86461
 Alpha  occ. eigenvalues --   -0.85709  -0.84386  -0.84133  -0.83710  -0.81245
 Alpha  occ. eigenvalues --   -0.79371  -0.79263  -0.77935  -0.77344  -0.76691
 Alpha  occ. eigenvalues --   -0.76516  -0.75258  -0.74404  -0.74154  -0.73992
 Alpha  occ. eigenvalues --   -0.72555  -0.72171  -0.71519  -0.70886  -0.70205
 Alpha  occ. eigenvalues --   -0.69917  -0.69276  -0.68801  -0.68300  -0.67820
 Alpha  occ. eigenvalues --   -0.67462  -0.66783  -0.66439  -0.66027  -0.65807
 Alpha  occ. eigenvalues --   -0.65167  -0.64994  -0.64048  -0.63587  -0.63496
 Alpha  occ. eigenvalues --   -0.63252  -0.63087  -0.62692  -0.62246  -0.62237
 Alpha  occ. eigenvalues --   -0.61897  -0.61527  -0.61062  -0.60977  -0.60228
 Alpha  occ. eigenvalues --   -0.59834  -0.59545  -0.59218  -0.59095  -0.58547
 Alpha  occ. eigenvalues --   -0.57773  -0.57323  -0.57291  -0.57193  -0.56485
 Alpha  occ. eigenvalues --   -0.56129  -0.55923  -0.55793  -0.55484  -0.54828
 Alpha  occ. eigenvalues --   -0.54467  -0.54023  -0.53887  -0.53685  -0.53110
 Alpha  occ. eigenvalues --   -0.52923  -0.52705  -0.52570  -0.52480  -0.52228
 Alpha  occ. eigenvalues --   -0.52026  -0.51069  -0.50624  -0.50512  -0.50370
 Alpha  occ. eigenvalues --   -0.50325  -0.49937  -0.49635  -0.49616  -0.49338
 Alpha  occ. eigenvalues --   -0.48704  -0.48486  -0.48244  -0.48138  -0.47627
 Alpha  occ. eigenvalues --   -0.47485  -0.47175  -0.46992  -0.46864  -0.46492
 Alpha  occ. eigenvalues --   -0.46260  -0.46178  -0.46061  -0.45970  -0.45602
 Alpha  occ. eigenvalues --   -0.45194  -0.45156  -0.44908  -0.44277  -0.44162
 Alpha  occ. eigenvalues --   -0.43701  -0.43551  -0.43130  -0.42622  -0.42444
 Alpha  occ. eigenvalues --   -0.42005  -0.41820  -0.40037  -0.39635  -0.39197
 Alpha  occ. eigenvalues --   -0.38579  -0.38316  -0.35787  -0.35637  -0.35332
 Alpha  occ. eigenvalues --   -0.34019  -0.33525  -0.33061  -0.32831  -0.27664
 Alpha  occ. eigenvalues --   -0.22052
 Alpha virt. eigenvalues --   -0.09133  -0.02882  -0.01321   0.00433   0.01102
 Alpha virt. eigenvalues --    0.01651   0.01980   0.02434   0.04072   0.04169
 Alpha virt. eigenvalues --    0.05415   0.06148   0.06573   0.06834   0.07585

 Mulliken charges:
               1
     1  Mg   0.426577
     2  C   -0.035517
     3  C   -0.068696
     4  C   -0.087998
     5  C   -0.065747
     6  N   -0.294135
     7  C    0.093772
     8  C    0.013211
     9  C   -0.014300
    10  C    0.137592
    11  C   -0.058612
    12  C    0.002546
    13  C   -0.004956
    14  C    0.463871
    15  O   -0.520523
    16  O   -0.277761
    17  N   -0.303361
    18  C    0.128503
    19  C    0.049238
    20  C   -0.062397
    21  C    0.129056
    22  C   -0.034849
    23  C    0.332670
    24  O   -0.527762
    25  C   -0.027408
    26  N   -0.282097
    27  C    0.150807
    28  C    0.006563
    29  C    0.005916
    30  C    0.104810
    31  C   -0.057359
    32  C   -0.031535
    33  C   -0.054593
    34  N   -0.330422
    35  C    0.086982
    36  C    0.014371
    37  C   -0.046108
    38  C    0.111448
    39  C   -0.045297
    40  C    0.319436
    41  O   -0.519980
    42  C    0.060050
    43  C    0.492293
    44  O   -0.520467
    45  O   -0.268278
    46  C    0.073554
    47  C    0.105481
    48  C   -0.087898
    49  C    0.010231
    50  C   -0.047118
    51  C   -0.017432
    52  C   -0.027412
    53  C   -0.042131
    54  C   -0.020805
    55  C   -0.059985
    56  C   -0.035627
    57  C   -0.027181
    58  C   -0.033885
    59  C   -0.019476
    60  C   -0.053392
    61  C   -0.037098
    62  C   -0.043856
    63  C   -0.038273
    64  C   -0.012101
    65  C   -0.070743
    66  C   -0.058814
    67  H    0.038762
    68  H    0.021014
    69  H    0.021177
    70  H    0.053682
    71  H    0.029514
    72  H    0.027211
    73  H    0.033929
    74  H    0.017102
    75  H    0.030813
    76  H    0.026366
    77  H    0.045964
    78  H    0.046572
    79  H    0.013332
    80  H    0.043657
    81  H    0.040706
    82  H    0.036607
    83  H    0.045007
    84  H    0.041532
    85  H    0.037115
    86  H    0.034846
    87  H    0.018378
    88  H    0.025875
    89  H    0.017667
    90  H    0.026788
    91  H    0.017033
    92  H    0.025064
    93  H    0.014996
    94  H    0.019283
    95  H    0.041836
    96  H    0.027740
    97  H    0.037497
    98  H    0.057447
    99  H    0.027579
   100  H    0.055403
   101  H    0.034317
   102  H    0.041342
   103  H    0.050560
   104  H    0.026211
   105  H    0.022159
   106  H    0.030744
   107  H    0.023562
   108  H    0.022025
   109  H    0.007877
   110  H    0.023332
   111  H    0.015859
   112  H    0.014577
   113  H    0.023876
   114  H    0.017609
   115  H    0.018363
   116  H    0.018201
   117  H    0.014808
   118  H    0.028833
   119  H    0.010915
   120  H    0.016797
   121  H    0.030673
   122  H    0.019474
   123  H    0.006728
   124  H    0.023744
   125  H    0.012285
   126  H    0.021795
   127  H    0.007427
   128  H    0.022821
   129  H    0.019305
   130  H    0.009850
   131  H    0.023928
   132  H    0.031008
   133  H    0.022528
   134  H    0.027861
   135  H    0.010131
   136  H    0.025099
   137  H    0.021339
   138  H    0.019575
   139  H    0.015471
   140  H    0.023906
 Sum of Mulliken charges =  -0.00000

 Dipole moment (field-independent basis, Debye):
    X=              2.1091    Y=              9.1688    Z=              2.1481  Tot=              9.6504
 N-N= 4.226979081827D+03 E-N= 0.000000000000D+00  KE=-9.127106310312D+03
 Leave Link  601 at Tue May  3 19:58:36 2022, MaxMem=  6710886400 cpu:               1.2 elap:               0.1
 (Enter /sw/apps/gaussian-16.0/g16/l9999.exe)
 1\1\GINC-BP1-COMPUTE174\SP\RZINDO CIS\STO-3G\C55H74Mg1N4O6\OF15641\03-
 May-2022\0\\#p ZINDO=(nstates=5)\\step_101_chromophore_14 ZINDO\\0,1\M
 g,0,46.631,44.883,44.835\C,0,43.185,44.778,44.033\C,0,46.93,41.482,44.
 241\C,0,49.969,45.239,44.892\C,0,46.241,48.362,45.168\N,0,45.292,43.40
 5,44.128\C,0,43.882,43.557,43.832\C,0,43.274,42.252,43.228\C,0,44.409,
 41.2,43.605\C,0,45.66,42.067,44.092\C,0,44.096,39.999,44.641\C,0,43.25
 8,42.443,41.752\C,0,41.891,42.153,41.091\C,0,41.76,41.295,39.858\O,0,4

 Normal termination of Gaussian 16 at Tue May  3 19:58:36 2022.
