 Gaussian 16, Revision A.03,
 Gaussian 16:  ES64L-G16RevA.03 25-Dec-2016

 ------------------------------
 #p blyp/Def2SVP td=(nstates=5)
 ------------------------------

 --------------------------------------------------
 step_851_chromophore_25 TDDFT with blyp functional
 --------------------------------------------------
 Symbolic Z-matrix:
 Charge =  0 Multiplicity = 1

                         Standard orientation:
 ---------------------------------------------------------------------
 Center     Atomic      Atomic             Coordinates (Angstroms)
 Number     Number       Type             X           Y           Z
 ---------------------------------------------------------------------
      1         12           0        5.786342    0.449569    0.556009
      2          6           0        3.367638   -2.064506   -0.042918
      3          6           0        3.388345    2.779114   -0.119985
      4          6           0        8.117847    2.699441   -0.253040
      5          6           0        8.204229   -2.006431    0.739135
      6          7           0        3.567588    0.339787    0.074417
      7          6           0        2.833478   -0.780764   -0.101141
      8          6           0        1.388074   -0.425229   -0.261302
      9          6           0        1.423132    1.183706   -0.397212
     10          6           0        2.883237    1.491798   -0.180159
     11          6           0        0.832746    1.616244   -1.822997
     12          6           0        0.544232   -0.824600    0.996324
     13          6           0       -0.616989   -1.756104    0.818026
     14          6           0       -1.942053   -1.213900    1.295395
     15          8           0       -2.320623   -1.245618    2.498619
     16          8           0       -2.672300   -0.606350    0.274000
     17          7           0        5.763001    2.527482    0.255039
     18          6           0        4.679812    3.249966   -0.070720
     19          6           0        5.077437    4.622226   -0.246874
     20          6           0        6.508492    4.643167   -0.340726
     21          6           0        6.856041    3.266043   -0.130367
     22          6           0        4.080439    5.853372   -0.395364
     23          6           0        7.436112    5.806730   -0.608846
     24          8           0        8.664373    5.670142   -0.647120
     25          6           0        6.790542    7.048348   -1.081689
     26          7           0        7.864201    0.353731    0.336776
     27          6           0        8.609311    1.447753   -0.040870
     28          6           0       10.123788    0.951630   -0.254471
     29          6           0       10.199319   -0.372138    0.524557
     30          6           0        8.669929   -0.709834    0.522609
     31          6           0       10.440643    0.848676   -1.761685
     32          6           0       10.647355   -0.317246    2.052220
     33          6           0       11.779598   -1.222820    2.452449
     34          7           0        5.818238   -1.642677    0.567318
     35          6           0        6.874735   -2.478186    0.713517
     36          6           0        6.396721   -3.858290    0.626763
     37          6           0        5.029550   -3.752176    0.358203
     38          6           0        4.733450   -2.358592    0.256707
     39          6           0        7.208874   -5.114242    0.823023
     40          6           0        3.857084   -4.547005    0.163490
     41          8           0        3.696842   -5.773413    0.155120
     42          6           0        2.674192   -3.510713   -0.097395
     43          6           0        1.926668   -3.774453   -1.351200
     44          8           0        2.267587   -3.525610   -2.533900
     45          8           0        0.714384   -4.485168   -0.968553
     46          6           0       -0.158855   -4.802474   -2.049814
     47          6           0       -3.982069   -0.031727    0.639341
     48          6           0       -5.010345   -0.465549   -0.426769
     49          6           0       -5.893544   -1.497755   -0.366760
     50          6           0       -6.341509   -2.129469    0.950489
     51          6           0       -6.475195   -2.089436   -1.585026
     52          6           0       -7.987038   -1.804967   -1.956316
     53          6           0       -8.578439   -0.487791   -1.345597
     54          6           0       -9.042104    0.397816   -2.609336
     55          6           0       -7.923318    1.489423   -2.857861
     56          6           0      -10.372054    1.103613   -2.175824
     57          6           0      -11.616442    0.194508   -2.366144
     58          6           0      -12.933936    0.917408   -1.889536
     59          6           0      -13.292105    0.403555   -0.431888
     60          6           0      -14.401224   -0.681707   -0.419319
     61          6           0      -13.737172    1.678788    0.391784
     62          6           0      -13.590745    1.505902    1.890573
     63          6           0      -12.609605    2.563689    2.346462
     64          6           0      -11.594225    1.973094    3.374362
     65          6           0      -10.690624    0.943217    2.673114
     66          6           0      -12.108422    1.488887    4.731897
     67          1           0        2.568067    3.496399   -0.189228
     68          1           0        8.969126    3.331204   -0.514656
     69          1           0        8.973788   -2.781080    0.730295
     70          1           0        1.035472   -0.965228   -1.140516
     71          1           0        0.984849    1.658682    0.480345
     72          1           0        0.897579    0.694595   -2.400572
     73          1           0        1.522786    2.330812   -2.271467
     74          1           0       -0.177951    2.019702   -1.760483
     75          1           0        0.183619    0.073048    1.499086
     76          1           0        1.209438   -1.305812    1.712809
     77          1           0       -0.421592   -2.688644    1.346890
     78          1           0       -0.684896   -2.001483   -0.241762
     79          1           0        4.237969    6.602888    0.380258
     80          1           0        3.066355    5.486045   -0.236047
     81          1           0        4.045407    6.225099   -1.418766
     82          1           0        6.054391    6.799711   -1.846803
     83          1           0        7.534536    7.692526   -1.549608
     84          1           0        6.238885    7.555846   -0.290520
     85          1           0       10.850847    1.635021    0.183788
     86          1           0       10.832371   -1.140521    0.081233
     87          1           0       10.970238    1.652692   -2.272927
     88          1           0        9.491196    0.704926   -2.277893
     89          1           0       11.063436   -0.037034   -1.893258
     90          1           0        9.860027   -0.664834    2.722363
     91          1           0       10.836006    0.726705    2.302249
     92          1           0       11.455325   -2.154718    2.915742
     93          1           0       12.467383   -0.677208    3.099323
     94          1           0       12.327342   -1.542564    1.566204
     95          1           0        7.719006   -5.111489    1.786566
     96          1           0        7.897972   -5.273314   -0.006923
     97          1           0        6.452615   -5.897096    0.772330
     98          1           0        2.011168   -3.602383    0.762916
     99          1           0        0.443840   -5.102367   -2.906984
    100          1           0       -0.970467   -4.086374   -2.178961
    101          1           0       -0.797907   -5.658082   -1.831963
    102          1           0       -4.000005    1.056735    0.693509
    103          1           0       -4.322854   -0.336716    1.629095
    104          1           0       -5.025308   -0.091149   -1.450442
    105          1           0       -5.879239   -1.621289    1.796318
    106          1           0       -6.031611   -3.175619    0.953810
    107          1           0       -7.429373   -2.089389    0.991750
    108          1           0       -6.491830   -3.162211   -1.391952
    109          1           0       -5.768375   -2.034802   -2.412229
    110          1           0       -8.747482   -2.544370   -1.704388
    111          1           0       -7.941357   -1.678615   -3.038092
    112          1           0       -7.802558    0.013443   -0.767066
    113          1           0       -9.311631   -0.777445   -0.593249
    114          1           0       -9.283136   -0.163029   -3.512664
    115          1           0       -8.373881    2.480966   -2.842756
    116          1           0       -7.414579    1.413100   -3.819015
    117          1           0       -7.110996    1.289199   -2.158204
    118          1           0      -10.613185    1.964290   -2.800177
    119          1           0      -10.230139    1.421821   -1.142128
    120          1           0      -11.511640   -0.725478   -1.791806
    121          1           0      -11.822546   -0.147460   -3.380444
    122          1           0      -13.777378    0.776095   -2.564319
    123          1           0      -12.774194    1.995447   -1.897784
    124          1           0      -12.420985    0.031665    0.106727
    125          1           0      -14.903228   -0.699064   -1.386122
    126          1           0      -15.140220   -0.449580    0.347260
    127          1           0      -13.992893   -1.687022   -0.321570
    128          1           0      -14.811473    1.756117    0.225720
    129          1           0      -13.270314    2.590015    0.018368
    130          1           0      -13.289374    0.497792    2.175879
    131          1           0      -14.470643    1.760125    2.481018
    132          1           0      -13.200338    3.189046    3.014931
    133          1           0      -12.149478    3.193029    1.584687
    134          1           0      -10.948478    2.832319    3.554610
    135          1           0      -10.667146    0.990542    1.584798
    136          1           0      -11.105393   -0.029957    2.935516
    137          1           0       -9.696547    0.951351    3.120420
    138          1           0      -13.196980    1.451091    4.736254
    139          1           0      -11.788738    2.058076    5.605005
    140          1           0      -11.872344    0.450251    4.965677
 ---------------------------------------------------------------------

 SCF Done:  E(RB-LYP) =  -3007.36950112     A.U. after   23 cycles

 Excitation energies and oscillator strengths:

 Excited State   1:      Singlet-A      1.8464 eV  671.49 nm  f=0.3187  <S**2>=0.000
     245 -> 248        0.17217
     246 -> 247        0.69015
     246 <- 247       -0.15159
 This state for optimization and/or second-order correction.
 Total Energy, E(TD-HF/TD-DFT) =  -3007.30164694
 Copying the excited state density for this state as the 1-particle RhoCI density.

 Excited State   2:      Singlet-A      2.0147 eV  615.39 nm  f=0.0164  <S**2>=0.000
     244 -> 247        0.61443
     245 -> 247        0.32886

 Excited State   3:      Singlet-A      2.0827 eV  595.31 nm  f=0.0608  <S**2>=0.000
     244 -> 247       -0.34732
     245 -> 247        0.55646
     246 -> 248       -0.21011

 Excited State   4:      Singlet-A      2.1436 eV  578.41 nm  f=0.0014  <S**2>=0.000
     243 -> 247        0.70264

 Excited State   5:      Singlet-A      2.3741 eV  522.24 nm  f=0.0003  <S**2>=0.000
     242 -> 247        0.70641

 The electronic state is 1-A.
 Alpha  occ. eigenvalues --  -46.27601 -18.82605 -18.81775 -18.78000 -18.76807
 Alpha  occ. eigenvalues --  -18.76395 -18.75893 -14.03254 -14.03175 -14.01251
 Alpha  occ. eigenvalues --  -14.01148 -10.04785 -10.04479 -10.00301 -10.00111
 Alpha  occ. eigenvalues --   -9.98315  -9.96790  -9.96656  -9.96582  -9.96440
 Alpha  occ. eigenvalues --   -9.96324  -9.95728  -9.95569  -9.95548  -9.95109
 Alpha  occ. eigenvalues --   -9.95066  -9.94559  -9.94373  -9.94304  -9.94296
 Alpha  occ. eigenvalues --   -9.94275  -9.94269  -9.93796  -9.93771  -9.93433
 Alpha  occ. eigenvalues --   -9.93382  -9.93245  -9.92951  -9.92683  -9.92677
 Alpha  occ. eigenvalues --   -9.92631  -9.92618  -9.92607  -9.92304  -9.92188
 Alpha  occ. eigenvalues --   -9.92127  -9.92084  -9.91989  -9.91968  -9.91944
 Alpha  occ. eigenvalues --   -9.91882  -9.91832  -9.91615  -9.91554  -9.91317
 Alpha  occ. eigenvalues --   -9.91299  -9.91242  -9.91117  -9.91058  -9.90967
 Alpha  occ. eigenvalues --   -9.90955  -9.90879  -9.90470  -9.90397  -9.90306
 Alpha  occ. eigenvalues --   -9.90249  -2.92207  -1.72643  -1.72070  -1.71929
 Alpha  occ. eigenvalues --   -0.96477  -0.95662  -0.91165  -0.91062  -0.89214
 Alpha  occ. eigenvalues --   -0.88373  -0.87271  -0.86717  -0.86243  -0.85550
 Alpha  occ. eigenvalues --   -0.75128  -0.73779  -0.73136  -0.72938  -0.72507
 Alpha  occ. eigenvalues --   -0.71985  -0.71611  -0.71174  -0.70270  -0.70246
 Alpha  occ. eigenvalues --   -0.70200  -0.69204  -0.68056  -0.67869  -0.67414
 Alpha  occ. eigenvalues --   -0.66411  -0.66072  -0.65495  -0.65104  -0.64704
 Alpha  occ. eigenvalues --   -0.63673  -0.62942  -0.62335  -0.61878  -0.60795
 Alpha  occ. eigenvalues --   -0.60620  -0.60169  -0.60147  -0.59206  -0.58703
 Alpha  occ. eigenvalues --   -0.58414  -0.57910  -0.57217  -0.55774  -0.54726
 Alpha  occ. eigenvalues --   -0.54107  -0.54072  -0.53390  -0.52160  -0.52104
 Alpha  occ. eigenvalues --   -0.51393  -0.51258  -0.51012  -0.50788  -0.49864
 Alpha  occ. eigenvalues --   -0.49769  -0.49386  -0.48342  -0.47551  -0.47072
 Alpha  occ. eigenvalues --   -0.46323  -0.45812  -0.45515  -0.45327  -0.44968
 Alpha  occ. eigenvalues --   -0.44298  -0.43927  -0.43023  -0.42427  -0.42386
 Alpha  occ. eigenvalues --   -0.42213  -0.41631  -0.41528  -0.41121  -0.40980
 Alpha  occ. eigenvalues --   -0.40689  -0.40510  -0.40366  -0.40357  -0.40253
 Alpha  occ. eigenvalues --   -0.40160  -0.40075  -0.39979  -0.39556  -0.39407
 Alpha  occ. eigenvalues --   -0.39165  -0.38849  -0.38780  -0.38649  -0.38163
 Alpha  occ. eigenvalues --   -0.38125  -0.37851  -0.37799  -0.37496  -0.37053
 Alpha  occ. eigenvalues --   -0.36978  -0.36811  -0.36774  -0.36661  -0.36551
 Alpha  occ. eigenvalues --   -0.36329  -0.36041  -0.35847  -0.35698  -0.35473
 Alpha  occ. eigenvalues --   -0.35399  -0.35368  -0.35109  -0.35008  -0.34917
 Alpha  occ. eigenvalues --   -0.34723  -0.34199  -0.34115  -0.33848  -0.33744
 Alpha  occ. eigenvalues --   -0.33731  -0.33494  -0.33443  -0.33391  -0.33377
 Alpha  occ. eigenvalues --   -0.32974  -0.32957  -0.32515  -0.32402  -0.32114
 Alpha  occ. eigenvalues --   -0.32072  -0.31960  -0.31618  -0.31466  -0.31385
 Alpha  occ. eigenvalues --   -0.31248  -0.31124  -0.31041  -0.30817  -0.30667
 Alpha  occ. eigenvalues --   -0.30556  -0.30329  -0.30194  -0.29773  -0.29663
 Alpha  occ. eigenvalues --   -0.29581  -0.29489  -0.29421  -0.29334  -0.28865
 Alpha  occ. eigenvalues --   -0.28854  -0.28617  -0.28280  -0.28173  -0.28024
 Alpha  occ. eigenvalues --   -0.27944  -0.27674  -0.27568  -0.27103  -0.26773
 Alpha  occ. eigenvalues --   -0.26569  -0.26422  -0.25675  -0.25325  -0.24932
 Alpha  occ. eigenvalues --   -0.24569  -0.23993  -0.23985  -0.23670  -0.23219
 Alpha  occ. eigenvalues --   -0.22963  -0.22801  -0.22451  -0.21838  -0.21184
 Alpha  occ. eigenvalues --   -0.20818  -0.20438  -0.19473  -0.19099  -0.17686
 Alpha  occ. eigenvalues --   -0.16058
 Alpha virt. eigenvalues --   -0.11716  -0.07098  -0.06670  -0.05178  -0.04517
 Alpha virt. eigenvalues --   -0.04021  -0.03012  -0.02771  -0.01322   0.00347
 Alpha virt. eigenvalues --    0.01326   0.01499   0.01767   0.02637   0.02744

 Mulliken charges:
               1
     1  Mg   0.705074
     2  C    0.017011
     3  C   -0.087330
     4  C   -0.030619
     5  C   -0.069750
     6  N   -0.194916
     7  C   -0.089586
     8  C   -0.017877
     9  C    0.013971
    10  C   -0.034664
    11  C    0.140392
    12  C    0.112973
    13  C    0.170261
    14  C    0.071353
    15  O   -0.227359
    16  O   -0.276360
    17  N   -0.275651
    18  C    0.207313
    19  C   -0.154231
    20  C    0.035152
    21  C    0.130871
    22  C    0.158916
    23  C   -0.067548
    24  O   -0.165481
    25  C    0.150650
    26  N   -0.232249
    27  C   -0.014137
    28  C    0.041387
    29  C    0.002466
    30  C    0.025006
    31  C    0.128478
    32  C    0.093551
    33  C    0.063154
    34  N   -0.228102
    35  C    0.101181
    36  C   -0.189434
    37  C    0.096268
    38  C    0.057380
    39  C    0.176057
    40  C   -0.040560
    41  O   -0.135155
    42  C    0.056416
    43  C    0.162181
    44  O   -0.194922
    45  O   -0.303788
    46  C    0.216313
    47  C    0.339846
    48  C   -0.081346
    49  C   -0.208097
    50  C    0.151277
    51  C    0.168328
    52  C    0.049336
    53  C    0.057604
    54  C   -0.068372
    55  C    0.118183
    56  C    0.077584
    57  C    0.062838
    58  C    0.116470
    59  C   -0.100946
    60  C    0.128066
    61  C    0.092438
    62  C    0.084117
    63  C    0.078146
    64  C   -0.090701
    65  C    0.086104
    66  C    0.115432
    67  H   -0.069165
    68  H   -0.050404
    69  H   -0.065103
    70  H   -0.000718
    71  H   -0.013575
    72  H   -0.003648
    73  H   -0.010470
    74  H    0.008921
    75  H   -0.011931
    76  H   -0.015613
    77  H    0.006083
    78  H   -0.011981
    79  H    0.012980
    80  H   -0.031489
    81  H    0.008623
    82  H    0.002487
    83  H   -0.006168
    84  H    0.003031
    85  H   -0.034468
    86  H   -0.032372
    87  H    0.004629
    88  H   -0.001343
    89  H   -0.017748
    90  H   -0.012225
    91  H   -0.019339
    92  H   -0.002088
    93  H   -0.001945
    94  H   -0.022290
    95  H    0.004456
    96  H    0.003840
    97  H    0.004866
    98  H    0.008004
    99  H    0.022750
   100  H    0.003287
   101  H   -0.008597
   102  H   -0.008590
   103  H   -0.007324
   104  H   -0.043305
   105  H   -0.010566
   106  H   -0.003705
   107  H   -0.000971
   108  H   -0.038935
   109  H   -0.026385
   110  H   -0.018389
   111  H   -0.015957
   112  H   -0.014415
   113  H   -0.017952
   114  H   -0.024838
   115  H   -0.011982
   116  H   -0.026438
   117  H   -0.015949
   118  H   -0.033079
   119  H   -0.019652
   120  H   -0.037374
   121  H   -0.039646
   122  H   -0.039507
   123  H   -0.040861
   124  H   -0.029921
   125  H   -0.025740
   126  H   -0.008984
   127  H   -0.018060
   128  H   -0.047753
   129  H   -0.028284
   130  H   -0.023536
   131  H   -0.037007
   132  H   -0.047257
   133  H   -0.018917
   134  H   -0.045815
   135  H    0.000608
   136  H   -0.025512
   137  H   -0.016956
   138  H   -0.026347
   139  H   -0.008789
   140  H   -0.027547
 Sum of Mulliken charges =  -0.00000

 Dipole moment (field-independent basis, Debye):
    X=             -1.4040    Y=              3.1472    Z=              0.0619  Tot=              3.4468
 Quadrupole moment (field-independent basis, Debye-Ang):
   XX=           -378.0713   YY=           -423.6075   ZZ=           -411.0083
   XY=             -5.0688   XZ=             18.1179   YZ=             -0.3970

 Normal termination of Gaussian 16 at Thu May  5 13:27:59 2022.
