 Gaussian 16, Revision A.03,
 Gaussian 16:  ES64L-G16RevA.03 25-Dec-2016

 -----------------------------------
 #p cam-b3lyp/Def2SVP td=(nstates=5)
 -----------------------------------

 -------------------------------------------------------
 step_851_chromophore_25 TDDFT with cam-b3lyp functional
 -------------------------------------------------------
 Symbolic Z-matrix:
 Charge =  0 Multiplicity = 1

                         Standard orientation:
 ---------------------------------------------------------------------
 Center     Atomic      Atomic             Coordinates (Angstroms)
 Number     Number       Type             X           Y           Z
 ---------------------------------------------------------------------
      1         12           0        5.786342    0.449569    0.556009
      2          6           0        3.367638   -2.064506   -0.042918
      3          6           0        3.388345    2.779114   -0.119985
      4          6           0        8.117847    2.699441   -0.253040
      5          6           0        8.204229   -2.006431    0.739135
      6          7           0        3.567588    0.339787    0.074417
      7          6           0        2.833478   -0.780764   -0.101141
      8          6           0        1.388074   -0.425229   -0.261302
      9          6           0        1.423132    1.183706   -0.397212
     10          6           0        2.883237    1.491798   -0.180159
     11          6           0        0.832746    1.616244   -1.822997
     12          6           0        0.544232   -0.824600    0.996324
     13          6           0       -0.616989   -1.756104    0.818026
     14          6           0       -1.942053   -1.213900    1.295395
     15          8           0       -2.320623   -1.245618    2.498619
     16          8           0       -2.672300   -0.606350    0.274000
     17          7           0        5.763001    2.527482    0.255039
     18          6           0        4.679812    3.249966   -0.070720
     19          6           0        5.077437    4.622226   -0.246874
     20          6           0        6.508492    4.643167   -0.340726
     21          6           0        6.856041    3.266043   -0.130367
     22          6           0        4.080439    5.853372   -0.395364
     23          6           0        7.436112    5.806730   -0.608846
     24          8           0        8.664373    5.670142   -0.647120
     25          6           0        6.790542    7.048348   -1.081689
     26          7           0        7.864201    0.353731    0.336776
     27          6           0        8.609311    1.447753   -0.040870
     28          6           0       10.123788    0.951630   -0.254471
     29          6           0       10.199319   -0.372138    0.524557
     30          6           0        8.669929   -0.709834    0.522609
     31          6           0       10.440643    0.848676   -1.761685
     32          6           0       10.647355   -0.317246    2.052220
     33          6           0       11.779598   -1.222820    2.452449
     34          7           0        5.818238   -1.642677    0.567318
     35          6           0        6.874735   -2.478186    0.713517
     36          6           0        6.396721   -3.858290    0.626763
     37          6           0        5.029550   -3.752176    0.358203
     38          6           0        4.733450   -2.358592    0.256707
     39          6           0        7.208874   -5.114242    0.823023
     40          6           0        3.857084   -4.547005    0.163490
     41          8           0        3.696842   -5.773413    0.155120
     42          6           0        2.674192   -3.510713   -0.097395
     43          6           0        1.926668   -3.774453   -1.351200
     44          8           0        2.267587   -3.525610   -2.533900
     45          8           0        0.714384   -4.485168   -0.968553
     46          6           0       -0.158855   -4.802474   -2.049814
     47          6           0       -3.982069   -0.031727    0.639341
     48          6           0       -5.010345   -0.465549   -0.426769
     49          6           0       -5.893544   -1.497755   -0.366760
     50          6           0       -6.341509   -2.129469    0.950489
     51          6           0       -6.475195   -2.089436   -1.585026
     52          6           0       -7.987038   -1.804967   -1.956316
     53          6           0       -8.578439   -0.487791   -1.345597
     54          6           0       -9.042104    0.397816   -2.609336
     55          6           0       -7.923318    1.489423   -2.857861
     56          6           0      -10.372054    1.103613   -2.175824
     57          6           0      -11.616442    0.194508   -2.366144
     58          6           0      -12.933936    0.917408   -1.889536
     59          6           0      -13.292105    0.403555   -0.431888
     60          6           0      -14.401224   -0.681707   -0.419319
     61          6           0      -13.737172    1.678788    0.391784
     62          6           0      -13.590745    1.505902    1.890573
     63          6           0      -12.609605    2.563689    2.346462
     64          6           0      -11.594225    1.973094    3.374362
     65          6           0      -10.690624    0.943217    2.673114
     66          6           0      -12.108422    1.488887    4.731897
     67          1           0        2.568067    3.496399   -0.189228
     68          1           0        8.969126    3.331204   -0.514656
     69          1           0        8.973788   -2.781080    0.730295
     70          1           0        1.035472   -0.965228   -1.140516
     71          1           0        0.984849    1.658682    0.480345
     72          1           0        0.897579    0.694595   -2.400572
     73          1           0        1.522786    2.330812   -2.271467
     74          1           0       -0.177951    2.019702   -1.760483
     75          1           0        0.183619    0.073048    1.499086
     76          1           0        1.209438   -1.305812    1.712809
     77          1           0       -0.421592   -2.688644    1.346890
     78          1           0       -0.684896   -2.001483   -0.241762
     79          1           0        4.237969    6.602888    0.380258
     80          1           0        3.066355    5.486045   -0.236047
     81          1           0        4.045407    6.225099   -1.418766
     82          1           0        6.054391    6.799711   -1.846803
     83          1           0        7.534536    7.692526   -1.549608
     84          1           0        6.238885    7.555846   -0.290520
     85          1           0       10.850847    1.635021    0.183788
     86          1           0       10.832371   -1.140521    0.081233
     87          1           0       10.970238    1.652692   -2.272927
     88          1           0        9.491196    0.704926   -2.277893
     89          1           0       11.063436   -0.037034   -1.893258
     90          1           0        9.860027   -0.664834    2.722363
     91          1           0       10.836006    0.726705    2.302249
     92          1           0       11.455325   -2.154718    2.915742
     93          1           0       12.467383   -0.677208    3.099323
     94          1           0       12.327342   -1.542564    1.566204
     95          1           0        7.719006   -5.111489    1.786566
     96          1           0        7.897972   -5.273314   -0.006923
     97          1           0        6.452615   -5.897096    0.772330
     98          1           0        2.011168   -3.602383    0.762916
     99          1           0        0.443840   -5.102367   -2.906984
    100          1           0       -0.970467   -4.086374   -2.178961
    101          1           0       -0.797907   -5.658082   -1.831963
    102          1           0       -4.000005    1.056735    0.693509
    103          1           0       -4.322854   -0.336716    1.629095
    104          1           0       -5.025308   -0.091149   -1.450442
    105          1           0       -5.879239   -1.621289    1.796318
    106          1           0       -6.031611   -3.175619    0.953810
    107          1           0       -7.429373   -2.089389    0.991750
    108          1           0       -6.491830   -3.162211   -1.391952
    109          1           0       -5.768375   -2.034802   -2.412229
    110          1           0       -8.747482   -2.544370   -1.704388
    111          1           0       -7.941357   -1.678615   -3.038092
    112          1           0       -7.802558    0.013443   -0.767066
    113          1           0       -9.311631   -0.777445   -0.593249
    114          1           0       -9.283136   -0.163029   -3.512664
    115          1           0       -8.373881    2.480966   -2.842756
    116          1           0       -7.414579    1.413100   -3.819015
    117          1           0       -7.110996    1.289199   -2.158204
    118          1           0      -10.613185    1.964290   -2.800177
    119          1           0      -10.230139    1.421821   -1.142128
    120          1           0      -11.511640   -0.725478   -1.791806
    121          1           0      -11.822546   -0.147460   -3.380444
    122          1           0      -13.777378    0.776095   -2.564319
    123          1           0      -12.774194    1.995447   -1.897784
    124          1           0      -12.420985    0.031665    0.106727
    125          1           0      -14.903228   -0.699064   -1.386122
    126          1           0      -15.140220   -0.449580    0.347260
    127          1           0      -13.992893   -1.687022   -0.321570
    128          1           0      -14.811473    1.756117    0.225720
    129          1           0      -13.270314    2.590015    0.018368
    130          1           0      -13.289374    0.497792    2.175879
    131          1           0      -14.470643    1.760125    2.481018
    132          1           0      -13.200338    3.189046    3.014931
    133          1           0      -12.149478    3.193029    1.584687
    134          1           0      -10.948478    2.832319    3.554610
    135          1           0      -10.667146    0.990542    1.584798
    136          1           0      -11.105393   -0.029957    2.935516
    137          1           0       -9.696547    0.951351    3.120420
    138          1           0      -13.196980    1.451091    4.736254
    139          1           0      -11.788738    2.058076    5.605005
    140          1           0      -11.872344    0.450251    4.965677
 ---------------------------------------------------------------------

 SCF Done:  E(RCAM-B3LYP) =  -3007.15511835     A.U. after   18 cycles

 Excitation energies and oscillator strengths:

 Excited State   1:      Singlet-A      1.7334 eV  715.28 nm  f=0.4010  <S**2>=0.000
     245 -> 248        0.17958
     246 -> 247        0.68533
     245 <- 248        0.10683
 This state for optimization and/or second-order correction.
 Total Energy, E(TD-HF/TD-DFT) =  -3007.09141807
 Copying the excited state density for this state as the 1-particle RhoCI density.

 Excited State   2:      Singlet-A      2.2934 eV  540.60 nm  f=0.1065  <S**2>=0.000
     245 -> 247        0.63418
     246 -> 248       -0.30029

 Excited State   3:      Singlet-A      3.5000 eV  354.24 nm  f=0.1069  <S**2>=0.000
     242 -> 247        0.11625
     243 -> 247        0.58985
     245 -> 247        0.11815
     246 -> 248        0.32251

 Excited State   4:      Singlet-A      3.5251 eV  351.72 nm  f=0.2000  <S**2>=0.000
     240 -> 247        0.17321
     240 -> 249       -0.13020
     242 -> 247        0.40506
     243 -> 247       -0.29262
     245 -> 247        0.15963
     246 -> 248        0.38732

 Excited State   5:      Singlet-A      3.5984 eV  344.55 nm  f=0.1964  <S**2>=0.000
     239 -> 247        0.11528
     240 -> 247        0.42420
     240 -> 249       -0.27446
     240 -> 250       -0.12785
     241 -> 247       -0.11522
     242 -> 247        0.13758
     243 -> 247        0.20116
     245 -> 247       -0.15548
     246 -> 248       -0.28606

 The electronic state is 1-A.
 Alpha  occ. eigenvalues --  -46.89140 -19.25526 -19.24848 -19.21400 -19.19818
 Alpha  occ. eigenvalues --  -19.19611 -19.19147 -14.42051 -14.42033 -14.39660
 Alpha  occ. eigenvalues --  -14.39550 -10.40750 -10.39944 -10.35796 -10.35324
 Alpha  occ. eigenvalues --  -10.32502 -10.31123 -10.30938 -10.30856 -10.30760
 Alpha  occ. eigenvalues --  -10.30716 -10.30022 -10.29782 -10.29758 -10.29668
 Alpha  occ. eigenvalues --  -10.29438 -10.28877 -10.28678 -10.28565 -10.28366
 Alpha  occ. eigenvalues --  -10.28339 -10.28218 -10.28193 -10.27781 -10.27402
 Alpha  occ. eigenvalues --  -10.27353 -10.27331 -10.26967 -10.26756 -10.26666
 Alpha  occ. eigenvalues --  -10.26637 -10.26424 -10.26322 -10.26076 -10.26009
 Alpha  occ. eigenvalues --  -10.25818 -10.25812 -10.25776 -10.25756 -10.25712
 Alpha  occ. eigenvalues --  -10.25621 -10.25597 -10.25497 -10.25407 -10.25247
 Alpha  occ. eigenvalues --  -10.25044 -10.24940 -10.24815 -10.24696 -10.24689
 Alpha  occ. eigenvalues --  -10.24565 -10.24481 -10.24070 -10.24051 -10.23981
 Alpha  occ. eigenvalues --  -10.23876  -3.17647  -1.92560  -1.92080  -1.91958
 Alpha  occ. eigenvalues --   -1.14874  -1.14282  -1.09568  -1.09471  -1.07311
 Alpha  occ. eigenvalues --   -1.06228  -1.04994  -1.04318  -1.03890  -1.03071
 Alpha  occ. eigenvalues --   -0.92278  -0.90677  -0.89947  -0.89768  -0.89203
 Alpha  occ. eigenvalues --   -0.88574  -0.88310  -0.87749  -0.86967  -0.86804
 Alpha  occ. eigenvalues --   -0.86768  -0.85577  -0.84255  -0.84079  -0.83621
 Alpha  occ. eigenvalues --   -0.82488  -0.82197  -0.81555  -0.80962  -0.80533
 Alpha  occ. eigenvalues --   -0.79421  -0.78671  -0.77956  -0.77335  -0.76195
 Alpha  occ. eigenvalues --   -0.76010  -0.75502  -0.75450  -0.74485  -0.73918
 Alpha  occ. eigenvalues --   -0.73501  -0.72931  -0.72105  -0.70601  -0.69438
 Alpha  occ. eigenvalues --   -0.68760  -0.68589  -0.67874  -0.66448  -0.66379
 Alpha  occ. eigenvalues --   -0.65466  -0.65361  -0.65219  -0.64724  -0.63813
 Alpha  occ. eigenvalues --   -0.63671  -0.63410  -0.62181  -0.61324  -0.60704
 Alpha  occ. eigenvalues --   -0.59876  -0.59283  -0.58927  -0.58836  -0.58454
 Alpha  occ. eigenvalues --   -0.57815  -0.57209  -0.56309  -0.55765  -0.55560
 Alpha  occ. eigenvalues --   -0.55304  -0.54629  -0.54311  -0.53951  -0.53883
 Alpha  occ. eigenvalues --   -0.53682  -0.53532  -0.53194  -0.53144  -0.52963
 Alpha  occ. eigenvalues --   -0.52819  -0.52672  -0.52582  -0.52326  -0.52011
 Alpha  occ. eigenvalues --   -0.51613  -0.51397  -0.51219  -0.51187  -0.50804
 Alpha  occ. eigenvalues --   -0.50618  -0.50300  -0.50127  -0.49705  -0.49657
 Alpha  occ. eigenvalues --   -0.49524  -0.49417  -0.49183  -0.49034  -0.48947
 Alpha  occ. eigenvalues --   -0.48746  -0.48491  -0.48049  -0.47799  -0.47493
 Alpha  occ. eigenvalues --   -0.47466  -0.47281  -0.47157  -0.46964  -0.46785
 Alpha  occ. eigenvalues --   -0.46631  -0.46027  -0.45842  -0.45656  -0.45572
 Alpha  occ. eigenvalues --   -0.45479  -0.45290  -0.45147  -0.45049  -0.45024
 Alpha  occ. eigenvalues --   -0.44876  -0.44531  -0.44214  -0.44035  -0.43692
 Alpha  occ. eigenvalues --   -0.43585  -0.43530  -0.43479  -0.43128  -0.42995
 Alpha  occ. eigenvalues --   -0.42778  -0.42489  -0.42416  -0.42207  -0.42061
 Alpha  occ. eigenvalues --   -0.41856  -0.41757  -0.41556  -0.41089  -0.41039
 Alpha  occ. eigenvalues --   -0.40904  -0.40835  -0.40652  -0.40561  -0.40472
 Alpha  occ. eigenvalues --   -0.39900  -0.39522  -0.39272  -0.39211  -0.38942
 Alpha  occ. eigenvalues --   -0.38857  -0.38575  -0.38472  -0.38082  -0.37930
 Alpha  occ. eigenvalues --   -0.37171  -0.37108  -0.36626  -0.36322  -0.36202
 Alpha  occ. eigenvalues --   -0.35963  -0.35139  -0.34544  -0.34434  -0.33940
 Alpha  occ. eigenvalues --   -0.33709  -0.33354  -0.33291  -0.31898  -0.31545
 Alpha  occ. eigenvalues --   -0.31453  -0.30534  -0.30245  -0.30076  -0.24481
 Alpha  occ. eigenvalues --   -0.21299
 Alpha virt. eigenvalues --   -0.08789  -0.01774  -0.00211   0.01699   0.02167
 Alpha virt. eigenvalues --    0.02874   0.03575   0.04583   0.05811   0.06573
 Alpha virt. eigenvalues --    0.07796   0.08266   0.08441   0.08966   0.09079

 Mulliken charges:
               1
     1  Mg   0.836186
     2  C   -0.010781
     3  C   -0.103679
     4  C   -0.051128
     5  C   -0.075030
     6  N   -0.267610
     7  C   -0.039763
     8  C   -0.070400
     9  C   -0.043850
    10  C   -0.006118
    11  C    0.084682
    12  C    0.060100
    13  C    0.099906
    14  C    0.156395
    15  O   -0.269794
    16  O   -0.341463
    17  N   -0.360454
    18  C    0.207564
    19  C   -0.158681
    20  C   -0.032419
    21  C    0.149292
    22  C    0.106458
    23  C    0.020149
    24  O   -0.206426
    25  C    0.060063
    26  N   -0.303746
    27  C    0.000351
    28  C   -0.013881
    29  C   -0.046848
    30  C    0.037417
    31  C    0.072746
    32  C    0.040663
    33  C    0.000636
    34  N   -0.319451
    35  C    0.107332
    36  C   -0.176575
    37  C    0.005649
    38  C    0.095449
    39  C    0.122724
    40  C    0.060405
    41  O   -0.174873
    42  C   -0.015196
    43  C    0.250651
    44  O   -0.229585
    45  O   -0.367134
    46  C    0.175875
    47  C    0.309978
    48  C   -0.109740
    49  C   -0.227532
    50  C    0.095219
    51  C    0.102637
    52  C    0.000209
    53  C    0.007474
    54  C   -0.126364
    55  C    0.066213
    56  C    0.028852
    57  C    0.011416
    58  C    0.062628
    59  C   -0.149710
    60  C    0.069576
    61  C    0.037795
    62  C    0.027000
    63  C    0.025287
    64  C   -0.148370
    65  C    0.033023
    66  C    0.049667
    67  H   -0.035318
    68  H   -0.009191
    69  H   -0.029472
    70  H    0.029409
    71  H    0.020048
    72  H    0.020247
    73  H    0.014878
    74  H    0.032871
    75  H    0.019295
    76  H    0.016954
    77  H    0.038960
    78  H    0.018864
    79  H    0.038165
    80  H   -0.002809
    81  H    0.034128
    82  H    0.030125
    83  H    0.029677
    84  H    0.031619
    85  H    0.001492
    86  H    0.002217
    87  H    0.029283
    88  H    0.023478
    89  H    0.005963
    90  H    0.017522
    91  H    0.009186
    92  H    0.020293
    93  H    0.022298
    94  H    0.000332
    95  H    0.029915
    96  H    0.030108
    97  H    0.033442
    98  H    0.049698
    99  H    0.048255
   100  H    0.022411
   101  H    0.015545
   102  H    0.018195
   103  H    0.025807
   104  H   -0.011671
   105  H    0.013143
   106  H    0.020832
   107  H    0.020575
   108  H   -0.007101
   109  H    0.005651
   110  H    0.009476
   111  H    0.012056
   112  H    0.013190
   113  H    0.005994
   114  H    0.005630
   115  H    0.012651
   116  H   -0.001664
   117  H    0.003477
   118  H   -0.005083
   119  H    0.003708
   120  H   -0.012119
   121  H   -0.009656
   122  H   -0.009546
   123  H   -0.012027
   124  H   -0.004404
   125  H   -0.001417
   126  H    0.014144
   127  H    0.006389
   128  H   -0.017578
   129  H   -0.000730
   130  H    0.002340
   131  H   -0.006238
   132  H   -0.016163
   133  H    0.008805
   134  H   -0.011920
   135  H    0.017027
   136  H   -0.004389
   137  H    0.008584
   138  H   -0.002441
   139  H    0.016837
   140  H   -0.001319
 Sum of Mulliken charges =  -0.00000

 Dipole moment (field-independent basis, Debye):
    X=             -1.5489    Y=              3.4731    Z=             -0.0776  Tot=              3.8036
 Quadrupole moment (field-independent basis, Debye-Ang):
   XX=           -376.4976   YY=           -419.3766   ZZ=           -411.3041
   XY=             -4.0243   XZ=             18.1569   YZ=             -0.9534

 Normal termination of Gaussian 16 at Thu May  5 11:49:21 2022.
