 Gaussian 16, Revision A.03,
 Gaussian 16:  ES64L-G16RevA.03 25-Dec-2016

 ---------------------------------
 #p PBE1PBE/Def2SVP td=(nstates=5)
 ---------------------------------

 -----------------------------------------------------
 step_851_chromophore_25 TDDFT with PBE1PBE functional
 -----------------------------------------------------
 Symbolic Z-matrix:
 Charge =  0 Multiplicity = 1

                         Standard orientation:
 ---------------------------------------------------------------------
 Center     Atomic      Atomic             Coordinates (Angstroms)
 Number     Number       Type             X           Y           Z
 ---------------------------------------------------------------------
      1         12           0        5.786342    0.449569    0.556009
      2          6           0        3.367638   -2.064506   -0.042918
      3          6           0        3.388345    2.779114   -0.119985
      4          6           0        8.117847    2.699441   -0.253040
      5          6           0        8.204229   -2.006431    0.739135
      6          7           0        3.567588    0.339787    0.074417
      7          6           0        2.833478   -0.780764   -0.101141
      8          6           0        1.388074   -0.425229   -0.261302
      9          6           0        1.423132    1.183706   -0.397212
     10          6           0        2.883237    1.491798   -0.180159
     11          6           0        0.832746    1.616244   -1.822997
     12          6           0        0.544232   -0.824600    0.996324
     13          6           0       -0.616989   -1.756104    0.818026
     14          6           0       -1.942053   -1.213900    1.295395
     15          8           0       -2.320623   -1.245618    2.498619
     16          8           0       -2.672300   -0.606350    0.274000
     17          7           0        5.763001    2.527482    0.255039
     18          6           0        4.679812    3.249966   -0.070720
     19          6           0        5.077437    4.622226   -0.246874
     20          6           0        6.508492    4.643167   -0.340726
     21          6           0        6.856041    3.266043   -0.130367
     22          6           0        4.080439    5.853372   -0.395364
     23          6           0        7.436112    5.806730   -0.608846
     24          8           0        8.664373    5.670142   -0.647120
     25          6           0        6.790542    7.048348   -1.081689
     26          7           0        7.864201    0.353731    0.336776
     27          6           0        8.609311    1.447753   -0.040870
     28          6           0       10.123788    0.951630   -0.254471
     29          6           0       10.199319   -0.372138    0.524557
     30          6           0        8.669929   -0.709834    0.522609
     31          6           0       10.440643    0.848676   -1.761685
     32          6           0       10.647355   -0.317246    2.052220
     33          6           0       11.779598   -1.222820    2.452449
     34          7           0        5.818238   -1.642677    0.567318
     35          6           0        6.874735   -2.478186    0.713517
     36          6           0        6.396721   -3.858290    0.626763
     37          6           0        5.029550   -3.752176    0.358203
     38          6           0        4.733450   -2.358592    0.256707
     39          6           0        7.208874   -5.114242    0.823023
     40          6           0        3.857084   -4.547005    0.163490
     41          8           0        3.696842   -5.773413    0.155120
     42          6           0        2.674192   -3.510713   -0.097395
     43          6           0        1.926668   -3.774453   -1.351200
     44          8           0        2.267587   -3.525610   -2.533900
     45          8           0        0.714384   -4.485168   -0.968553
     46          6           0       -0.158855   -4.802474   -2.049814
     47          6           0       -3.982069   -0.031727    0.639341
     48          6           0       -5.010345   -0.465549   -0.426769
     49          6           0       -5.893544   -1.497755   -0.366760
     50          6           0       -6.341509   -2.129469    0.950489
     51          6           0       -6.475195   -2.089436   -1.585026
     52          6           0       -7.987038   -1.804967   -1.956316
     53          6           0       -8.578439   -0.487791   -1.345597
     54          6           0       -9.042104    0.397816   -2.609336
     55          6           0       -7.923318    1.489423   -2.857861
     56          6           0      -10.372054    1.103613   -2.175824
     57          6           0      -11.616442    0.194508   -2.366144
     58          6           0      -12.933936    0.917408   -1.889536
     59          6           0      -13.292105    0.403555   -0.431888
     60          6           0      -14.401224   -0.681707   -0.419319
     61          6           0      -13.737172    1.678788    0.391784
     62          6           0      -13.590745    1.505902    1.890573
     63          6           0      -12.609605    2.563689    2.346462
     64          6           0      -11.594225    1.973094    3.374362
     65          6           0      -10.690624    0.943217    2.673114
     66          6           0      -12.108422    1.488887    4.731897
     67          1           0        2.568067    3.496399   -0.189228
     68          1           0        8.969126    3.331204   -0.514656
     69          1           0        8.973788   -2.781080    0.730295
     70          1           0        1.035472   -0.965228   -1.140516
     71          1           0        0.984849    1.658682    0.480345
     72          1           0        0.897579    0.694595   -2.400572
     73          1           0        1.522786    2.330812   -2.271467
     74          1           0       -0.177951    2.019702   -1.760483
     75          1           0        0.183619    0.073048    1.499086
     76          1           0        1.209438   -1.305812    1.712809
     77          1           0       -0.421592   -2.688644    1.346890
     78          1           0       -0.684896   -2.001483   -0.241762
     79          1           0        4.237969    6.602888    0.380258
     80          1           0        3.066355    5.486045   -0.236047
     81          1           0        4.045407    6.225099   -1.418766
     82          1           0        6.054391    6.799711   -1.846803
     83          1           0        7.534536    7.692526   -1.549608
     84          1           0        6.238885    7.555846   -0.290520
     85          1           0       10.850847    1.635021    0.183788
     86          1           0       10.832371   -1.140521    0.081233
     87          1           0       10.970238    1.652692   -2.272927
     88          1           0        9.491196    0.704926   -2.277893
     89          1           0       11.063436   -0.037034   -1.893258
     90          1           0        9.860027   -0.664834    2.722363
     91          1           0       10.836006    0.726705    2.302249
     92          1           0       11.455325   -2.154718    2.915742
     93          1           0       12.467383   -0.677208    3.099323
     94          1           0       12.327342   -1.542564    1.566204
     95          1           0        7.719006   -5.111489    1.786566
     96          1           0        7.897972   -5.273314   -0.006923
     97          1           0        6.452615   -5.897096    0.772330
     98          1           0        2.011168   -3.602383    0.762916
     99          1           0        0.443840   -5.102367   -2.906984
    100          1           0       -0.970467   -4.086374   -2.178961
    101          1           0       -0.797907   -5.658082   -1.831963
    102          1           0       -4.000005    1.056735    0.693509
    103          1           0       -4.322854   -0.336716    1.629095
    104          1           0       -5.025308   -0.091149   -1.450442
    105          1           0       -5.879239   -1.621289    1.796318
    106          1           0       -6.031611   -3.175619    0.953810
    107          1           0       -7.429373   -2.089389    0.991750
    108          1           0       -6.491830   -3.162211   -1.391952
    109          1           0       -5.768375   -2.034802   -2.412229
    110          1           0       -8.747482   -2.544370   -1.704388
    111          1           0       -7.941357   -1.678615   -3.038092
    112          1           0       -7.802558    0.013443   -0.767066
    113          1           0       -9.311631   -0.777445   -0.593249
    114          1           0       -9.283136   -0.163029   -3.512664
    115          1           0       -8.373881    2.480966   -2.842756
    116          1           0       -7.414579    1.413100   -3.819015
    117          1           0       -7.110996    1.289199   -2.158204
    118          1           0      -10.613185    1.964290   -2.800177
    119          1           0      -10.230139    1.421821   -1.142128
    120          1           0      -11.511640   -0.725478   -1.791806
    121          1           0      -11.822546   -0.147460   -3.380444
    122          1           0      -13.777378    0.776095   -2.564319
    123          1           0      -12.774194    1.995447   -1.897784
    124          1           0      -12.420985    0.031665    0.106727
    125          1           0      -14.903228   -0.699064   -1.386122
    126          1           0      -15.140220   -0.449580    0.347260
    127          1           0      -13.992893   -1.687022   -0.321570
    128          1           0      -14.811473    1.756117    0.225720
    129          1           0      -13.270314    2.590015    0.018368
    130          1           0      -13.289374    0.497792    2.175879
    131          1           0      -14.470643    1.760125    2.481018
    132          1           0      -13.200338    3.189046    3.014931
    133          1           0      -12.149478    3.193029    1.584687
    134          1           0      -10.948478    2.832319    3.554610
    135          1           0      -10.667146    0.990542    1.584798
    136          1           0      -11.105393   -0.029957    2.935516
    137          1           0       -9.696547    0.951351    3.120420
    138          1           0      -13.196980    1.451091    4.736254
    139          1           0      -11.788738    2.058076    5.605005
    140          1           0      -11.872344    0.450251    4.965677
 ---------------------------------------------------------------------

 SCF Done:  E(RPBE1PBE) =  -3005.34489231     A.U. after   15 cycles

 Excitation energies and oscillator strengths:

 Excited State   1:      Singlet-A      1.8951 eV  654.25 nm  f=0.3886  <S**2>=0.000
     245 -> 248        0.17094
     246 -> 247        0.69290
     246 <- 247       -0.10946
 This state for optimization and/or second-order correction.
 Total Energy, E(TD-HF/TD-DFT) =  -3005.27524981
 Copying the excited state density for this state as the 1-particle RhoCI density.

 Excited State   2:      Singlet-A      2.2968 eV  539.80 nm  f=0.1055  <S**2>=0.000
     245 -> 247        0.64695
     246 -> 248       -0.27058

 Excited State   3:      Singlet-A      3.1257 eV  396.67 nm  f=0.0001  <S**2>=0.000
     240 -> 247        0.37981
     240 -> 249       -0.14708
     242 -> 247        0.40858
     243 -> 247       -0.37068

 Excited State   4:      Singlet-A      3.1782 eV  390.10 nm  f=0.0006  <S**2>=0.000
     240 -> 247        0.17354
     242 -> 247        0.32416
     243 -> 247        0.57983
     246 -> 248        0.11275

 Excited State   5:      Singlet-A      3.1950 eV  388.06 nm  f=0.0012  <S**2>=0.000
     241 -> 247        0.64219
     241 -> 248        0.11326
     241 -> 249        0.14321
     241 -> 250       -0.12181
     242 -> 247       -0.14660

 The electronic state is 1-A.
 Alpha  occ. eigenvalues --  -46.92541 -19.26229 -19.25476 -19.21553 -19.20138
 Alpha  occ. eigenvalues --  -19.19833 -19.19360 -14.41586 -14.41535 -14.39316
 Alpha  occ. eigenvalues --  -14.39195 -10.37695 -10.37004 -10.32901 -10.32435
 Alpha  occ. eigenvalues --  -10.29903 -10.28814 -10.28714 -10.28559 -10.28496
 Alpha  occ. eigenvalues --  -10.27947 -10.27722 -10.27480 -10.27450 -10.27280
 Alpha  occ. eigenvalues --  -10.27119 -10.26634 -10.26546 -10.26413 -10.26196
 Alpha  occ. eigenvalues --  -10.26088 -10.26023 -10.25978 -10.25255 -10.25081
 Alpha  occ. eigenvalues --  -10.24953 -10.24810 -10.24688 -10.24360 -10.24287
 Alpha  occ. eigenvalues --  -10.24187 -10.24149 -10.23980 -10.23480 -10.23434
 Alpha  occ. eigenvalues --  -10.23391 -10.23355 -10.23309 -10.23283 -10.23259
 Alpha  occ. eigenvalues --  -10.23215 -10.23132 -10.23129 -10.22937 -10.22918
 Alpha  occ. eigenvalues --  -10.22677 -10.22508 -10.22367 -10.22298 -10.22095
 Alpha  occ. eigenvalues --  -10.21943 -10.21867 -10.21619 -10.21569 -10.21453
 Alpha  occ. eigenvalues --  -10.21402  -3.14628  -1.87480  -1.86980  -1.86861
 Alpha  occ. eigenvalues --   -1.09674  -1.08957  -1.04280  -1.04186  -1.02059
 Alpha  occ. eigenvalues --   -1.01081  -0.99647  -0.99035  -0.98506  -0.97734
 Alpha  occ. eigenvalues --   -0.86596  -0.84812  -0.84153  -0.83850  -0.83532
 Alpha  occ. eigenvalues --   -0.82895  -0.82404  -0.82091  -0.81216  -0.81099
 Alpha  occ. eigenvalues --   -0.80907  -0.79843  -0.78538  -0.78350  -0.77804
 Alpha  occ. eigenvalues --   -0.76727  -0.76380  -0.75806  -0.75328  -0.74741
 Alpha  occ. eigenvalues --   -0.73582  -0.72971  -0.72211  -0.71645  -0.70403
 Alpha  occ. eigenvalues --   -0.70235  -0.69788  -0.69576  -0.68617  -0.68101
 Alpha  occ. eigenvalues --   -0.67835  -0.67327  -0.66547  -0.64925  -0.63909
 Alpha  occ. eigenvalues --   -0.62959  -0.62906  -0.62293  -0.60879  -0.60701
 Alpha  occ. eigenvalues --   -0.59962  -0.59808  -0.59476  -0.59305  -0.58177
 Alpha  occ. eigenvalues --   -0.57946  -0.57546  -0.56714  -0.55563  -0.55261
 Alpha  occ. eigenvalues --   -0.54471  -0.53879  -0.53504  -0.53196  -0.53010
 Alpha  occ. eigenvalues --   -0.52268  -0.51668  -0.50885  -0.50232  -0.50096
 Alpha  occ. eigenvalues --   -0.49815  -0.49182  -0.48773  -0.48409  -0.48311
 Alpha  occ. eigenvalues --   -0.48304  -0.48030  -0.47645  -0.47614  -0.47557
 Alpha  occ. eigenvalues --   -0.47238  -0.47205  -0.47026  -0.46960  -0.46520
 Alpha  occ. eigenvalues --   -0.46087  -0.45897  -0.45791  -0.45683  -0.45435
 Alpha  occ. eigenvalues --   -0.45260  -0.44875  -0.44744  -0.44306  -0.44171
 Alpha  occ. eigenvalues --   -0.44046  -0.44016  -0.43802  -0.43634  -0.43543
 Alpha  occ. eigenvalues --   -0.43281  -0.43072  -0.42747  -0.42408  -0.42143
 Alpha  occ. eigenvalues --   -0.42048  -0.41893  -0.41822  -0.41604  -0.41470
 Alpha  occ. eigenvalues --   -0.41360  -0.40771  -0.40516  -0.40335  -0.40308
 Alpha  occ. eigenvalues --   -0.40139  -0.40039  -0.39931  -0.39844  -0.39645
 Alpha  occ. eigenvalues --   -0.39591  -0.39166  -0.38986  -0.38770  -0.38466
 Alpha  occ. eigenvalues --   -0.38421  -0.38275  -0.38202  -0.37949  -0.37794
 Alpha  occ. eigenvalues --   -0.37666  -0.37279  -0.37122  -0.37016  -0.36850
 Alpha  occ. eigenvalues --   -0.36706  -0.36591  -0.36328  -0.35934  -0.35793
 Alpha  occ. eigenvalues --   -0.35689  -0.35666  -0.35535  -0.35435  -0.35298
 Alpha  occ. eigenvalues --   -0.34677  -0.34412  -0.34114  -0.34047  -0.33700
 Alpha  occ. eigenvalues --   -0.33655  -0.33486  -0.33342  -0.33092  -0.32695
 Alpha  occ. eigenvalues --   -0.32206  -0.32022  -0.31682  -0.31305  -0.31076
 Alpha  occ. eigenvalues --   -0.30809  -0.29908  -0.29714  -0.29390  -0.28966
 Alpha  occ. eigenvalues --   -0.28757  -0.28583  -0.28282  -0.27524  -0.26497
 Alpha  occ. eigenvalues --   -0.26222  -0.26077  -0.25844  -0.25455  -0.21403
 Alpha  occ. eigenvalues --   -0.18967
 Alpha virt. eigenvalues --   -0.11279  -0.05338  -0.04430  -0.02658  -0.01765
 Alpha virt. eigenvalues --   -0.00972  -0.00504   0.00066   0.01528   0.03191
 Alpha virt. eigenvalues --    0.04076   0.04463   0.04584   0.05577   0.05710

 Mulliken charges:
               1
     1  Mg   0.979861
     2  C   -0.010937
     3  C   -0.094919
     4  C   -0.049209
     5  C   -0.064433
     6  N   -0.371567
     7  C    0.029854
     8  C   -0.143468
     9  C   -0.126072
    10  C    0.041398
    11  C    0.026070
    12  C    0.017579
    13  C    0.019923
    14  C    0.220977
    15  O   -0.301220
    16  O   -0.369142
    17  N   -0.470408
    18  C    0.214089
    19  C   -0.171696
    20  C   -0.077783
    21  C    0.168792
    22  C    0.043675
    23  C    0.077464
    24  O   -0.245065
    25  C   -0.017279
    26  N   -0.406650
    27  C    0.037822
    28  C   -0.097236
    29  C   -0.116998
    30  C    0.068392
    31  C    0.020405
    32  C   -0.010873
    33  C   -0.071868
    34  N   -0.450085
    35  C    0.134076
    36  C   -0.190143
    37  C   -0.048022
    38  C    0.145644
    39  C    0.066242
    40  C    0.150533
    41  O   -0.221222
    42  C   -0.112479
    43  C    0.329100
    44  O   -0.264470
    45  O   -0.396619
    46  C    0.123781
    47  C    0.265249
    48  C   -0.126427
    49  C   -0.271584
    50  C    0.032511
    51  C    0.041600
    52  C   -0.061423
    53  C   -0.042150
    54  C   -0.215440
    55  C    0.009827
    56  C   -0.032609
    57  C   -0.051484
    58  C    0.012547
    59  C   -0.237146
    60  C    0.012768
    61  C   -0.018518
    62  C   -0.031365
    63  C   -0.036140
    64  C   -0.240763
    65  C   -0.033948
    66  C   -0.009436
    67  H   -0.002184
    68  H    0.023570
    69  H    0.002540
    70  H    0.066647
    71  H    0.055439
    72  H    0.048250
    73  H    0.042903
    74  H    0.059726
    75  H    0.051067
    76  H    0.050047
    77  H    0.070896
    78  H    0.054475
    79  H    0.065768
    80  H    0.026525
    81  H    0.061364
    82  H    0.057758
    83  H    0.057341
    84  H    0.058975
    85  H    0.037881
    86  H    0.036569
    87  H    0.055980
    88  H    0.051805
    89  H    0.034068
    90  H    0.050846
    91  H    0.041207
    92  H    0.047351
    93  H    0.050252
    94  H    0.027994
    95  H    0.056907
    96  H    0.057630
    97  H    0.062122
    98  H    0.087974
    99  H    0.069252
   100  H    0.043541
   101  H    0.038152
   102  H    0.045322
   103  H    0.052194
   104  H    0.019470
   105  H    0.040871
   106  H    0.048609
   107  H    0.049253
   108  H    0.028172
   109  H    0.035926
   110  H    0.040358
   111  H    0.045453
   112  H    0.046855
   113  H    0.037209
   114  H    0.040772
   115  H    0.038896
   116  H    0.026313
   117  H    0.032215
   118  H    0.028367
   119  H    0.040668
   120  H    0.021752
   121  H    0.022810
   122  H    0.021972
   123  H    0.019358
   124  H    0.035114
   125  H    0.025715
   126  H    0.040928
   127  H    0.033673
   128  H    0.017280
   129  H    0.029747
   130  H    0.033993
   131  H    0.026303
   132  H    0.020100
   133  H    0.038975
   134  H    0.027849
   135  H    0.050746
   136  H    0.022343
   137  H    0.037473
   138  H    0.025067
   139  H    0.043915
   140  H    0.025439
 Sum of Mulliken charges =  -0.00000

 Dipole moment (field-independent basis, Debye):
    X=             -1.5022    Y=              3.4516    Z=             -0.0339  Tot=              3.7645
 Quadrupole moment (field-independent basis, Debye-Ang):
   XX=           -370.0322   YY=           -416.7628   ZZ=           -408.5692
   XY=             -4.6250   XZ=             18.5414   YZ=             -1.2369

 Normal termination of Gaussian 16 at Thu May  5 12:16:41 2022.
