 Gaussian 16, Revision A.03,
 Gaussian 16:  ES64L-G16RevA.03 25-Dec-2016

 --------------------------------
 #p wB97XD/Def2SVP td=(nstates=5)
 --------------------------------

 ----------------------------------------------------
 step_851_chromophore_25 TDDFT with wB97XD functional
 ----------------------------------------------------
 Symbolic Z-matrix:
 Charge =  0 Multiplicity = 1

                         Standard orientation:
 ---------------------------------------------------------------------
 Center     Atomic      Atomic             Coordinates (Angstroms)
 Number     Number       Type             X           Y           Z
 ---------------------------------------------------------------------
      1         12           0        5.786342    0.449569    0.556009
      2          6           0        3.367638   -2.064506   -0.042918
      3          6           0        3.388345    2.779114   -0.119985
      4          6           0        8.117847    2.699441   -0.253040
      5          6           0        8.204229   -2.006431    0.739135
      6          7           0        3.567588    0.339787    0.074417
      7          6           0        2.833478   -0.780764   -0.101141
      8          6           0        1.388074   -0.425229   -0.261302
      9          6           0        1.423132    1.183706   -0.397212
     10          6           0        2.883237    1.491798   -0.180159
     11          6           0        0.832746    1.616244   -1.822997
     12          6           0        0.544232   -0.824600    0.996324
     13          6           0       -0.616989   -1.756104    0.818026
     14          6           0       -1.942053   -1.213900    1.295395
     15          8           0       -2.320623   -1.245618    2.498619
     16          8           0       -2.672300   -0.606350    0.274000
     17          7           0        5.763001    2.527482    0.255039
     18          6           0        4.679812    3.249966   -0.070720
     19          6           0        5.077437    4.622226   -0.246874
     20          6           0        6.508492    4.643167   -0.340726
     21          6           0        6.856041    3.266043   -0.130367
     22          6           0        4.080439    5.853372   -0.395364
     23          6           0        7.436112    5.806730   -0.608846
     24          8           0        8.664373    5.670142   -0.647120
     25          6           0        6.790542    7.048348   -1.081689
     26          7           0        7.864201    0.353731    0.336776
     27          6           0        8.609311    1.447753   -0.040870
     28          6           0       10.123788    0.951630   -0.254471
     29          6           0       10.199319   -0.372138    0.524557
     30          6           0        8.669929   -0.709834    0.522609
     31          6           0       10.440643    0.848676   -1.761685
     32          6           0       10.647355   -0.317246    2.052220
     33          6           0       11.779598   -1.222820    2.452449
     34          7           0        5.818238   -1.642677    0.567318
     35          6           0        6.874735   -2.478186    0.713517
     36          6           0        6.396721   -3.858290    0.626763
     37          6           0        5.029550   -3.752176    0.358203
     38          6           0        4.733450   -2.358592    0.256707
     39          6           0        7.208874   -5.114242    0.823023
     40          6           0        3.857084   -4.547005    0.163490
     41          8           0        3.696842   -5.773413    0.155120
     42          6           0        2.674192   -3.510713   -0.097395
     43          6           0        1.926668   -3.774453   -1.351200
     44          8           0        2.267587   -3.525610   -2.533900
     45          8           0        0.714384   -4.485168   -0.968553
     46          6           0       -0.158855   -4.802474   -2.049814
     47          6           0       -3.982069   -0.031727    0.639341
     48          6           0       -5.010345   -0.465549   -0.426769
     49          6           0       -5.893544   -1.497755   -0.366760
     50          6           0       -6.341509   -2.129469    0.950489
     51          6           0       -6.475195   -2.089436   -1.585026
     52          6           0       -7.987038   -1.804967   -1.956316
     53          6           0       -8.578439   -0.487791   -1.345597
     54          6           0       -9.042104    0.397816   -2.609336
     55          6           0       -7.923318    1.489423   -2.857861
     56          6           0      -10.372054    1.103613   -2.175824
     57          6           0      -11.616442    0.194508   -2.366144
     58          6           0      -12.933936    0.917408   -1.889536
     59          6           0      -13.292105    0.403555   -0.431888
     60          6           0      -14.401224   -0.681707   -0.419319
     61          6           0      -13.737172    1.678788    0.391784
     62          6           0      -13.590745    1.505902    1.890573
     63          6           0      -12.609605    2.563689    2.346462
     64          6           0      -11.594225    1.973094    3.374362
     65          6           0      -10.690624    0.943217    2.673114
     66          6           0      -12.108422    1.488887    4.731897
     67          1           0        2.568067    3.496399   -0.189228
     68          1           0        8.969126    3.331204   -0.514656
     69          1           0        8.973788   -2.781080    0.730295
     70          1           0        1.035472   -0.965228   -1.140516
     71          1           0        0.984849    1.658682    0.480345
     72          1           0        0.897579    0.694595   -2.400572
     73          1           0        1.522786    2.330812   -2.271467
     74          1           0       -0.177951    2.019702   -1.760483
     75          1           0        0.183619    0.073048    1.499086
     76          1           0        1.209438   -1.305812    1.712809
     77          1           0       -0.421592   -2.688644    1.346890
     78          1           0       -0.684896   -2.001483   -0.241762
     79          1           0        4.237969    6.602888    0.380258
     80          1           0        3.066355    5.486045   -0.236047
     81          1           0        4.045407    6.225099   -1.418766
     82          1           0        6.054391    6.799711   -1.846803
     83          1           0        7.534536    7.692526   -1.549608
     84          1           0        6.238885    7.555846   -0.290520
     85          1           0       10.850847    1.635021    0.183788
     86          1           0       10.832371   -1.140521    0.081233
     87          1           0       10.970238    1.652692   -2.272927
     88          1           0        9.491196    0.704926   -2.277893
     89          1           0       11.063436   -0.037034   -1.893258
     90          1           0        9.860027   -0.664834    2.722363
     91          1           0       10.836006    0.726705    2.302249
     92          1           0       11.455325   -2.154718    2.915742
     93          1           0       12.467383   -0.677208    3.099323
     94          1           0       12.327342   -1.542564    1.566204
     95          1           0        7.719006   -5.111489    1.786566
     96          1           0        7.897972   -5.273314   -0.006923
     97          1           0        6.452615   -5.897096    0.772330
     98          1           0        2.011168   -3.602383    0.762916
     99          1           0        0.443840   -5.102367   -2.906984
    100          1           0       -0.970467   -4.086374   -2.178961
    101          1           0       -0.797907   -5.658082   -1.831963
    102          1           0       -4.000005    1.056735    0.693509
    103          1           0       -4.322854   -0.336716    1.629095
    104          1           0       -5.025308   -0.091149   -1.450442
    105          1           0       -5.879239   -1.621289    1.796318
    106          1           0       -6.031611   -3.175619    0.953810
    107          1           0       -7.429373   -2.089389    0.991750
    108          1           0       -6.491830   -3.162211   -1.391952
    109          1           0       -5.768375   -2.034802   -2.412229
    110          1           0       -8.747482   -2.544370   -1.704388
    111          1           0       -7.941357   -1.678615   -3.038092
    112          1           0       -7.802558    0.013443   -0.767066
    113          1           0       -9.311631   -0.777445   -0.593249
    114          1           0       -9.283136   -0.163029   -3.512664
    115          1           0       -8.373881    2.480966   -2.842756
    116          1           0       -7.414579    1.413100   -3.819015
    117          1           0       -7.110996    1.289199   -2.158204
    118          1           0      -10.613185    1.964290   -2.800177
    119          1           0      -10.230139    1.421821   -1.142128
    120          1           0      -11.511640   -0.725478   -1.791806
    121          1           0      -11.822546   -0.147460   -3.380444
    122          1           0      -13.777378    0.776095   -2.564319
    123          1           0      -12.774194    1.995447   -1.897784
    124          1           0      -12.420985    0.031665    0.106727
    125          1           0      -14.903228   -0.699064   -1.386122
    126          1           0      -15.140220   -0.449580    0.347260
    127          1           0      -13.992893   -1.687022   -0.321570
    128          1           0      -14.811473    1.756117    0.225720
    129          1           0      -13.270314    2.590015    0.018368
    130          1           0      -13.289374    0.497792    2.175879
    131          1           0      -14.470643    1.760125    2.481018
    132          1           0      -13.200338    3.189046    3.014931
    133          1           0      -12.149478    3.193029    1.584687
    134          1           0      -10.948478    2.832319    3.554610
    135          1           0      -10.667146    0.990542    1.584798
    136          1           0      -11.105393   -0.029957    2.935516
    137          1           0       -9.696547    0.951351    3.120420
    138          1           0      -13.196980    1.451091    4.736254
    139          1           0      -11.788738    2.058076    5.605005
    140          1           0      -11.872344    0.450251    4.965677
 ---------------------------------------------------------------------

 SCF Done:  E(RwB97XD) =  -3007.85601278     A.U. after   19 cycles

 Excitation energies and oscillator strengths:

 Excited State   1:      Singlet-A      1.6753 eV  740.09 nm  f=0.3991  <S**2>=0.000
     245 -> 248        0.18545
     246 -> 247        0.68296
     245 <- 248        0.11591
 This state for optimization and/or second-order correction.
 Total Energy, E(TD-HF/TD-DFT) =  -3007.79444819
 Copying the excited state density for this state as the 1-particle RhoCI density.

 Excited State   2:      Singlet-A      2.2382 eV  553.94 nm  f=0.1035  <S**2>=0.000
     245 -> 247        0.63249
     246 -> 248       -0.30238

 Excited State   3:      Singlet-A      3.5189 eV  352.33 nm  f=0.1777  <S**2>=0.000
     242 -> 247        0.16933
     243 -> 247        0.52733
     245 -> 247        0.14670
     246 -> 248        0.39157

 Excited State   4:      Singlet-A      3.5406 eV  350.17 nm  f=0.1588  <S**2>=0.000
     240 -> 247        0.12938
     240 -> 249       -0.12427
     242 -> 247        0.39273
     243 -> 247       -0.38905
     245 -> 247        0.13912
     246 -> 248        0.33215

 Excited State   5:      Singlet-A      3.6250 eV  342.03 nm  f=0.1773  <S**2>=0.000
     240 -> 247        0.43830
     240 -> 249       -0.30452
     240 -> 250       -0.14239
     242 -> 247        0.16101
     243 -> 247        0.19122
     245 -> 247       -0.14670
     246 -> 248       -0.26006

 The electronic state is 1-A.
 Alpha  occ. eigenvalues --  -46.95483 -19.30792 -19.30084 -19.26355 -19.24811
 Alpha  occ. eigenvalues --  -19.24689 -19.24176 -14.46644 -14.46622 -14.44259
 Alpha  occ. eigenvalues --  -14.44134 -10.44638 -10.43801 -10.39836 -10.39279
 Alpha  occ. eigenvalues --  -10.36414 -10.35128 -10.34945 -10.34855 -10.34749
 Alpha  occ. eigenvalues --  -10.34480 -10.34036 -10.33783 -10.33775 -10.33736
 Alpha  occ. eigenvalues --  -10.33453 -10.33044 -10.32825 -10.32614 -10.32492
 Alpha  occ. eigenvalues --  -10.32430 -10.32282 -10.32229 -10.31744 -10.31389
 Alpha  occ. eigenvalues --  -10.31297 -10.31256 -10.31054 -10.30798 -10.30653
 Alpha  occ. eigenvalues --  -10.30518 -10.30453 -10.30245 -10.29975 -10.29868
 Alpha  occ. eigenvalues --  -10.29760 -10.29750 -10.29659 -10.29630 -10.29622
 Alpha  occ. eigenvalues --  -10.29612 -10.29579 -10.29464 -10.29301 -10.29186
 Alpha  occ. eigenvalues --  -10.29015 -10.28883 -10.28745 -10.28650 -10.28526
 Alpha  occ. eigenvalues --  -10.28370 -10.28308 -10.27965 -10.27925 -10.27884
 Alpha  occ. eigenvalues --  -10.27785  -3.21433  -1.95033  -1.94534  -1.94413
 Alpha  occ. eigenvalues --   -1.17075  -1.16441  -1.11776  -1.11726  -1.09515
 Alpha  occ. eigenvalues --   -1.08449  -1.07005  -1.06367  -1.05885  -1.05100
 Alpha  occ. eigenvalues --   -0.94247  -0.92480  -0.91792  -0.91518  -0.91118
 Alpha  occ. eigenvalues --   -0.90459  -0.90082  -0.89675  -0.88904  -0.88733
 Alpha  occ. eigenvalues --   -0.88577  -0.87468  -0.86169  -0.85962  -0.85460
 Alpha  occ. eigenvalues --   -0.84389  -0.84071  -0.83483  -0.82935  -0.82399
 Alpha  occ. eigenvalues --   -0.81257  -0.80627  -0.79861  -0.79239  -0.78062
 Alpha  occ. eigenvalues --   -0.77907  -0.77378  -0.77272  -0.76305  -0.75761
 Alpha  occ. eigenvalues --   -0.75426  -0.74898  -0.74070  -0.72527  -0.71452
 Alpha  occ. eigenvalues --   -0.70599  -0.70497  -0.69843  -0.68382  -0.68303
 Alpha  occ. eigenvalues --   -0.67429  -0.67299  -0.67100  -0.66724  -0.65656
 Alpha  occ. eigenvalues --   -0.65636  -0.65229  -0.64187  -0.63167  -0.62694
 Alpha  occ. eigenvalues --   -0.61862  -0.61270  -0.60892  -0.60725  -0.60422
 Alpha  occ. eigenvalues --   -0.59780  -0.59124  -0.58312  -0.57678  -0.57512
 Alpha  occ. eigenvalues --   -0.57240  -0.56577  -0.56206  -0.55850  -0.55759
 Alpha  occ. eigenvalues --   -0.55637  -0.55446  -0.55088  -0.55030  -0.54889
 Alpha  occ. eigenvalues --   -0.54733  -0.54550  -0.54445  -0.54264  -0.53898
 Alpha  occ. eigenvalues --   -0.53486  -0.53343  -0.53144  -0.53054  -0.52725
 Alpha  occ. eigenvalues --   -0.52564  -0.52258  -0.52037  -0.51671  -0.51532
 Alpha  occ. eigenvalues --   -0.51435  -0.51376  -0.51114  -0.50947  -0.50839
 Alpha  occ. eigenvalues --   -0.50613  -0.50395  -0.50007  -0.49710  -0.49435
 Alpha  occ. eigenvalues --   -0.49339  -0.49148  -0.49083  -0.48844  -0.48685
 Alpha  occ. eigenvalues --   -0.48549  -0.47950  -0.47714  -0.47554  -0.47508
 Alpha  occ. eigenvalues --   -0.47358  -0.47219  -0.47098  -0.47010  -0.46840
 Alpha  occ. eigenvalues --   -0.46809  -0.46370  -0.46154  -0.45924  -0.45595
 Alpha  occ. eigenvalues --   -0.45528  -0.45467  -0.45350  -0.45072  -0.44916
 Alpha  occ. eigenvalues --   -0.44675  -0.44363  -0.44288  -0.44117  -0.43984
 Alpha  occ. eigenvalues --   -0.43744  -0.43702  -0.43446  -0.42984  -0.42965
 Alpha  occ. eigenvalues --   -0.42807  -0.42721  -0.42534  -0.42475  -0.42336
 Alpha  occ. eigenvalues --   -0.41735  -0.41440  -0.41129  -0.41102  -0.40784
 Alpha  occ. eigenvalues --   -0.40709  -0.40461  -0.40353  -0.40009  -0.39765
 Alpha  occ. eigenvalues --   -0.39232  -0.39021  -0.38543  -0.38347  -0.38192
 Alpha  occ. eigenvalues --   -0.37802  -0.37083  -0.36532  -0.36319  -0.35863
 Alpha  occ. eigenvalues --   -0.35620  -0.35552  -0.35144  -0.34105  -0.33552
 Alpha  occ. eigenvalues --   -0.33403  -0.32706  -0.32418  -0.32101  -0.26409
 Alpha  occ. eigenvalues --   -0.23108
 Alpha virt. eigenvalues --   -0.07138   0.00140   0.01845   0.03815   0.04839
 Alpha virt. eigenvalues --    0.05503   0.05783   0.06827   0.08249   0.09441
 Alpha virt. eigenvalues --    0.10721   0.11191   0.11267   0.12343   0.12419

 Mulliken charges:
               1
     1  Mg   0.971301
     2  C   -0.021990
     3  C   -0.114236
     4  C   -0.062623
     5  C   -0.082128
     6  N   -0.336708
     7  C    0.002975
     8  C   -0.116311
     9  C   -0.097970
    10  C    0.024954
    11  C    0.038534
    12  C    0.025343
    13  C    0.038969
    14  C    0.212319
    15  O   -0.298972
    16  O   -0.369761
    17  N   -0.440582
    18  C    0.214877
    19  C   -0.171721
    20  C   -0.071256
    21  C    0.165072
    22  C    0.059566
    23  C    0.069849
    24  O   -0.238752
    25  C   -0.002695
    26  N   -0.374651
    27  C    0.021655
    28  C   -0.068139
    29  C   -0.091473
    30  C    0.058438
    31  C    0.026893
    32  C   -0.002166
    33  C   -0.055055
    34  N   -0.410339
    35  C    0.122398
    36  C   -0.185901
    37  C   -0.043699
    38  C    0.130598
    39  C    0.077109
    40  C    0.133692
    41  O   -0.210323
    42  C   -0.076141
    43  C    0.308297
    44  O   -0.258006
    45  O   -0.395648
    46  C    0.138321
    47  C    0.283113
    48  C   -0.136868
    49  C   -0.250950
    50  C    0.045867
    51  C    0.054461
    52  C   -0.046146
    53  C   -0.025189
    54  C   -0.185121
    55  C    0.024759
    56  C   -0.010117
    57  C   -0.032758
    58  C    0.025508
    59  C   -0.201173
    60  C    0.022725
    61  C    0.001877
    62  C   -0.017861
    63  C   -0.018209
    64  C   -0.209249
    65  C   -0.015399
    66  C   -0.001119
    67  H   -0.011016
    68  H    0.018964
    69  H   -0.001887
    70  H    0.051228
    71  H    0.045153
    72  H    0.042068
    73  H    0.036116
    74  H    0.055296
    75  H    0.043151
    76  H    0.041631
    77  H    0.066386
    78  H    0.043543
    79  H    0.060442
    80  H    0.021295
    81  H    0.055952
    82  H    0.049927
    83  H    0.056351
    84  H    0.053359
    85  H    0.029331
    86  H    0.025042
    87  H    0.051821
    88  H    0.044991
    89  H    0.027706
    90  H    0.041197
    91  H    0.033830
    92  H    0.041591
    93  H    0.045043
    94  H    0.020550
    95  H    0.052673
    96  H    0.053398
    97  H    0.057374
    98  H    0.078786
    99  H    0.065355
   100  H    0.039379
   101  H    0.033883
   102  H    0.041478
   103  H    0.044935
   104  H    0.014182
   105  H    0.035158
   106  H    0.042840
   107  H    0.042385
   108  H    0.019117
   109  H    0.030610
   110  H    0.034465
   111  H    0.035613
   112  H    0.030201
   113  H    0.027615
   114  H    0.029118
   115  H    0.033704
   116  H    0.021001
   117  H    0.020743
   118  H    0.018332
   119  H    0.026040
   120  H    0.008572
   121  H    0.016301
   122  H    0.014739
   123  H    0.009022
   124  H    0.012900
   125  H    0.019226
   126  H    0.034616
   127  H    0.028961
   128  H    0.007216
   129  H    0.018375
   130  H    0.021177
   131  H    0.019568
   132  H    0.009971
   133  H    0.031316
   134  H    0.017371
   135  H    0.037769
   136  H    0.013300
   137  H    0.032522
   138  H    0.018102
   139  H    0.039833
   140  H    0.019635
 Sum of Mulliken charges =  -0.00000

 Dipole moment (field-independent basis, Debye):
    X=             -1.5745    Y=              3.4932    Z=             -0.0734  Tot=              3.8324
 Quadrupole moment (field-independent basis, Debye-Ang):
   XX=           -371.0951   YY=           -414.9302   ZZ=           -408.3719
   XY=             -4.1905   XZ=             18.6530   YZ=             -1.3338

 Normal termination of Gaussian 16 at Thu May  5 13:07:26 2022.
