 Gaussian 16, Revision A.03,
 Gaussian 16:  ES64L-G16RevA.03 25-Dec-2016

 --------------------
 #p ZINDO=(nstates=5)
 --------------------

 -----------------------------
 step_851_chromophore_25 ZINDO
 -----------------------------
 Symbolic Z-matrix:
 Charge =  0 Multiplicity = 1

                         Standard orientation:
 ---------------------------------------------------------------------
 Center     Atomic      Atomic             Coordinates (Angstroms)
 Number     Number       Type             X           Y           Z
 ---------------------------------------------------------------------
      1         12           0        5.786342    0.449569    0.556009
      2          6           0        3.367638   -2.064506   -0.042918
      3          6           0        3.388345    2.779114   -0.119985
      4          6           0        8.117847    2.699441   -0.253040
      5          6           0        8.204229   -2.006431    0.739135
      6          7           0        3.567588    0.339787    0.074417
      7          6           0        2.833478   -0.780764   -0.101141
      8          6           0        1.388074   -0.425229   -0.261302
      9          6           0        1.423132    1.183706   -0.397212
     10          6           0        2.883237    1.491798   -0.180159
     11          6           0        0.832746    1.616244   -1.822997
     12          6           0        0.544232   -0.824600    0.996324
     13          6           0       -0.616989   -1.756104    0.818026
     14          6           0       -1.942053   -1.213900    1.295395
     15          8           0       -2.320623   -1.245618    2.498619
     16          8           0       -2.672300   -0.606350    0.274000
     17          7           0        5.763001    2.527482    0.255039
     18          6           0        4.679812    3.249966   -0.070720
     19          6           0        5.077437    4.622226   -0.246874
     20          6           0        6.508492    4.643167   -0.340726
     21          6           0        6.856041    3.266043   -0.130367
     22          6           0        4.080439    5.853372   -0.395364
     23          6           0        7.436112    5.806730   -0.608846
     24          8           0        8.664373    5.670142   -0.647120
     25          6           0        6.790542    7.048348   -1.081689
     26          7           0        7.864201    0.353731    0.336776
     27          6           0        8.609311    1.447753   -0.040870
     28          6           0       10.123788    0.951630   -0.254471
     29          6           0       10.199319   -0.372138    0.524557
     30          6           0        8.669929   -0.709834    0.522609
     31          6           0       10.440643    0.848676   -1.761685
     32          6           0       10.647355   -0.317246    2.052220
     33          6           0       11.779598   -1.222820    2.452449
     34          7           0        5.818238   -1.642677    0.567318
     35          6           0        6.874735   -2.478186    0.713517
     36          6           0        6.396721   -3.858290    0.626763
     37          6           0        5.029550   -3.752176    0.358203
     38          6           0        4.733450   -2.358592    0.256707
     39          6           0        7.208874   -5.114242    0.823023
     40          6           0        3.857084   -4.547005    0.163490
     41          8           0        3.696842   -5.773413    0.155120
     42          6           0        2.674192   -3.510713   -0.097395
     43          6           0        1.926668   -3.774453   -1.351200
     44          8           0        2.267587   -3.525610   -2.533900
     45          8           0        0.714384   -4.485168   -0.968553
     46          6           0       -0.158855   -4.802474   -2.049814
     47          6           0       -3.982069   -0.031727    0.639341
     48          6           0       -5.010345   -0.465549   -0.426769
     49          6           0       -5.893544   -1.497755   -0.366760
     50          6           0       -6.341509   -2.129469    0.950489
     51          6           0       -6.475195   -2.089436   -1.585026
     52          6           0       -7.987038   -1.804967   -1.956316
     53          6           0       -8.578439   -0.487791   -1.345597
     54          6           0       -9.042104    0.397816   -2.609336
     55          6           0       -7.923318    1.489423   -2.857861
     56          6           0      -10.372054    1.103613   -2.175824
     57          6           0      -11.616442    0.194508   -2.366144
     58          6           0      -12.933936    0.917408   -1.889536
     59          6           0      -13.292105    0.403555   -0.431888
     60          6           0      -14.401224   -0.681707   -0.419319
     61          6           0      -13.737172    1.678788    0.391784
     62          6           0      -13.590745    1.505902    1.890573
     63          6           0      -12.609605    2.563689    2.346462
     64          6           0      -11.594225    1.973094    3.374362
     65          6           0      -10.690624    0.943217    2.673114
     66          6           0      -12.108422    1.488887    4.731897
     67          1           0        2.568067    3.496399   -0.189228
     68          1           0        8.969126    3.331204   -0.514656
     69          1           0        8.973788   -2.781080    0.730295
     70          1           0        1.035472   -0.965228   -1.140516
     71          1           0        0.984849    1.658682    0.480345
     72          1           0        0.897579    0.694595   -2.400572
     73          1           0        1.522786    2.330812   -2.271467
     74          1           0       -0.177951    2.019702   -1.760483
     75          1           0        0.183619    0.073048    1.499086
     76          1           0        1.209438   -1.305812    1.712809
     77          1           0       -0.421592   -2.688644    1.346890
     78          1           0       -0.684896   -2.001483   -0.241762
     79          1           0        4.237969    6.602888    0.380258
     80          1           0        3.066355    5.486045   -0.236047
     81          1           0        4.045407    6.225099   -1.418766
     82          1           0        6.054391    6.799711   -1.846803
     83          1           0        7.534536    7.692526   -1.549608
     84          1           0        6.238885    7.555846   -0.290520
     85          1           0       10.850847    1.635021    0.183788
     86          1           0       10.832371   -1.140521    0.081233
     87          1           0       10.970238    1.652692   -2.272927
     88          1           0        9.491196    0.704926   -2.277893
     89          1           0       11.063436   -0.037034   -1.893258
     90          1           0        9.860027   -0.664834    2.722363
     91          1           0       10.836006    0.726705    2.302249
     92          1           0       11.455325   -2.154718    2.915742
     93          1           0       12.467383   -0.677208    3.099323
     94          1           0       12.327342   -1.542564    1.566204
     95          1           0        7.719006   -5.111489    1.786566
     96          1           0        7.897972   -5.273314   -0.006923
     97          1           0        6.452615   -5.897096    0.772330
     98          1           0        2.011168   -3.602383    0.762916
     99          1           0        0.443840   -5.102367   -2.906984
    100          1           0       -0.970467   -4.086374   -2.178961
    101          1           0       -0.797907   -5.658082   -1.831963
    102          1           0       -4.000005    1.056735    0.693509
    103          1           0       -4.322854   -0.336716    1.629095
    104          1           0       -5.025308   -0.091149   -1.450442
    105          1           0       -5.879239   -1.621289    1.796318
    106          1           0       -6.031611   -3.175619    0.953810
    107          1           0       -7.429373   -2.089389    0.991750
    108          1           0       -6.491830   -3.162211   -1.391952
    109          1           0       -5.768375   -2.034802   -2.412229
    110          1           0       -8.747482   -2.544370   -1.704388
    111          1           0       -7.941357   -1.678615   -3.038092
    112          1           0       -7.802558    0.013443   -0.767066
    113          1           0       -9.311631   -0.777445   -0.593249
    114          1           0       -9.283136   -0.163029   -3.512664
    115          1           0       -8.373881    2.480966   -2.842756
    116          1           0       -7.414579    1.413100   -3.819015
    117          1           0       -7.110996    1.289199   -2.158204
    118          1           0      -10.613185    1.964290   -2.800177
    119          1           0      -10.230139    1.421821   -1.142128
    120          1           0      -11.511640   -0.725478   -1.791806
    121          1           0      -11.822546   -0.147460   -3.380444
    122          1           0      -13.777378    0.776095   -2.564319
    123          1           0      -12.774194    1.995447   -1.897784
    124          1           0      -12.420985    0.031665    0.106727
    125          1           0      -14.903228   -0.699064   -1.386122
    126          1           0      -15.140220   -0.449580    0.347260
    127          1           0      -13.992893   -1.687022   -0.321570
    128          1           0      -14.811473    1.756117    0.225720
    129          1           0      -13.270314    2.590015    0.018368
    130          1           0      -13.289374    0.497792    2.175879
    131          1           0      -14.470643    1.760125    2.481018
    132          1           0      -13.200338    3.189046    3.014931
    133          1           0      -12.149478    3.193029    1.584687
    134          1           0      -10.948478    2.832319    3.554610
    135          1           0      -10.667146    0.990542    1.584798
    136          1           0      -11.105393   -0.029957    2.935516
    137          1           0       -9.696547    0.951351    3.120420
    138          1           0      -13.196980    1.451091    4.736254
    139          1           0      -11.788738    2.058076    5.605005
    140          1           0      -11.872344    0.450251    4.965677
 ---------------------------------------------------------------------

 SCF Done:  E(RZINDO/S) =  -474.133504868     A.U. after   19 cycles

 Excitation energies and oscillator strengths:

 Excited State   1:      Singlet-A      1.2376 eV 1001.83 nm  f=0.6444  <S**2>=0.000
     175 ->178        -0.18924
     176 ->177         0.66271
 This state for optimization and/or second-order correction.
 Total Energy, E(CIS/TDA) =  -474.088024609
 Copying the excited state density for this state as the 1-particle RhoCI density.

 Excited State   2:      Singlet-A      1.9603 eV  632.48 nm  f=0.0235  <S**2>=0.000
     175 ->177         0.52493
     176 ->178         0.44683

 Excited State   3:      Singlet-A      2.9365 eV  422.22 nm  f=0.0645  <S**2>=0.000
     175 ->177        -0.10875
     176 ->178         0.20350
     176 ->179         0.61061

 Excited State   4:      Singlet-A      2.9820 eV  415.77 nm  f=0.0057  <S**2>=0.000
     168 ->177         0.23302
     168 ->178        -0.11569
     168 ->179         0.32082
     168 ->180        -0.29488
     168 ->182         0.19441
     168 ->186         0.19460
     168 ->188         0.11620
     169 ->177        -0.13424
     169 ->179        -0.13782
     169 ->180         0.15050
     169 ->182        -0.10879

 Excited State   5:      Singlet-A      2.9970 eV  413.70 nm  f=0.9147  <S**2>=0.000
     175 ->177        -0.38680
     176 ->178         0.46151
     176 ->179        -0.21566
     176 ->180         0.15613

 The electronic state is 1-A.
 Alpha  occ. eigenvalues --   -1.84801  -1.82829  -1.80790  -1.72583  -1.70155
 Alpha  occ. eigenvalues --   -1.69012  -1.65863  -1.61747  -1.58628  -1.57230
 Alpha  occ. eigenvalues --   -1.55180  -1.50612  -1.48142  -1.47381  -1.46757
 Alpha  occ. eigenvalues --   -1.43505  -1.43148  -1.39423  -1.38946  -1.37462
 Alpha  occ. eigenvalues --   -1.35986  -1.33654  -1.33526  -1.31094  -1.29896
 Alpha  occ. eigenvalues --   -1.26708  -1.25028  -1.22284  -1.19800  -1.18284
 Alpha  occ. eigenvalues --   -1.17362  -1.15903  -1.15488  -1.15012  -1.13282
 Alpha  occ. eigenvalues --   -1.12088  -1.11516  -1.11038  -1.05419  -1.04054
 Alpha  occ. eigenvalues --   -1.03683  -1.01560  -1.00569  -0.99023  -0.97758
 Alpha  occ. eigenvalues --   -0.95199  -0.94734  -0.93289  -0.92669  -0.91755
 Alpha  occ. eigenvalues --   -0.91246  -0.90620  -0.89735  -0.88347  -0.87369
 Alpha  occ. eigenvalues --   -0.84891  -0.84119  -0.83884  -0.82471  -0.80913
 Alpha  occ. eigenvalues --   -0.78725  -0.78560  -0.77572  -0.77039  -0.76815
 Alpha  occ. eigenvalues --   -0.76031  -0.75102  -0.74827  -0.74172  -0.73654
 Alpha  occ. eigenvalues --   -0.72961  -0.72630  -0.72315  -0.71616  -0.71265
 Alpha  occ. eigenvalues --   -0.70184  -0.69827  -0.69085  -0.69023  -0.68244
 Alpha  occ. eigenvalues --   -0.67932  -0.67261  -0.66848  -0.66556  -0.66313
 Alpha  occ. eigenvalues --   -0.65695  -0.64854  -0.64245  -0.63940  -0.63758
 Alpha  occ. eigenvalues --   -0.63539  -0.63354  -0.62507  -0.62274  -0.61963
 Alpha  occ. eigenvalues --   -0.61344  -0.61042  -0.60908  -0.60044  -0.59822
 Alpha  occ. eigenvalues --   -0.59489  -0.59410  -0.58636  -0.58213  -0.57939
 Alpha  occ. eigenvalues --   -0.57783  -0.57519  -0.56903  -0.56800  -0.56667
 Alpha  occ. eigenvalues --   -0.56301  -0.55741  -0.55387  -0.55324  -0.55126
 Alpha  occ. eigenvalues --   -0.54878  -0.54194  -0.53604  -0.53443  -0.52810
 Alpha  occ. eigenvalues --   -0.52798  -0.52427  -0.51901  -0.51733  -0.51513
 Alpha  occ. eigenvalues --   -0.51248  -0.51113  -0.50951  -0.50759  -0.50274
 Alpha  occ. eigenvalues --   -0.49772  -0.49395  -0.49198  -0.49187  -0.48760
 Alpha  occ. eigenvalues --   -0.48726  -0.48405  -0.48085  -0.47995  -0.47665
 Alpha  occ. eigenvalues --   -0.47556  -0.47327  -0.46992  -0.46833  -0.46554
 Alpha  occ. eigenvalues --   -0.46429  -0.46411  -0.46260  -0.45914  -0.45608
 Alpha  occ. eigenvalues --   -0.45342  -0.45275  -0.44651  -0.44559  -0.43857
 Alpha  occ. eigenvalues --   -0.43830  -0.42864  -0.42274  -0.42199  -0.42038
 Alpha  occ. eigenvalues --   -0.41568  -0.41224  -0.40923  -0.39853  -0.39228
 Alpha  occ. eigenvalues --   -0.38959  -0.37350  -0.35750  -0.35650  -0.34888
 Alpha  occ. eigenvalues --   -0.33292  -0.33122  -0.32618  -0.31820  -0.27103
 Alpha  occ. eigenvalues --   -0.21688
 Alpha virt. eigenvalues --   -0.08630  -0.02153  -0.00953   0.00498   0.00846
 Alpha virt. eigenvalues --    0.01423   0.01647   0.02861   0.04310   0.04775
 Alpha virt. eigenvalues --    0.06124   0.06324   0.07443   0.07608   0.08094

 Mulliken charges:
               1
     1  Mg   0.427404
     2  C   -0.071308
     3  C   -0.078553
     4  C   -0.049300
     5  C   -0.072438
     6  N   -0.294588
     7  C    0.148062
     8  C   -0.000709
     9  C   -0.007883
    10  C    0.129773
    11  C   -0.054475
    12  C   -0.017488
    13  C    0.014800
    14  C    0.468982
    15  O   -0.532431
    16  O   -0.262997
    17  N   -0.324268
    18  C    0.132600
    19  C   -0.018489
    20  C   -0.049489
    21  C    0.144121
    22  C   -0.052250
    23  C    0.335533
    24  O   -0.524933
    25  C   -0.027618
    26  N   -0.269673
    27  C    0.116774
    28  C    0.014367
    29  C   -0.000678
    30  C    0.138516
    31  C   -0.050333
    32  C   -0.029236
    33  C   -0.053017
    34  N   -0.309694
    35  C    0.100759
    36  C    0.039372
    37  C   -0.052289
    38  C    0.120688
    39  C   -0.039233
    40  C    0.338059
    41  O   -0.520249
    42  C    0.055090
    43  C    0.481901
    44  O   -0.508495
    45  O   -0.278251
    46  C    0.069758
    47  C    0.110964
    48  C   -0.121087
    49  C    0.014426
    50  C   -0.046280
    51  C   -0.019025
    52  C   -0.040806
    53  C   -0.045016
    54  C   -0.019207
    55  C   -0.066348
    56  C   -0.035149
    57  C   -0.041496
    58  C   -0.044156
    59  C   -0.018340
    60  C   -0.056103
    61  C   -0.041398
    62  C   -0.034233
    63  C   -0.036761
    64  C   -0.008818
    65  C   -0.058778
    66  C   -0.051068
    67  H    0.017972
    68  H    0.035873
    69  H    0.020812
    70  H    0.041710
    71  H    0.042586
    72  H    0.028886
    73  H    0.024451
    74  H    0.030215
    75  H    0.030029
    76  H    0.024016
    77  H    0.042909
    78  H    0.032373
    79  H    0.035890
    80  H    0.013359
    81  H    0.034331
    82  H    0.034402
    83  H    0.034914
    84  H    0.041554
    85  H    0.025602
    86  H    0.035804
    87  H    0.030406
    88  H    0.023157
    89  H    0.013537
    90  H    0.022166
    91  H    0.023869
    92  H    0.021606
    93  H    0.021152
    94  H    0.012996
    95  H    0.034613
    96  H    0.036081
    97  H    0.034053
    98  H    0.054953
    99  H    0.056364
   100  H    0.038699
   101  H    0.022909
   102  H    0.038477
   103  H    0.056621
   104  H    0.027334
   105  H    0.028105
   106  H    0.028092
   107  H    0.029773
   108  H    0.011949
   109  H    0.026756
   110  H    0.028734
   111  H    0.018105
   112  H    0.026430
   113  H    0.022346
   114  H    0.035528
   115  H    0.026222
   116  H    0.012028
   117  H    0.025995
   118  H    0.014628
   119  H    0.025157
   120  H    0.015502
   121  H    0.018306
   122  H    0.020236
   123  H    0.017808
   124  H    0.025431
   125  H    0.016574
   126  H    0.024149
   127  H    0.018229
   128  H    0.008197
   129  H    0.026865
   130  H    0.025657
   131  H    0.017297
   132  H    0.004219
   133  H    0.032893
   134  H    0.002687
   135  H    0.023018
   136  H    0.011316
   137  H    0.015555
   138  H    0.013851
   139  H    0.022317
   140  H    0.015846
 Sum of Mulliken charges =  -0.00000

 Dipole moment (field-independent basis, Debye):
    X=             -3.1552    Y=              3.7406    Z=             -0.5777  Tot=              4.9276
 N-N= 4.310875500740D+03 E-N= 0.000000000000D+00  KE=-9.295514410567D+03
 Leave Link  601 at Thu May  5 13:28:08 2022, MaxMem=  6710886400 cpu:               0.7 elap:               0.0
 (Enter /sw/apps/gaussian-16.0/g16/l9999.exe)
 1\1\GINC-BP1-COMPUTE164\SP\RZINDO CIS\STO-3G\C55H74Mg1N4O6\OF15641\05-
 May-2022\0\\#p ZINDO=(nstates=5)\\step_851_chromophore_25 ZINDO\\0,1\M
 g,0,-3.338,34.658,26.186\C,0,-4.642,33.048,29.056\C,0,-2.185,37.139,28
 .223\C,0,-3.319,36.819,23.64\C,0,-4.969,32.338,24.219\N,0,-3.333,34.98
 1,28.436\C,0,-3.91,34.19,29.367\C,0,-3.557,34.674,30.739\C,0,-2.838,36
 .091,30.45\C,0,-2.801,36.13,28.943\C,0,-3.67,37.269,31.149\C,0,-2.549,
 33.714,31.457\C,0,-2.941,33.112,32.773\C,0,-1.988,33.397,33.908\O,0,-0

 Normal termination of Gaussian 16 at Thu May  5 13:28:09 2022.
