 Gaussian 16, Revision A.03,
 Gaussian 16:  ES64L-G16RevA.03 25-Dec-2016

 ------------------------------
 #p blyp/Def2SVP td=(nstates=5)
 ------------------------------

 ---------------------------------------------------
 step_1051_chromophore_21 TDDFT with blyp functional
 ---------------------------------------------------
 Symbolic Z-matrix:
 Charge =  0 Multiplicity = 1

                         Standard orientation:
 ---------------------------------------------------------------------
 Center     Atomic      Atomic             Coordinates (Angstroms)
 Number     Number       Type             X           Y           Z
 ---------------------------------------------------------------------
      1         12           0        5.115569    1.096743    0.088200
      2          6           0        4.843177   -2.331073    0.260265
      3          6           0        1.745396    1.327064   -0.035167
      4          6           0        5.454752    4.367260   -0.159424
      5          6           0        8.660851    0.783844    0.159023
      6          7           0        3.524094   -0.408790    0.176114
      7          6           0        3.573299   -1.691971    0.364380
      8          6           0        2.227107   -2.344749    0.474238
      9          6           0        1.286717   -1.248753   -0.104588
     10          6           0        2.209994   -0.026216   -0.029466
     11          6           0        0.647632   -1.512197   -1.487902
     12          6           0        1.877204   -2.788839    1.898828
     13          6           0        1.272539   -4.195558    1.990354
     14          6           0        0.259996   -4.605921    0.872973
     15          8           0        0.328023   -5.607158    0.136833
     16          8           0       -0.809057   -3.681187    0.806554
     17          7           0        3.721786    2.651079    0.071695
     18          6           0        2.392697    2.547630   -0.001938
     19          6           0        1.796848    3.891181   -0.006076
     20          6           0        2.874893    4.781985   -0.160043
     21          6           0        4.092473    3.911680   -0.129442
     22          6           0        0.291770    4.072989    0.088187
     23          6           0        2.933577    6.226566   -0.379704
     24          8           0        3.961546    6.829289   -0.497393
     25          6           0        1.674030    6.980827   -0.371427
     26          7           0        6.901640    2.432905   -0.134696
     27          6           0        6.655862    3.726991    0.005754
     28          6           0        8.043232    4.505343   -0.052680
     29          6           0        9.093277    3.323973    0.002530
     30          6           0        8.203852    2.111141    0.081914
     31          6           0        8.393973    5.575923   -1.081145
     32          6           0       10.198294    3.420840    1.205166
     33          6           0       11.619994    3.696233    0.874452
     34          7           0        6.506344   -0.412429   -0.058865
     35          6           0        7.907600   -0.399347   -0.017943
     36          6           0        8.356071   -1.810375   -0.058568
     37          6           0        7.148670   -2.622913    0.034814
     38          6           0        6.069576   -1.693993   -0.023442
     39          6           0        9.828286   -2.234719   -0.012653
     40          6           0        6.643004   -3.998363    0.266992
     41          8           0        7.108199   -5.092845    0.420131
     42          6           0        5.125991   -3.782020    0.248384
     43          6           0        4.694266   -4.457257   -1.030058
     44          8           0        5.189523   -4.397503   -2.130454
     45          8           0        3.648347   -5.294186   -0.738765
     46          6           0        3.233030   -6.285309   -1.722703
     47          6           0       -1.964142   -4.157593    0.018586
     48          6           0       -3.016048   -3.056424   -0.234085
     49          6           0       -4.152059   -3.101962   -0.954582
     50          6           0       -4.651632   -4.334332   -1.684966
     51          6           0       -5.152957   -1.896068   -1.093477
     52          6           0       -6.407686   -1.860899   -0.204350
     53          6           0       -6.495626   -0.542950    0.644266
     54          6           0       -7.829756    0.247809    0.445188
     55          6           0       -7.749270    1.560892    1.189392
     56          6           0       -8.958846   -0.700420    1.167156
     57          6           0      -10.290436   -0.793956    0.462584
     58          6           0      -11.431136   -0.690304    1.408468
     59          6           0      -12.292759    0.559560    1.266936
     60          6           0      -13.065778    0.792926    2.611193
     61          6           0      -13.407671    0.372434    0.175099
     62          6           0      -13.718592    1.718623   -0.504361
     63          6           0      -15.011358    2.361935    0.050857
     64          6           0      -16.071095    2.631446   -0.971595
     65          6           0      -16.670346    1.317537   -1.506299
     66          6           0      -15.676986    3.628081   -2.076371
     67          1           0        0.660884    1.451893   -0.023138
     68          1           0        5.648759    5.438795   -0.234471
     69          1           0        9.724429    0.538900    0.199254
     70          1           0        2.251775   -3.159737   -0.248438
     71          1           0        0.432595   -1.158679    0.567214
     72          1           0        0.575570   -2.560983   -1.774557
     73          1           0        1.264313   -0.963588   -2.199760
     74          1           0       -0.378670   -1.149380   -1.546525
     75          1           0        1.173006   -2.168798    2.453995
     76          1           0        2.761491   -2.734314    2.532557
     77          1           0        0.856058   -4.336013    2.987223
     78          1           0        2.118114   -4.876937    1.891544
     79          1           0       -0.291606    3.180960    0.315089
     80          1           0       -0.089805    4.507485   -0.836494
     81          1           0        0.117673    4.783622    0.895308
     82          1           0        1.108211    6.661399    0.503882
     83          1           0        1.037829    6.780745   -1.234529
     84          1           0        1.932180    8.025828   -0.197781
     85          1           0        8.054986    5.080696    0.872842
     86          1           0        9.661299    3.255077   -0.925849
     87          1           0        8.306139    6.610481   -0.749050
     88          1           0        8.031685    5.393253   -2.092147
     89          1           0        9.470114    5.421623   -1.167001
     90          1           0       10.187581    2.514959    1.810884
     91          1           0        9.916429    4.260364    1.841556
     92          1           0       11.849697    4.761826    0.865471
     93          1           0       11.801846    3.278760   -0.115728
     94          1           0       12.333317    3.336100    1.615995
     95          1           0        9.661307   -3.181451    0.501173
     96          1           0       10.483114   -1.613851    0.598779
     97          1           0       10.198049   -2.456811   -1.014103
     98          1           0        4.718628   -4.369693    1.071031
     99          1           0        2.207472   -6.605133   -1.534099
    100          1           0        3.858441   -7.176754   -1.686078
    101          1           0        3.150181   -5.780728   -2.685690
    102          1           0       -2.411121   -4.926641    0.649093
    103          1           0       -1.695089   -4.635894   -0.923296
    104          1           0       -2.772431   -2.073226    0.166892
    105          1           0       -5.715634   -4.458574   -1.479189
    106          1           0       -4.116651   -5.228057   -1.365067
    107          1           0       -4.543111   -4.159578   -2.755088
    108          1           0       -5.475259   -1.854625   -2.133595
    109          1           0       -4.677473   -0.921014   -0.983260
    110          1           0       -6.516893   -2.645374    0.544533
    111          1           0       -7.304774   -2.124957   -0.763034
    112          1           0       -5.722793    0.189413    0.409017
    113          1           0       -6.334421   -0.795689    1.692087
    114          1           0       -8.098386    0.326311   -0.608306
    115          1           0       -7.333531    1.399926    2.184017
    116          1           0       -8.761939    1.916403    1.380478
    117          1           0       -7.210606    2.184746    0.475157
    118          1           0       -9.019246   -0.445774    2.225471
    119          1           0       -8.651369   -1.746117    1.166564
    120          1           0      -10.221573   -1.749901   -0.057005
    121          1           0      -10.314322   -0.035224   -0.320193
    122          1           0      -11.110426   -0.886649    2.431987
    123          1           0      -11.984726   -1.614668    1.240493
    124          1           0      -11.700182    1.462506    1.124398
    125          1           0      -13.882530    1.503929    2.488087
    126          1           0      -12.537436    1.463952    3.288272
    127          1           0      -13.532108   -0.077258    3.072907
    128          1           0      -14.319823   -0.039222    0.606273
    129          1           0      -13.078152   -0.349933   -0.571165
    130          1           0      -13.731007    1.591621   -1.586506
    131          1           0      -12.880668    2.342971   -0.191455
    132          1           0      -14.772947    3.288907    0.571894
    133          1           0      -15.448429    1.708019    0.805885
    134          1           0      -16.871324    3.068474   -0.374676
    135          1           0      -16.082295    0.453625   -1.196923
    136          1           0      -16.726272    1.394226   -2.591706
    137          1           0      -17.696505    1.168106   -1.170006
    138          1           0      -16.236815    4.563612   -2.060078
    139          1           0      -15.974696    3.232837   -3.047885
    140          1           0      -14.601153    3.797907   -2.057980
 ---------------------------------------------------------------------

 SCF Done:  E(RB-LYP) =  -3007.37386795     A.U. after   20 cycles

 Excitation energies and oscillator strengths:

 Excited State   1:      Singlet-A      1.8401 eV  673.80 nm  f=0.2732  <S**2>=0.000
     245 -> 248        0.22150
     246 -> 247        0.67459
     246 <- 247       -0.13373
 This state for optimization and/or second-order correction.
 Total Energy, E(TD-HF/TD-DFT) =  -3007.30624680
 Copying the excited state density for this state as the 1-particle RhoCI density.

 Excited State   2:      Singlet-A      1.9550 eV  634.20 nm  f=0.0822  <S**2>=0.000
     243 -> 247       -0.15789
     245 -> 247        0.63992
     246 -> 248       -0.22284

 Excited State   3:      Singlet-A      2.0473 eV  605.61 nm  f=0.0028  <S**2>=0.000
     244 -> 247        0.70479

 Excited State   4:      Singlet-A      2.2026 eV  562.90 nm  f=0.0068  <S**2>=0.000
     243 -> 247        0.67971
     245 -> 247        0.12828
     246 -> 248       -0.12649

 Excited State   5:      Singlet-A      2.6230 eV  472.68 nm  f=0.0024  <S**2>=0.000
     242 -> 247        0.68559

 The electronic state is 1-A.
 Alpha  occ. eigenvalues --  -46.27387 -18.83123 -18.81084 -18.78518 -18.76219
 Alpha  occ. eigenvalues --  -18.75843 -18.74994 -14.03288 -14.02153 -14.01133
 Alpha  occ. eigenvalues --  -14.00492 -10.05706 -10.03345  -9.99418  -9.98939
 Alpha  occ. eigenvalues --   -9.98790  -9.96562  -9.96491  -9.96067  -9.96055
 Alpha  occ. eigenvalues --   -9.95789  -9.95365  -9.95360  -9.95029  -9.94430
 Alpha  occ. eigenvalues --   -9.94402  -9.94241  -9.93973  -9.93782  -9.93778
 Alpha  occ. eigenvalues --   -9.93734  -9.93641  -9.93628  -9.93611  -9.93283
 Alpha  occ. eigenvalues --   -9.93272  -9.92796  -9.92788  -9.92763  -9.92723
 Alpha  occ. eigenvalues --   -9.92692  -9.92468  -9.92433  -9.92433  -9.92409
 Alpha  occ. eigenvalues --   -9.92228  -9.92221  -9.92134  -9.92052  -9.91793
 Alpha  occ. eigenvalues --   -9.91781  -9.91487  -9.91430  -9.91420  -9.91387
 Alpha  occ. eigenvalues --   -9.91353  -9.91103  -9.90988  -9.90876  -9.90754
 Alpha  occ. eigenvalues --   -9.90746  -9.90659  -9.90628  -9.90587  -9.90585
 Alpha  occ. eigenvalues --   -9.90572  -2.91922  -1.72370  -1.71812  -1.71611
 Alpha  occ. eigenvalues --   -0.97398  -0.97223  -0.92823  -0.92548  -0.89944
 Alpha  occ. eigenvalues --   -0.89456  -0.87693  -0.86854  -0.85882  -0.84308
 Alpha  occ. eigenvalues --   -0.75636  -0.73777  -0.73521  -0.73133  -0.72376
 Alpha  occ. eigenvalues --   -0.71893  -0.71291  -0.71223  -0.70825  -0.70392
 Alpha  occ. eigenvalues --   -0.69328  -0.68742  -0.68404  -0.67505  -0.67188
 Alpha  occ. eigenvalues --   -0.66675  -0.66207  -0.65342  -0.64810  -0.64565
 Alpha  occ. eigenvalues --   -0.64339  -0.62716  -0.62427  -0.61835  -0.60501
 Alpha  occ. eigenvalues --   -0.60399  -0.60160  -0.59780  -0.59716  -0.59207
 Alpha  occ. eigenvalues --   -0.58627  -0.57088  -0.56650  -0.56063  -0.53863
 Alpha  occ. eigenvalues --   -0.53761  -0.53540  -0.53278  -0.52832  -0.51759
 Alpha  occ. eigenvalues --   -0.51745  -0.51141  -0.50617  -0.50401  -0.50220
 Alpha  occ. eigenvalues --   -0.50025  -0.49543  -0.47949  -0.47370  -0.46976
 Alpha  occ. eigenvalues --   -0.46576  -0.46043  -0.45309  -0.44880  -0.44370
 Alpha  occ. eigenvalues --   -0.43932  -0.43136  -0.42943  -0.42557  -0.42183
 Alpha  occ. eigenvalues --   -0.41821  -0.41710  -0.41568  -0.41371  -0.41248
 Alpha  occ. eigenvalues --   -0.41180  -0.41067  -0.40438  -0.40382  -0.40140
 Alpha  occ. eigenvalues --   -0.40008  -0.39835  -0.39746  -0.39627  -0.39254
 Alpha  occ. eigenvalues --   -0.38992  -0.38907  -0.38767  -0.38583  -0.38404
 Alpha  occ. eigenvalues --   -0.38173  -0.37740  -0.37705  -0.37609  -0.37363
 Alpha  occ. eigenvalues --   -0.37196  -0.36951  -0.36655  -0.36608  -0.36576
 Alpha  occ. eigenvalues --   -0.36498  -0.36275  -0.36172  -0.35977  -0.35817
 Alpha  occ. eigenvalues --   -0.35708  -0.35645  -0.35408  -0.34843  -0.34533
 Alpha  occ. eigenvalues --   -0.34460  -0.34361  -0.34160  -0.34110  -0.33961
 Alpha  occ. eigenvalues --   -0.33693  -0.33652  -0.33420  -0.33180  -0.32990
 Alpha  occ. eigenvalues --   -0.32892  -0.32785  -0.32640  -0.32500  -0.32055
 Alpha  occ. eigenvalues --   -0.31854  -0.31762  -0.31709  -0.31492  -0.31405
 Alpha  occ. eigenvalues --   -0.31325  -0.31288  -0.31099  -0.31078  -0.30736
 Alpha  occ. eigenvalues --   -0.30578  -0.30288  -0.30122  -0.29910  -0.29904
 Alpha  occ. eigenvalues --   -0.29614  -0.29504  -0.29070  -0.28973  -0.28940
 Alpha  occ. eigenvalues --   -0.28908  -0.28486  -0.28467  -0.28309  -0.27759
 Alpha  occ. eigenvalues --   -0.27691  -0.27573  -0.27462  -0.26716  -0.26204
 Alpha  occ. eigenvalues --   -0.26155  -0.26078  -0.25904  -0.25245  -0.25202
 Alpha  occ. eigenvalues --   -0.25144  -0.24495  -0.24456  -0.23710  -0.23099
 Alpha  occ. eigenvalues --   -0.23016  -0.22406  -0.22292  -0.21527  -0.20956
 Alpha  occ. eigenvalues --   -0.20754  -0.20047  -0.18881  -0.18462  -0.16635
 Alpha  occ. eigenvalues --   -0.15553
 Alpha virt. eigenvalues --   -0.11028  -0.06595  -0.06018  -0.04938  -0.04314
 Alpha virt. eigenvalues --   -0.02009  -0.01609  -0.01446  -0.01260   0.00266
 Alpha virt. eigenvalues --    0.01172   0.02079   0.02321   0.02553   0.02887

 Mulliken charges:
               1
     1  Mg   0.675595
     2  C   -0.022698
     3  C   -0.060086
     4  C   -0.048202
     5  C   -0.056234
     6  N   -0.175639
     7  C   -0.080672
     8  C    0.025480
     9  C   -0.000972
    10  C    0.021968
    11  C    0.125923
    12  C    0.144018
    13  C    0.125114
    14  C    0.121559
    15  O   -0.194156
    16  O   -0.308970
    17  N   -0.244294
    18  C    0.102371
    19  C   -0.126007
    20  C    0.050735
    21  C    0.095945
    22  C    0.164013
    23  C   -0.121381
    24  O   -0.136558
    25  C    0.144729
    26  N   -0.193784
    27  C    0.021760
    28  C    0.013841
    29  C    0.023133
    30  C    0.038854
    31  C    0.145600
    32  C    0.081147
    33  C    0.060827
    34  N   -0.289472
    35  C    0.084049
    36  C   -0.174436
    37  C    0.000237
    38  C    0.127912
    39  C    0.152011
    40  C   -0.028685
    41  O   -0.096954
    42  C    0.064670
    43  C    0.101072
    44  O   -0.155059
    45  O   -0.277674
    46  C    0.210923
    47  C    0.298528
    48  C   -0.084806
    49  C   -0.148745
    50  C    0.140826
    51  C    0.144050
    52  C    0.076113
    53  C    0.069598
    54  C   -0.082973
    55  C    0.142826
    56  C    0.035222
    57  C    0.107037
    58  C    0.142341
    59  C   -0.057129
    60  C    0.093747
    61  C    0.091649
    62  C    0.090154
    63  C    0.063741
    64  C   -0.070558
    65  C    0.101656
    66  C    0.121353
    67  H   -0.082436
    68  H   -0.037774
    69  H   -0.065235
    70  H   -0.010216
    71  H   -0.027188
    72  H   -0.000692
    73  H   -0.008522
    74  H   -0.009259
    75  H   -0.019133
    76  H   -0.021167
    77  H    0.002836
    78  H    0.000842
    79  H   -0.007201
    80  H    0.005597
    81  H    0.003889
    82  H   -0.016674
    83  H    0.011372
    84  H   -0.008713
    85  H   -0.027698
    86  H   -0.013884
    87  H   -0.002740
    88  H   -0.004144
    89  H   -0.025510
    90  H   -0.015892
    91  H   -0.027968
    92  H   -0.013939
    93  H   -0.010827
    94  H   -0.012111
    95  H    0.007514
    96  H    0.004490
    97  H    0.015651
    98  H   -0.019305
    99  H    0.016083
   100  H    0.022543
   101  H    0.007746
   102  H    0.003127
   103  H    0.020262
   104  H   -0.036226
   105  H   -0.006120
   106  H   -0.009329
   107  H    0.004545
   108  H   -0.037703
   109  H   -0.034514
   110  H   -0.026392
   111  H   -0.027793
   112  H   -0.040886
   113  H   -0.027054
   114  H   -0.034567
   115  H   -0.012568
   116  H   -0.019999
   117  H   -0.006653
   118  H   -0.039282
   119  H   -0.044889
   120  H   -0.040917
   121  H   -0.034846
   122  H   -0.043934
   123  H   -0.053195
   124  H   -0.030291
   125  H   -0.044021
   126  H   -0.032932
   127  H   -0.006748
   128  H   -0.024756
   129  H   -0.046466
   130  H   -0.022479
   131  H   -0.038414
   132  H   -0.038476
   133  H   -0.023995
   134  H   -0.046718
   135  H   -0.010948
   136  H   -0.027888
   137  H   -0.017408
   138  H   -0.017759
   139  H   -0.031998
   140  H   -0.006289
 Sum of Mulliken charges =  -0.00000

 Dipole moment (field-independent basis, Debye):
    X=             -5.9122    Y=              2.3617    Z=              2.1119  Tot=              6.7076
 Quadrupole moment (field-independent basis, Debye-Ang):
   XX=           -392.6328   YY=           -436.2887   ZZ=           -403.4864
   XY=             31.4867   XZ=             15.5098   YZ=              0.3956

 Normal termination of Gaussian 16 at Wed Apr 27 03:47:42 2022.
