 Gaussian 16, Revision A.03,
 Gaussian 16:  ES64L-G16RevA.03 25-Dec-2016

 -----------------------------------
 #p cam-b3lyp/Def2SVP td=(nstates=5)
 -----------------------------------

 --------------------------------------------------------
 step_1051_chromophore_21 TDDFT with cam-b3lyp functional
 --------------------------------------------------------
 Symbolic Z-matrix:
 Charge =  0 Multiplicity = 1

                         Standard orientation:
 ---------------------------------------------------------------------
 Center     Atomic      Atomic             Coordinates (Angstroms)
 Number     Number       Type             X           Y           Z
 ---------------------------------------------------------------------
      1         12           0        5.115569    1.096743    0.088200
      2          6           0        4.843177   -2.331073    0.260265
      3          6           0        1.745396    1.327064   -0.035167
      4          6           0        5.454752    4.367260   -0.159424
      5          6           0        8.660851    0.783844    0.159023
      6          7           0        3.524094   -0.408790    0.176114
      7          6           0        3.573299   -1.691971    0.364380
      8          6           0        2.227107   -2.344749    0.474238
      9          6           0        1.286717   -1.248753   -0.104588
     10          6           0        2.209994   -0.026216   -0.029466
     11          6           0        0.647632   -1.512197   -1.487902
     12          6           0        1.877204   -2.788839    1.898828
     13          6           0        1.272539   -4.195558    1.990354
     14          6           0        0.259996   -4.605921    0.872973
     15          8           0        0.328023   -5.607158    0.136833
     16          8           0       -0.809057   -3.681187    0.806554
     17          7           0        3.721786    2.651079    0.071695
     18          6           0        2.392697    2.547630   -0.001938
     19          6           0        1.796848    3.891181   -0.006076
     20          6           0        2.874893    4.781985   -0.160043
     21          6           0        4.092473    3.911680   -0.129442
     22          6           0        0.291770    4.072989    0.088187
     23          6           0        2.933577    6.226566   -0.379704
     24          8           0        3.961546    6.829289   -0.497393
     25          6           0        1.674030    6.980827   -0.371427
     26          7           0        6.901640    2.432905   -0.134696
     27          6           0        6.655862    3.726991    0.005754
     28          6           0        8.043232    4.505343   -0.052680
     29          6           0        9.093277    3.323973    0.002530
     30          6           0        8.203852    2.111141    0.081914
     31          6           0        8.393973    5.575923   -1.081145
     32          6           0       10.198294    3.420840    1.205166
     33          6           0       11.619994    3.696233    0.874452
     34          7           0        6.506344   -0.412429   -0.058865
     35          6           0        7.907600   -0.399347   -0.017943
     36          6           0        8.356071   -1.810375   -0.058568
     37          6           0        7.148670   -2.622913    0.034814
     38          6           0        6.069576   -1.693993   -0.023442
     39          6           0        9.828286   -2.234719   -0.012653
     40          6           0        6.643004   -3.998363    0.266992
     41          8           0        7.108199   -5.092845    0.420131
     42          6           0        5.125991   -3.782020    0.248384
     43          6           0        4.694266   -4.457257   -1.030058
     44          8           0        5.189523   -4.397503   -2.130454
     45          8           0        3.648347   -5.294186   -0.738765
     46          6           0        3.233030   -6.285309   -1.722703
     47          6           0       -1.964142   -4.157593    0.018586
     48          6           0       -3.016048   -3.056424   -0.234085
     49          6           0       -4.152059   -3.101962   -0.954582
     50          6           0       -4.651632   -4.334332   -1.684966
     51          6           0       -5.152957   -1.896068   -1.093477
     52          6           0       -6.407686   -1.860899   -0.204350
     53          6           0       -6.495626   -0.542950    0.644266
     54          6           0       -7.829756    0.247809    0.445188
     55          6           0       -7.749270    1.560892    1.189392
     56          6           0       -8.958846   -0.700420    1.167156
     57          6           0      -10.290436   -0.793956    0.462584
     58          6           0      -11.431136   -0.690304    1.408468
     59          6           0      -12.292759    0.559560    1.266936
     60          6           0      -13.065778    0.792926    2.611193
     61          6           0      -13.407671    0.372434    0.175099
     62          6           0      -13.718592    1.718623   -0.504361
     63          6           0      -15.011358    2.361935    0.050857
     64          6           0      -16.071095    2.631446   -0.971595
     65          6           0      -16.670346    1.317537   -1.506299
     66          6           0      -15.676986    3.628081   -2.076371
     67          1           0        0.660884    1.451893   -0.023138
     68          1           0        5.648759    5.438795   -0.234471
     69          1           0        9.724429    0.538900    0.199254
     70          1           0        2.251775   -3.159737   -0.248438
     71          1           0        0.432595   -1.158679    0.567214
     72          1           0        0.575570   -2.560983   -1.774557
     73          1           0        1.264313   -0.963588   -2.199760
     74          1           0       -0.378670   -1.149380   -1.546525
     75          1           0        1.173006   -2.168798    2.453995
     76          1           0        2.761491   -2.734314    2.532557
     77          1           0        0.856058   -4.336013    2.987223
     78          1           0        2.118114   -4.876937    1.891544
     79          1           0       -0.291606    3.180960    0.315089
     80          1           0       -0.089805    4.507485   -0.836494
     81          1           0        0.117673    4.783622    0.895308
     82          1           0        1.108211    6.661399    0.503882
     83          1           0        1.037829    6.780745   -1.234529
     84          1           0        1.932180    8.025828   -0.197781
     85          1           0        8.054986    5.080696    0.872842
     86          1           0        9.661299    3.255077   -0.925849
     87          1           0        8.306139    6.610481   -0.749050
     88          1           0        8.031685    5.393253   -2.092147
     89          1           0        9.470114    5.421623   -1.167001
     90          1           0       10.187581    2.514959    1.810884
     91          1           0        9.916429    4.260364    1.841556
     92          1           0       11.849697    4.761826    0.865471
     93          1           0       11.801846    3.278760   -0.115728
     94          1           0       12.333317    3.336100    1.615995
     95          1           0        9.661307   -3.181451    0.501173
     96          1           0       10.483114   -1.613851    0.598779
     97          1           0       10.198049   -2.456811   -1.014103
     98          1           0        4.718628   -4.369693    1.071031
     99          1           0        2.207472   -6.605133   -1.534099
    100          1           0        3.858441   -7.176754   -1.686078
    101          1           0        3.150181   -5.780728   -2.685690
    102          1           0       -2.411121   -4.926641    0.649093
    103          1           0       -1.695089   -4.635894   -0.923296
    104          1           0       -2.772431   -2.073226    0.166892
    105          1           0       -5.715634   -4.458574   -1.479189
    106          1           0       -4.116651   -5.228057   -1.365067
    107          1           0       -4.543111   -4.159578   -2.755088
    108          1           0       -5.475259   -1.854625   -2.133595
    109          1           0       -4.677473   -0.921014   -0.983260
    110          1           0       -6.516893   -2.645374    0.544533
    111          1           0       -7.304774   -2.124957   -0.763034
    112          1           0       -5.722793    0.189413    0.409017
    113          1           0       -6.334421   -0.795689    1.692087
    114          1           0       -8.098386    0.326311   -0.608306
    115          1           0       -7.333531    1.399926    2.184017
    116          1           0       -8.761939    1.916403    1.380478
    117          1           0       -7.210606    2.184746    0.475157
    118          1           0       -9.019246   -0.445774    2.225471
    119          1           0       -8.651369   -1.746117    1.166564
    120          1           0      -10.221573   -1.749901   -0.057005
    121          1           0      -10.314322   -0.035224   -0.320193
    122          1           0      -11.110426   -0.886649    2.431987
    123          1           0      -11.984726   -1.614668    1.240493
    124          1           0      -11.700182    1.462506    1.124398
    125          1           0      -13.882530    1.503929    2.488087
    126          1           0      -12.537436    1.463952    3.288272
    127          1           0      -13.532108   -0.077258    3.072907
    128          1           0      -14.319823   -0.039222    0.606273
    129          1           0      -13.078152   -0.349933   -0.571165
    130          1           0      -13.731007    1.591621   -1.586506
    131          1           0      -12.880668    2.342971   -0.191455
    132          1           0      -14.772947    3.288907    0.571894
    133          1           0      -15.448429    1.708019    0.805885
    134          1           0      -16.871324    3.068474   -0.374676
    135          1           0      -16.082295    0.453625   -1.196923
    136          1           0      -16.726272    1.394226   -2.591706
    137          1           0      -17.696505    1.168106   -1.170006
    138          1           0      -16.236815    4.563612   -2.060078
    139          1           0      -15.974696    3.232837   -3.047885
    140          1           0      -14.601153    3.797907   -2.057980
 ---------------------------------------------------------------------

 SCF Done:  E(RCAM-B3LYP) =  -3007.17550142     A.U. after   17 cycles

 Excitation energies and oscillator strengths:

 Excited State   1:      Singlet-A      1.7473 eV  709.57 nm  f=0.3581  <S**2>=0.000
     245 -> 248       -0.20479
     246 -> 247        0.67902
     245 <- 248       -0.11235
 This state for optimization and/or second-order correction.
 Total Energy, E(TD-HF/TD-DFT) =  -3007.11128910
 Copying the excited state density for this state as the 1-particle RhoCI density.

 Excited State   2:      Singlet-A      2.2152 eV  559.69 nm  f=0.0988  <S**2>=0.000
     245 -> 247        0.63603
     246 -> 248        0.30186

 Excited State   3:      Singlet-A      3.4555 eV  358.80 nm  f=0.0785  <S**2>=0.000
     243 -> 247       -0.16735
     244 -> 247        0.60804
     246 -> 248       -0.27783

 Excited State   4:      Singlet-A      3.5074 eV  353.49 nm  f=0.5854  <S**2>=0.000
     240 -> 247        0.18639
     244 -> 247        0.29686
     245 -> 247       -0.25929
     246 -> 248        0.50883

 Excited State   5:      Singlet-A      3.6429 eV  340.35 nm  f=0.1395  <S**2>=0.000
     239 -> 247        0.29086
     239 -> 249        0.11947
     240 -> 247        0.19514
     240 -> 249        0.17505
     243 -> 247        0.43532
     245 -> 247        0.11669
     246 -> 248       -0.23573

 The electronic state is 1-A.
 Alpha  occ. eigenvalues --  -46.88955 -19.25972 -19.23947 -19.21551 -19.19279
 Alpha  occ. eigenvalues --  -19.19157 -19.18206 -14.42275 -14.40844 -14.39619
 Alpha  occ. eigenvalues --  -14.38906 -10.41178 -10.38699 -10.34791 -10.33857
 Alpha  occ. eigenvalues --  -10.32997 -10.30977 -10.30515 -10.30510 -10.30406
 Alpha  occ. eigenvalues --  -10.30218 -10.29754 -10.29710 -10.29198 -10.28937
 Alpha  occ. eigenvalues --  -10.28804 -10.28582 -10.28431 -10.27969 -10.27721
 Alpha  occ. eigenvalues --  -10.27645 -10.27627 -10.27626 -10.27604 -10.27546
 Alpha  occ. eigenvalues --  -10.27187 -10.27120 -10.27012 -10.26718 -10.26579
 Alpha  occ. eigenvalues --  -10.26534 -10.26429 -10.26380 -10.26280 -10.26188
 Alpha  occ. eigenvalues --  -10.26146 -10.25940 -10.25900 -10.25799 -10.25697
 Alpha  occ. eigenvalues --  -10.25522 -10.25415 -10.25389 -10.25024 -10.25006
 Alpha  occ. eigenvalues --  -10.25004 -10.24990 -10.24676 -10.24543 -10.24398
 Alpha  occ. eigenvalues --  -10.24397 -10.24341 -10.24287 -10.24198 -10.24180
 Alpha  occ. eigenvalues --  -10.24171  -3.17393  -1.92319  -1.91850  -1.91681
 Alpha  occ. eigenvalues --   -1.15934  -1.15594  -1.11306  -1.11112  -1.07742
 Alpha  occ. eigenvalues --   -1.07343  -1.05525  -1.04515  -1.03501  -1.01861
 Alpha  occ. eigenvalues --   -0.92853  -0.90659  -0.90351  -0.89953  -0.89119
 Alpha  occ. eigenvalues --   -0.88622  -0.87896  -0.87839  -0.87585  -0.86902
 Alpha  occ. eigenvalues --   -0.85749  -0.85186  -0.84698  -0.83639  -0.83305
 Alpha  occ. eigenvalues --   -0.82790  -0.82423  -0.81298  -0.80627  -0.80367
 Alpha  occ. eigenvalues --   -0.80101  -0.78493  -0.78082  -0.77333  -0.75878
 Alpha  occ. eigenvalues --   -0.75805  -0.75525  -0.75106  -0.74991  -0.74444
 Alpha  occ. eigenvalues --   -0.73698  -0.72093  -0.71539  -0.70910  -0.68548
 Alpha  occ. eigenvalues --   -0.68359  -0.68073  -0.67723  -0.67271  -0.66082
 Alpha  occ. eigenvalues --   -0.65960  -0.65195  -0.64557  -0.64333  -0.64260
 Alpha  occ. eigenvalues --   -0.63903  -0.63517  -0.61667  -0.61126  -0.60632
 Alpha  occ. eigenvalues --   -0.60208  -0.59506  -0.58816  -0.58203  -0.58060
 Alpha  occ. eigenvalues --   -0.57315  -0.56384  -0.56291  -0.55730  -0.55066
 Alpha  occ. eigenvalues --   -0.54997  -0.54916  -0.54709  -0.54308  -0.54145
 Alpha  occ. eigenvalues --   -0.54064  -0.53893  -0.53308  -0.53160  -0.52933
 Alpha  occ. eigenvalues --   -0.52875  -0.52574  -0.52341  -0.52166  -0.51967
 Alpha  occ. eigenvalues --   -0.51686  -0.51538  -0.51133  -0.51013  -0.50782
 Alpha  occ. eigenvalues --   -0.50439  -0.50397  -0.50067  -0.49973  -0.49900
 Alpha  occ. eigenvalues --   -0.49438  -0.49321  -0.49310  -0.49102  -0.48808
 Alpha  occ. eigenvalues --   -0.48613  -0.48567  -0.48370  -0.48279  -0.48219
 Alpha  occ. eigenvalues --   -0.47783  -0.47722  -0.47245  -0.46928  -0.46490
 Alpha  occ. eigenvalues --   -0.46362  -0.46245  -0.46158  -0.46079  -0.45792
 Alpha  occ. eigenvalues --   -0.45553  -0.45360  -0.45353  -0.45014  -0.44696
 Alpha  occ. eigenvalues --   -0.44502  -0.44447  -0.44347  -0.43999  -0.43797
 Alpha  occ. eigenvalues --   -0.43626  -0.43484  -0.43198  -0.43168  -0.42924
 Alpha  occ. eigenvalues --   -0.42761  -0.42675  -0.42647  -0.42504  -0.42299
 Alpha  occ. eigenvalues --   -0.42066  -0.41727  -0.41381  -0.41206  -0.41006
 Alpha  occ. eigenvalues --   -0.40961  -0.40648  -0.40183  -0.40146  -0.40110
 Alpha  occ. eigenvalues --   -0.40023  -0.39930  -0.39498  -0.39473  -0.38876
 Alpha  occ. eigenvalues --   -0.38634  -0.38467  -0.38390  -0.37655  -0.37444
 Alpha  occ. eigenvalues --   -0.37343  -0.36826  -0.36746  -0.36206  -0.35892
 Alpha  occ. eigenvalues --   -0.35811  -0.35734  -0.35170  -0.35010  -0.34180
 Alpha  occ. eigenvalues --   -0.33415  -0.33369  -0.32913  -0.31264  -0.30972
 Alpha  occ. eigenvalues --   -0.30778  -0.30655  -0.29955  -0.29284  -0.23363
 Alpha  occ. eigenvalues --   -0.20853
 Alpha virt. eigenvalues --   -0.08028  -0.01590   0.00470   0.02549   0.03029
 Alpha virt. eigenvalues --    0.03564   0.05324   0.05438   0.06187   0.06583
 Alpha virt. eigenvalues --    0.08288   0.08519   0.08670   0.09024   0.09358

 Mulliken charges:
               1
     1  Mg   0.809726
     2  C   -0.057188
     3  C   -0.067420
     4  C   -0.071122
     5  C   -0.068501
     6  N   -0.244970
     7  C   -0.038261
     8  C   -0.036709
     9  C   -0.046781
    10  C    0.030108
    11  C    0.074251
    12  C    0.095026
    13  C    0.063305
    14  C    0.193428
    15  O   -0.235373
    16  O   -0.372013
    17  N   -0.333132
    18  C    0.104159
    19  C   -0.126195
    20  C   -0.025003
    21  C    0.122661
    22  C    0.109224
    23  C   -0.036711
    24  O   -0.179088
    25  C    0.060253
    26  N   -0.266010
    27  C    0.046295
    28  C   -0.040670
    29  C   -0.035162
    30  C    0.062326
    31  C    0.084759
    32  C    0.026486
    33  C    0.000938
    34  N   -0.379300
    35  C    0.095052
    36  C   -0.170795
    37  C   -0.074449
    38  C    0.174799
    39  C    0.102248
    40  C    0.069054
    41  O   -0.135652
    42  C   -0.016837
    43  C    0.195839
    44  O   -0.193309
    45  O   -0.342932
    46  C    0.173445
    47  C    0.270037
    48  C   -0.106734
    49  C   -0.172184
    50  C    0.080008
    51  C    0.087796
    52  C    0.020762
    53  C    0.017700
    54  C   -0.136291
    55  C    0.083098
    56  C   -0.016126
    57  C    0.054372
    58  C    0.079919
    59  C   -0.112320
    60  C    0.036097
    61  C    0.038970
    62  C    0.026751
    63  C    0.014791
    64  C   -0.130813
    65  C    0.042580
    66  C    0.058346
    67  H   -0.046952
    68  H    0.002121
    69  H   -0.031146
    70  H    0.024131
    71  H    0.007591
    72  H    0.020762
    73  H    0.017218
    74  H    0.013395
    75  H    0.012328
    76  H    0.011598
    77  H    0.035719
    78  H    0.031436
    79  H    0.020876
    80  H    0.031531
    81  H    0.029090
    82  H    0.010360
    83  H    0.039495
    84  H    0.026838
    85  H    0.006957
    86  H    0.020283
    87  H    0.022865
    88  H    0.021849
    89  H   -0.002460
    90  H    0.012894
    91  H    0.000481
    92  H    0.008735
    93  H    0.010411
    94  H    0.013587
    95  H    0.032357
    96  H    0.028624
    97  H    0.042565
    98  H    0.025620
    99  H    0.039131
   100  H    0.043671
   101  H    0.032444
   102  H    0.029513
   103  H    0.046916
   104  H   -0.004513
   105  H    0.016981
   106  H    0.014216
   107  H    0.029210
   108  H   -0.006722
   109  H   -0.004289
   110  H    0.002397
   111  H   -0.000911
   112  H   -0.012700
   113  H    0.001627
   114  H   -0.003639
   115  H    0.010996
   116  H    0.003088
   117  H    0.017391
   118  H   -0.010791
   119  H   -0.016511
   120  H   -0.011238
   121  H   -0.007937
   122  H   -0.012179
   123  H   -0.021506
   124  H   -0.001131
   125  H   -0.019342
   126  H   -0.006307
   127  H    0.017747
   128  H    0.001534
   129  H   -0.015673
   130  H    0.006546
   131  H   -0.008699
   132  H   -0.008651
   133  H    0.002078
   134  H   -0.011995
   135  H    0.009919
   136  H   -0.003445
   137  H    0.007818
   138  H    0.008002
   139  H   -0.007027
   140  H    0.016269
 Sum of Mulliken charges =  -0.00000

 Dipole moment (field-independent basis, Debye):
    X=             -6.2521    Y=              2.6400    Z=              2.3051  Tot=              7.1675
 Quadrupole moment (field-independent basis, Debye-Ang):
   XX=           -391.7062   YY=           -433.6059   ZZ=           -403.3165
   XY=             31.5907   XZ=             16.4582   YZ=              0.0322

 Normal termination of Gaussian 16 at Wed Apr 27 02:57:08 2022.
