 Gaussian 16, Revision A.03,
 Gaussian 16:  ES64L-G16RevA.03 25-Dec-2016

 ---------------------------------
 #p PBE1PBE/Def2SVP td=(nstates=5)
 ---------------------------------

 ------------------------------------------------------
 step_1051_chromophore_21 TDDFT with PBE1PBE functional
 ------------------------------------------------------
 Symbolic Z-matrix:
 Charge =  0 Multiplicity = 1

                         Standard orientation:
 ---------------------------------------------------------------------
 Center     Atomic      Atomic             Coordinates (Angstroms)
 Number     Number       Type             X           Y           Z
 ---------------------------------------------------------------------
      1         12           0        5.115569    1.096743    0.088200
      2          6           0        4.843177   -2.331073    0.260265
      3          6           0        1.745396    1.327064   -0.035167
      4          6           0        5.454752    4.367260   -0.159424
      5          6           0        8.660851    0.783844    0.159023
      6          7           0        3.524094   -0.408790    0.176114
      7          6           0        3.573299   -1.691971    0.364380
      8          6           0        2.227107   -2.344749    0.474238
      9          6           0        1.286717   -1.248753   -0.104588
     10          6           0        2.209994   -0.026216   -0.029466
     11          6           0        0.647632   -1.512197   -1.487902
     12          6           0        1.877204   -2.788839    1.898828
     13          6           0        1.272539   -4.195558    1.990354
     14          6           0        0.259996   -4.605921    0.872973
     15          8           0        0.328023   -5.607158    0.136833
     16          8           0       -0.809057   -3.681187    0.806554
     17          7           0        3.721786    2.651079    0.071695
     18          6           0        2.392697    2.547630   -0.001938
     19          6           0        1.796848    3.891181   -0.006076
     20          6           0        2.874893    4.781985   -0.160043
     21          6           0        4.092473    3.911680   -0.129442
     22          6           0        0.291770    4.072989    0.088187
     23          6           0        2.933577    6.226566   -0.379704
     24          8           0        3.961546    6.829289   -0.497393
     25          6           0        1.674030    6.980827   -0.371427
     26          7           0        6.901640    2.432905   -0.134696
     27          6           0        6.655862    3.726991    0.005754
     28          6           0        8.043232    4.505343   -0.052680
     29          6           0        9.093277    3.323973    0.002530
     30          6           0        8.203852    2.111141    0.081914
     31          6           0        8.393973    5.575923   -1.081145
     32          6           0       10.198294    3.420840    1.205166
     33          6           0       11.619994    3.696233    0.874452
     34          7           0        6.506344   -0.412429   -0.058865
     35          6           0        7.907600   -0.399347   -0.017943
     36          6           0        8.356071   -1.810375   -0.058568
     37          6           0        7.148670   -2.622913    0.034814
     38          6           0        6.069576   -1.693993   -0.023442
     39          6           0        9.828286   -2.234719   -0.012653
     40          6           0        6.643004   -3.998363    0.266992
     41          8           0        7.108199   -5.092845    0.420131
     42          6           0        5.125991   -3.782020    0.248384
     43          6           0        4.694266   -4.457257   -1.030058
     44          8           0        5.189523   -4.397503   -2.130454
     45          8           0        3.648347   -5.294186   -0.738765
     46          6           0        3.233030   -6.285309   -1.722703
     47          6           0       -1.964142   -4.157593    0.018586
     48          6           0       -3.016048   -3.056424   -0.234085
     49          6           0       -4.152059   -3.101962   -0.954582
     50          6           0       -4.651632   -4.334332   -1.684966
     51          6           0       -5.152957   -1.896068   -1.093477
     52          6           0       -6.407686   -1.860899   -0.204350
     53          6           0       -6.495626   -0.542950    0.644266
     54          6           0       -7.829756    0.247809    0.445188
     55          6           0       -7.749270    1.560892    1.189392
     56          6           0       -8.958846   -0.700420    1.167156
     57          6           0      -10.290436   -0.793956    0.462584
     58          6           0      -11.431136   -0.690304    1.408468
     59          6           0      -12.292759    0.559560    1.266936
     60          6           0      -13.065778    0.792926    2.611193
     61          6           0      -13.407671    0.372434    0.175099
     62          6           0      -13.718592    1.718623   -0.504361
     63          6           0      -15.011358    2.361935    0.050857
     64          6           0      -16.071095    2.631446   -0.971595
     65          6           0      -16.670346    1.317537   -1.506299
     66          6           0      -15.676986    3.628081   -2.076371
     67          1           0        0.660884    1.451893   -0.023138
     68          1           0        5.648759    5.438795   -0.234471
     69          1           0        9.724429    0.538900    0.199254
     70          1           0        2.251775   -3.159737   -0.248438
     71          1           0        0.432595   -1.158679    0.567214
     72          1           0        0.575570   -2.560983   -1.774557
     73          1           0        1.264313   -0.963588   -2.199760
     74          1           0       -0.378670   -1.149380   -1.546525
     75          1           0        1.173006   -2.168798    2.453995
     76          1           0        2.761491   -2.734314    2.532557
     77          1           0        0.856058   -4.336013    2.987223
     78          1           0        2.118114   -4.876937    1.891544
     79          1           0       -0.291606    3.180960    0.315089
     80          1           0       -0.089805    4.507485   -0.836494
     81          1           0        0.117673    4.783622    0.895308
     82          1           0        1.108211    6.661399    0.503882
     83          1           0        1.037829    6.780745   -1.234529
     84          1           0        1.932180    8.025828   -0.197781
     85          1           0        8.054986    5.080696    0.872842
     86          1           0        9.661299    3.255077   -0.925849
     87          1           0        8.306139    6.610481   -0.749050
     88          1           0        8.031685    5.393253   -2.092147
     89          1           0        9.470114    5.421623   -1.167001
     90          1           0       10.187581    2.514959    1.810884
     91          1           0        9.916429    4.260364    1.841556
     92          1           0       11.849697    4.761826    0.865471
     93          1           0       11.801846    3.278760   -0.115728
     94          1           0       12.333317    3.336100    1.615995
     95          1           0        9.661307   -3.181451    0.501173
     96          1           0       10.483114   -1.613851    0.598779
     97          1           0       10.198049   -2.456811   -1.014103
     98          1           0        4.718628   -4.369693    1.071031
     99          1           0        2.207472   -6.605133   -1.534099
    100          1           0        3.858441   -7.176754   -1.686078
    101          1           0        3.150181   -5.780728   -2.685690
    102          1           0       -2.411121   -4.926641    0.649093
    103          1           0       -1.695089   -4.635894   -0.923296
    104          1           0       -2.772431   -2.073226    0.166892
    105          1           0       -5.715634   -4.458574   -1.479189
    106          1           0       -4.116651   -5.228057   -1.365067
    107          1           0       -4.543111   -4.159578   -2.755088
    108          1           0       -5.475259   -1.854625   -2.133595
    109          1           0       -4.677473   -0.921014   -0.983260
    110          1           0       -6.516893   -2.645374    0.544533
    111          1           0       -7.304774   -2.124957   -0.763034
    112          1           0       -5.722793    0.189413    0.409017
    113          1           0       -6.334421   -0.795689    1.692087
    114          1           0       -8.098386    0.326311   -0.608306
    115          1           0       -7.333531    1.399926    2.184017
    116          1           0       -8.761939    1.916403    1.380478
    117          1           0       -7.210606    2.184746    0.475157
    118          1           0       -9.019246   -0.445774    2.225471
    119          1           0       -8.651369   -1.746117    1.166564
    120          1           0      -10.221573   -1.749901   -0.057005
    121          1           0      -10.314322   -0.035224   -0.320193
    122          1           0      -11.110426   -0.886649    2.431987
    123          1           0      -11.984726   -1.614668    1.240493
    124          1           0      -11.700182    1.462506    1.124398
    125          1           0      -13.882530    1.503929    2.488087
    126          1           0      -12.537436    1.463952    3.288272
    127          1           0      -13.532108   -0.077258    3.072907
    128          1           0      -14.319823   -0.039222    0.606273
    129          1           0      -13.078152   -0.349933   -0.571165
    130          1           0      -13.731007    1.591621   -1.586506
    131          1           0      -12.880668    2.342971   -0.191455
    132          1           0      -14.772947    3.288907    0.571894
    133          1           0      -15.448429    1.708019    0.805885
    134          1           0      -16.871324    3.068474   -0.374676
    135          1           0      -16.082295    0.453625   -1.196923
    136          1           0      -16.726272    1.394226   -2.591706
    137          1           0      -17.696505    1.168106   -1.170006
    138          1           0      -16.236815    4.563612   -2.060078
    139          1           0      -15.974696    3.232837   -3.047885
    140          1           0      -14.601153    3.797907   -2.057980
 ---------------------------------------------------------------------

 SCF Done:  E(RPBE1PBE) =  -3005.36395848     A.U. after   16 cycles

 Excitation energies and oscillator strengths:

 Excited State   1:      Singlet-A      1.9006 eV  652.34 nm  f=0.3481  <S**2>=0.000
     245 -> 248       -0.19905
     246 -> 247        0.68527
 This state for optimization and/or second-order correction.
 Total Energy, E(TD-HF/TD-DFT) =  -3005.29411240
 Copying the excited state density for this state as the 1-particle RhoCI density.

 Excited State   2:      Singlet-A      2.2124 eV  560.40 nm  f=0.1024  <S**2>=0.000
     245 -> 247        0.65076
     246 -> 248        0.26991

 Excited State   3:      Singlet-A      3.1223 eV  397.09 nm  f=0.0128  <S**2>=0.000
     240 -> 247        0.19316
     242 -> 247       -0.12933
     244 -> 247        0.64257

 Excited State   4:      Singlet-A      3.1640 eV  391.86 nm  f=0.0156  <S**2>=0.000
     240 -> 247        0.22801
     242 -> 247       -0.16247
     242 -> 249       -0.10345
     243 -> 247        0.55368
     244 -> 247       -0.21081
     246 -> 248        0.18376

 Excited State   5:      Singlet-A      3.1968 eV  387.84 nm  f=0.0012  <S**2>=0.000
     242 -> 247        0.60916
     242 -> 249       -0.11602
     243 -> 247        0.25128
     243 -> 249       -0.11836
     244 -> 247        0.12073

 The electronic state is 1-A.
 Alpha  occ. eigenvalues --  -46.92326 -19.26664 -19.24577 -19.21830 -19.19454
 Alpha  occ. eigenvalues --  -19.19302 -19.18415 -14.41698 -14.40398 -14.39204
 Alpha  occ. eigenvalues --  -14.38578 -10.38267 -10.35700 -10.31884 -10.30925
 Alpha  occ. eigenvalues --  -10.30413 -10.28791 -10.28195 -10.28191 -10.27903
 Alpha  occ. eigenvalues --  -10.27616 -10.27442 -10.27424 -10.26917 -10.26585
 Alpha  occ. eigenvalues --  -10.26467 -10.26293 -10.25918 -10.25633 -10.25588
 Alpha  occ. eigenvalues --  -10.25438 -10.25369 -10.25358 -10.25232 -10.25026
 Alpha  occ. eigenvalues --  -10.25024 -10.24700 -10.24578 -10.24264 -10.24257
 Alpha  occ. eigenvalues --  -10.24155 -10.24114 -10.24000 -10.23909 -10.23780
 Alpha  occ. eigenvalues --  -10.23758 -10.23516 -10.23506 -10.23324 -10.23149
 Alpha  occ. eigenvalues --  -10.23129 -10.22877 -10.22742 -10.22672 -10.22650
 Alpha  occ. eigenvalues --  -10.22415 -10.22411 -10.22254 -10.22090 -10.22003
 Alpha  occ. eigenvalues --  -10.21829 -10.21822 -10.21742 -10.21724 -10.21680
 Alpha  occ. eigenvalues --  -10.21561  -3.14349  -1.87217  -1.86725  -1.86559
 Alpha  occ. eigenvalues --   -1.10663  -1.10382  -1.06045  -1.05818  -1.02608
 Alpha  occ. eigenvalues --   -1.02140  -1.00135  -0.99215  -0.98158  -0.96509
 Alpha  occ. eigenvalues --   -0.87183  -0.84752  -0.84533  -0.84081  -0.83233
 Alpha  occ. eigenvalues --   -0.82922  -0.82159  -0.81964  -0.81851  -0.81240
 Alpha  occ. eigenvalues --   -0.80025  -0.79448  -0.78863  -0.77901  -0.77536
 Alpha  occ. eigenvalues --   -0.77055  -0.76633  -0.75549  -0.74855  -0.74585
 Alpha  occ. eigenvalues --   -0.74428  -0.72754  -0.72333  -0.71677  -0.70177
 Alpha  occ. eigenvalues --   -0.69982  -0.69602  -0.69377  -0.69211  -0.68637
 Alpha  occ. eigenvalues --   -0.67984  -0.66532  -0.65971  -0.65248  -0.62933
 Alpha  occ. eigenvalues --   -0.62590  -0.62433  -0.61944  -0.61773  -0.60394
 Alpha  occ. eigenvalues --   -0.60246  -0.59583  -0.59125  -0.58913  -0.58445
 Alpha  occ. eigenvalues --   -0.58357  -0.57691  -0.56201  -0.55370  -0.55057
 Alpha  occ. eigenvalues --   -0.54776  -0.53975  -0.53421  -0.52838  -0.52425
 Alpha  occ. eigenvalues --   -0.51887  -0.50926  -0.50807  -0.50196  -0.49642
 Alpha  occ. eigenvalues --   -0.49426  -0.49341  -0.49232  -0.48750  -0.48642
 Alpha  occ. eigenvalues --   -0.48458  -0.48403  -0.47882  -0.47671  -0.47449
 Alpha  occ. eigenvalues --   -0.47270  -0.47121  -0.46883  -0.46681  -0.46572
 Alpha  occ. eigenvalues --   -0.46207  -0.46109  -0.45687  -0.45616  -0.45333
 Alpha  occ. eigenvalues --   -0.44923  -0.44872  -0.44609  -0.44571  -0.44505
 Alpha  occ. eigenvalues --   -0.44035  -0.43899  -0.43875  -0.43660  -0.43405
 Alpha  occ. eigenvalues --   -0.43212  -0.43188  -0.42965  -0.42892  -0.42825
 Alpha  occ. eigenvalues --   -0.42428  -0.42365  -0.41878  -0.41685  -0.41188
 Alpha  occ. eigenvalues --   -0.41070  -0.40951  -0.40843  -0.40766  -0.40485
 Alpha  occ. eigenvalues --   -0.40267  -0.40150  -0.39872  -0.39754  -0.39460
 Alpha  occ. eigenvalues --   -0.39256  -0.39125  -0.39059  -0.38698  -0.38562
 Alpha  occ. eigenvalues --   -0.38429  -0.38271  -0.37993  -0.37896  -0.37730
 Alpha  occ. eigenvalues --   -0.37550  -0.37497  -0.37442  -0.37243  -0.37142
 Alpha  occ. eigenvalues --   -0.36924  -0.36617  -0.36064  -0.36051  -0.35786
 Alpha  occ. eigenvalues --   -0.35742  -0.35367  -0.35049  -0.34977  -0.34932
 Alpha  occ. eigenvalues --   -0.34855  -0.34693  -0.34334  -0.34240  -0.33808
 Alpha  occ. eigenvalues --   -0.33446  -0.33384  -0.33244  -0.32589  -0.32360
 Alpha  occ. eigenvalues --   -0.32276  -0.31784  -0.31698  -0.31233  -0.30842
 Alpha  occ. eigenvalues --   -0.30649  -0.30607  -0.29993  -0.29894  -0.29129
 Alpha  occ. eigenvalues --   -0.28623  -0.28401  -0.28300  -0.26771  -0.26106
 Alpha  occ. eigenvalues --   -0.25918  -0.25563  -0.25412  -0.24873  -0.20319
 Alpha  occ. eigenvalues --   -0.18481
 Alpha virt. eigenvalues --   -0.10550  -0.05021  -0.03741  -0.01911  -0.01551
 Alpha virt. eigenvalues --    0.00841   0.01080   0.01381   0.01648   0.02860
 Alpha virt. eigenvalues --    0.04066   0.05096   0.05321   0.05564   0.05859

 Mulliken charges:
               1
     1  Mg   0.959291
     2  C   -0.075238
     3  C   -0.065284
     4  C   -0.063479
     5  C   -0.063417
     6  N   -0.353263
     7  C    0.038636
     8  C   -0.121705
     9  C   -0.118462
    10  C    0.066385
    11  C    0.018695
    12  C    0.051645
    13  C   -0.013469
    14  C    0.250566
    15  O   -0.268693
    16  O   -0.399316
    17  N   -0.454452
    18  C    0.126603
    19  C   -0.148975
    20  C   -0.082063
    21  C    0.156703
    22  C    0.051956
    23  C    0.018740
    24  O   -0.219586
    25  C   -0.013082
    26  N   -0.365173
    27  C    0.083109
    28  C   -0.111188
    29  C   -0.115411
    30  C    0.098462
    31  C    0.020538
    32  C   -0.030982
    33  C   -0.071026
    34  N   -0.502385
    35  C    0.120704
    36  C   -0.185079
    37  C   -0.114838
    38  C    0.238625
    39  C    0.045844
    40  C    0.154752
    41  O   -0.184250
    42  C   -0.132533
    43  C    0.290276
    44  O   -0.228675
    45  O   -0.375307
    46  C    0.119628
    47  C    0.233521
    48  C   -0.118462
    49  C   -0.219245
    50  C    0.015766
    51  C    0.025459
    52  C   -0.034424
    53  C   -0.037316
    54  C   -0.225851
    55  C    0.019151
    56  C   -0.063821
    57  C   -0.006645
    58  C    0.028186
    59  C   -0.208374
    60  C   -0.022049
    61  C   -0.012898
    62  C   -0.037527
    63  C   -0.042639
    64  C   -0.222530
    65  C   -0.018916
    66  C   -0.002409
    67  H   -0.012812
    68  H    0.035817
    69  H    0.002268
    70  H    0.069930
    71  H    0.044672
    72  H    0.047791
    73  H    0.045712
    74  H    0.040890
    75  H    0.043065
    76  H    0.044512
    77  H    0.067045
    78  H    0.065862
    79  H    0.046667
    80  H    0.059431
    81  H    0.056750
    82  H    0.038648
    83  H    0.066085
    84  H    0.054062
    85  H    0.045283
    86  H    0.057274
    87  H    0.049749
    88  H    0.050181
    89  H    0.028131
    90  H    0.044195
    91  H    0.033224
    92  H    0.036463
    93  H    0.037845
    94  H    0.041514
    95  H    0.061783
    96  H    0.053741
    97  H    0.070635
    98  H    0.063557
    99  H    0.061887
   100  H    0.065446
   101  H    0.053564
   102  H    0.056925
   103  H    0.071348
   104  H    0.025241
   105  H    0.045380
   106  H    0.041458
   107  H    0.057328
   108  H    0.026538
   109  H    0.027028
   110  H    0.033797
   111  H    0.030149
   112  H    0.019418
   113  H    0.033969
   114  H    0.032331
   115  H    0.038002
   116  H    0.034066
   117  H    0.045926
   118  H    0.020348
   119  H    0.017691
   120  H    0.021577
   121  H    0.024750
   122  H    0.019727
   123  H    0.011462
   124  H    0.036133
   125  H    0.011691
   126  H    0.022088
   127  H    0.044640
   128  H    0.032743
   129  H    0.017708
   130  H    0.038175
   131  H    0.025538
   132  H    0.024332
   133  H    0.033497
   134  H    0.027566
   135  H    0.039444
   136  H    0.023643
   137  H    0.035437
   138  H    0.035753
   139  H    0.019997
   140  H    0.043485
 Sum of Mulliken charges =  -0.00000

 Dipole moment (field-independent basis, Debye):
    X=             -6.2362    Y=              2.6985    Z=              2.3130  Tot=              7.1779
 Quadrupole moment (field-independent basis, Debye-Ang):
   XX=           -385.3670   YY=           -430.3608   ZZ=           -400.9146
   XY=             33.2545   XZ=             16.4731   YZ=              0.1974

 Normal termination of Gaussian 16 at Wed Apr 27 03:13:52 2022.
