 Gaussian 16, Revision A.03,
 Gaussian 16:  ES64L-G16RevA.03 25-Dec-2016

 --------------------------------
 #p wB97XD/Def2SVP td=(nstates=5)
 --------------------------------

 -----------------------------------------------------
 step_1051_chromophore_21 TDDFT with wB97XD functional
 -----------------------------------------------------
 Symbolic Z-matrix:
 Charge =  0 Multiplicity = 1

                         Standard orientation:
 ---------------------------------------------------------------------
 Center     Atomic      Atomic             Coordinates (Angstroms)
 Number     Number       Type             X           Y           Z
 ---------------------------------------------------------------------
      1         12           0        5.115569    1.096743    0.088200
      2          6           0        4.843177   -2.331073    0.260265
      3          6           0        1.745396    1.327064   -0.035167
      4          6           0        5.454752    4.367260   -0.159424
      5          6           0        8.660851    0.783844    0.159023
      6          7           0        3.524094   -0.408790    0.176114
      7          6           0        3.573299   -1.691971    0.364380
      8          6           0        2.227107   -2.344749    0.474238
      9          6           0        1.286717   -1.248753   -0.104588
     10          6           0        2.209994   -0.026216   -0.029466
     11          6           0        0.647632   -1.512197   -1.487902
     12          6           0        1.877204   -2.788839    1.898828
     13          6           0        1.272539   -4.195558    1.990354
     14          6           0        0.259996   -4.605921    0.872973
     15          8           0        0.328023   -5.607158    0.136833
     16          8           0       -0.809057   -3.681187    0.806554
     17          7           0        3.721786    2.651079    0.071695
     18          6           0        2.392697    2.547630   -0.001938
     19          6           0        1.796848    3.891181   -0.006076
     20          6           0        2.874893    4.781985   -0.160043
     21          6           0        4.092473    3.911680   -0.129442
     22          6           0        0.291770    4.072989    0.088187
     23          6           0        2.933577    6.226566   -0.379704
     24          8           0        3.961546    6.829289   -0.497393
     25          6           0        1.674030    6.980827   -0.371427
     26          7           0        6.901640    2.432905   -0.134696
     27          6           0        6.655862    3.726991    0.005754
     28          6           0        8.043232    4.505343   -0.052680
     29          6           0        9.093277    3.323973    0.002530
     30          6           0        8.203852    2.111141    0.081914
     31          6           0        8.393973    5.575923   -1.081145
     32          6           0       10.198294    3.420840    1.205166
     33          6           0       11.619994    3.696233    0.874452
     34          7           0        6.506344   -0.412429   -0.058865
     35          6           0        7.907600   -0.399347   -0.017943
     36          6           0        8.356071   -1.810375   -0.058568
     37          6           0        7.148670   -2.622913    0.034814
     38          6           0        6.069576   -1.693993   -0.023442
     39          6           0        9.828286   -2.234719   -0.012653
     40          6           0        6.643004   -3.998363    0.266992
     41          8           0        7.108199   -5.092845    0.420131
     42          6           0        5.125991   -3.782020    0.248384
     43          6           0        4.694266   -4.457257   -1.030058
     44          8           0        5.189523   -4.397503   -2.130454
     45          8           0        3.648347   -5.294186   -0.738765
     46          6           0        3.233030   -6.285309   -1.722703
     47          6           0       -1.964142   -4.157593    0.018586
     48          6           0       -3.016048   -3.056424   -0.234085
     49          6           0       -4.152059   -3.101962   -0.954582
     50          6           0       -4.651632   -4.334332   -1.684966
     51          6           0       -5.152957   -1.896068   -1.093477
     52          6           0       -6.407686   -1.860899   -0.204350
     53          6           0       -6.495626   -0.542950    0.644266
     54          6           0       -7.829756    0.247809    0.445188
     55          6           0       -7.749270    1.560892    1.189392
     56          6           0       -8.958846   -0.700420    1.167156
     57          6           0      -10.290436   -0.793956    0.462584
     58          6           0      -11.431136   -0.690304    1.408468
     59          6           0      -12.292759    0.559560    1.266936
     60          6           0      -13.065778    0.792926    2.611193
     61          6           0      -13.407671    0.372434    0.175099
     62          6           0      -13.718592    1.718623   -0.504361
     63          6           0      -15.011358    2.361935    0.050857
     64          6           0      -16.071095    2.631446   -0.971595
     65          6           0      -16.670346    1.317537   -1.506299
     66          6           0      -15.676986    3.628081   -2.076371
     67          1           0        0.660884    1.451893   -0.023138
     68          1           0        5.648759    5.438795   -0.234471
     69          1           0        9.724429    0.538900    0.199254
     70          1           0        2.251775   -3.159737   -0.248438
     71          1           0        0.432595   -1.158679    0.567214
     72          1           0        0.575570   -2.560983   -1.774557
     73          1           0        1.264313   -0.963588   -2.199760
     74          1           0       -0.378670   -1.149380   -1.546525
     75          1           0        1.173006   -2.168798    2.453995
     76          1           0        2.761491   -2.734314    2.532557
     77          1           0        0.856058   -4.336013    2.987223
     78          1           0        2.118114   -4.876937    1.891544
     79          1           0       -0.291606    3.180960    0.315089
     80          1           0       -0.089805    4.507485   -0.836494
     81          1           0        0.117673    4.783622    0.895308
     82          1           0        1.108211    6.661399    0.503882
     83          1           0        1.037829    6.780745   -1.234529
     84          1           0        1.932180    8.025828   -0.197781
     85          1           0        8.054986    5.080696    0.872842
     86          1           0        9.661299    3.255077   -0.925849
     87          1           0        8.306139    6.610481   -0.749050
     88          1           0        8.031685    5.393253   -2.092147
     89          1           0        9.470114    5.421623   -1.167001
     90          1           0       10.187581    2.514959    1.810884
     91          1           0        9.916429    4.260364    1.841556
     92          1           0       11.849697    4.761826    0.865471
     93          1           0       11.801846    3.278760   -0.115728
     94          1           0       12.333317    3.336100    1.615995
     95          1           0        9.661307   -3.181451    0.501173
     96          1           0       10.483114   -1.613851    0.598779
     97          1           0       10.198049   -2.456811   -1.014103
     98          1           0        4.718628   -4.369693    1.071031
     99          1           0        2.207472   -6.605133   -1.534099
    100          1           0        3.858441   -7.176754   -1.686078
    101          1           0        3.150181   -5.780728   -2.685690
    102          1           0       -2.411121   -4.926641    0.649093
    103          1           0       -1.695089   -4.635894   -0.923296
    104          1           0       -2.772431   -2.073226    0.166892
    105          1           0       -5.715634   -4.458574   -1.479189
    106          1           0       -4.116651   -5.228057   -1.365067
    107          1           0       -4.543111   -4.159578   -2.755088
    108          1           0       -5.475259   -1.854625   -2.133595
    109          1           0       -4.677473   -0.921014   -0.983260
    110          1           0       -6.516893   -2.645374    0.544533
    111          1           0       -7.304774   -2.124957   -0.763034
    112          1           0       -5.722793    0.189413    0.409017
    113          1           0       -6.334421   -0.795689    1.692087
    114          1           0       -8.098386    0.326311   -0.608306
    115          1           0       -7.333531    1.399926    2.184017
    116          1           0       -8.761939    1.916403    1.380478
    117          1           0       -7.210606    2.184746    0.475157
    118          1           0       -9.019246   -0.445774    2.225471
    119          1           0       -8.651369   -1.746117    1.166564
    120          1           0      -10.221573   -1.749901   -0.057005
    121          1           0      -10.314322   -0.035224   -0.320193
    122          1           0      -11.110426   -0.886649    2.431987
    123          1           0      -11.984726   -1.614668    1.240493
    124          1           0      -11.700182    1.462506    1.124398
    125          1           0      -13.882530    1.503929    2.488087
    126          1           0      -12.537436    1.463952    3.288272
    127          1           0      -13.532108   -0.077258    3.072907
    128          1           0      -14.319823   -0.039222    0.606273
    129          1           0      -13.078152   -0.349933   -0.571165
    130          1           0      -13.731007    1.591621   -1.586506
    131          1           0      -12.880668    2.342971   -0.191455
    132          1           0      -14.772947    3.288907    0.571894
    133          1           0      -15.448429    1.708019    0.805885
    134          1           0      -16.871324    3.068474   -0.374676
    135          1           0      -16.082295    0.453625   -1.196923
    136          1           0      -16.726272    1.394226   -2.591706
    137          1           0      -17.696505    1.168106   -1.170006
    138          1           0      -16.236815    4.563612   -2.060078
    139          1           0      -15.974696    3.232837   -3.047885
    140          1           0      -14.601153    3.797907   -2.057980
 ---------------------------------------------------------------------

 SCF Done:  E(RwB97XD) =  -3007.87398793     A.U. after   19 cycles

 Excitation energies and oscillator strengths:

 Excited State   1:      Singlet-A      1.6892 eV  733.98 nm  f=0.3549  <S**2>=0.000
     245 -> 248       -0.21060
     246 -> 247        0.67691
     245 <- 248       -0.12211
 This state for optimization and/or second-order correction.
 Total Energy, E(TD-HF/TD-DFT) =  -3007.81191074
 Copying the excited state density for this state as the 1-particle RhoCI density.

 Excited State   2:      Singlet-A      2.1617 eV  573.56 nm  f=0.0955  <S**2>=0.000
     245 -> 247        0.63380
     246 -> 248        0.30490

 Excited State   3:      Singlet-A      3.4615 eV  358.18 nm  f=0.1356  <S**2>=0.000
     243 -> 247       -0.16883
     244 -> 247        0.56524
     245 -> 247        0.11541
     246 -> 248       -0.33796

 Excited State   4:      Singlet-A      3.5288 eV  351.35 nm  f=0.5559  <S**2>=0.000
     240 -> 247        0.19300
     244 -> 247        0.36049
     245 -> 247       -0.25444
     246 -> 248        0.47474

 Excited State   5:      Singlet-A      3.6636 eV  338.42 nm  f=0.1380  <S**2>=0.000
     239 -> 247        0.23234
     240 -> 247        0.23006
     240 -> 249        0.21973
     240 -> 250        0.11748
     243 -> 247        0.44001
     245 -> 247        0.11268
     246 -> 248       -0.22738

 The electronic state is 1-A.
 Alpha  occ. eigenvalues --  -46.95289 -19.31210 -19.29175 -19.26482 -19.24224
 Alpha  occ. eigenvalues --  -19.24221 -19.23193 -14.46879 -14.45393 -14.44171
 Alpha  occ. eigenvalues --  -14.43520 -10.45037 -10.42559 -10.38834 -10.37751
 Alpha  occ. eigenvalues --  -10.36909 -10.35015 -10.34525 -10.34519 -10.34249
 Alpha  occ. eigenvalues --  -10.34150 -10.33821 -10.33714 -10.33186 -10.33079
 Alpha  occ. eigenvalues --  -10.32833 -10.32757 -10.32343 -10.31987 -10.31793
 Alpha  occ. eigenvalues --  -10.31777 -10.31720 -10.31601 -10.31595 -10.31537
 Alpha  occ. eigenvalues --  -10.31217 -10.31186 -10.31071 -10.30676 -10.30600
 Alpha  occ. eigenvalues --  -10.30545 -10.30449 -10.30267 -10.30209 -10.30189
 Alpha  occ. eigenvalues --  -10.30076 -10.29908 -10.29892 -10.29797 -10.29534
 Alpha  occ. eigenvalues --  -10.29476 -10.29250 -10.29225 -10.29018 -10.28938
 Alpha  occ. eigenvalues --  -10.28848 -10.28800 -10.28608 -10.28465 -10.28347
 Alpha  occ. eigenvalues --  -10.28257 -10.28208 -10.28158 -10.28117 -10.28064
 Alpha  occ. eigenvalues --  -10.27991  -3.21171  -1.94787  -1.94294  -1.94130
 Alpha  occ. eigenvalues --   -1.18105  -1.17760  -1.13487  -1.13379  -1.09948
 Alpha  occ. eigenvalues --   -1.09550  -1.07533  -1.06541  -1.05496  -1.03910
 Alpha  occ. eigenvalues --   -0.94868  -0.92425  -0.92180  -0.91753  -0.90903
 Alpha  occ. eigenvalues --   -0.90529  -0.89751  -0.89629  -0.89517  -0.88807
 Alpha  occ. eigenvalues --   -0.87659  -0.87112  -0.86520  -0.85493  -0.85189
 Alpha  occ. eigenvalues --   -0.84700  -0.84339  -0.83215  -0.82504  -0.82227
 Alpha  occ. eigenvalues --   -0.82054  -0.80433  -0.79992  -0.79258  -0.77818
 Alpha  occ. eigenvalues --   -0.77668  -0.77309  -0.76947  -0.76897  -0.76290
 Alpha  occ. eigenvalues --   -0.75606  -0.74087  -0.73503  -0.72851  -0.70522
 Alpha  occ. eigenvalues --   -0.70229  -0.69984  -0.69590  -0.69282  -0.67916
 Alpha  occ. eigenvalues --   -0.67899  -0.67091  -0.66560  -0.66337  -0.66063
 Alpha  occ. eigenvalues --   -0.65888  -0.65352  -0.63674  -0.62981  -0.62568
 Alpha  occ. eigenvalues --   -0.62201  -0.61455  -0.60823  -0.60194  -0.60016
 Alpha  occ. eigenvalues --   -0.59306  -0.58344  -0.58236  -0.57644  -0.57038
 Alpha  occ. eigenvalues --   -0.56842  -0.56831  -0.56630  -0.56202  -0.56058
 Alpha  occ. eigenvalues --   -0.55917  -0.55810  -0.55250  -0.55062  -0.54848
 Alpha  occ. eigenvalues --   -0.54804  -0.54480  -0.54218  -0.54053  -0.53932
 Alpha  occ. eigenvalues --   -0.53555  -0.53452  -0.53010  -0.52940  -0.52672
 Alpha  occ. eigenvalues --   -0.52353  -0.52304  -0.52021  -0.51905  -0.51821
 Alpha  occ. eigenvalues --   -0.51312  -0.51233  -0.51193  -0.51008  -0.50733
 Alpha  occ. eigenvalues --   -0.50501  -0.50481  -0.50303  -0.50177  -0.50132
 Alpha  occ. eigenvalues --   -0.49743  -0.49612  -0.49130  -0.48878  -0.48447
 Alpha  occ. eigenvalues --   -0.48290  -0.48158  -0.48059  -0.47963  -0.47699
 Alpha  occ. eigenvalues --   -0.47478  -0.47280  -0.47167  -0.46935  -0.46629
 Alpha  occ. eigenvalues --   -0.46437  -0.46317  -0.46234  -0.45860  -0.45707
 Alpha  occ. eigenvalues --   -0.45556  -0.45465  -0.45152  -0.45047  -0.44843
 Alpha  occ. eigenvalues --   -0.44633  -0.44597  -0.44568  -0.44389  -0.44233
 Alpha  occ. eigenvalues --   -0.44059  -0.43621  -0.43221  -0.43049  -0.42844
 Alpha  occ. eigenvalues --   -0.42839  -0.42496  -0.42124  -0.42044  -0.41997
 Alpha  occ. eigenvalues --   -0.41909  -0.41771  -0.41366  -0.41339  -0.40785
 Alpha  occ. eigenvalues --   -0.40481  -0.40325  -0.40298  -0.39642  -0.39297
 Alpha  occ. eigenvalues --   -0.39277  -0.38827  -0.38673  -0.38165  -0.37937
 Alpha  occ. eigenvalues --   -0.37657  -0.37576  -0.37073  -0.36852  -0.36173
 Alpha  occ. eigenvalues --   -0.35448  -0.35259  -0.35043  -0.33404  -0.33043
 Alpha  occ. eigenvalues --   -0.32697  -0.32687  -0.32144  -0.31478  -0.25282
 Alpha  occ. eigenvalues --   -0.22667
 Alpha virt. eigenvalues --   -0.06373   0.00302   0.02526   0.04660   0.05255
 Alpha virt. eigenvalues --    0.06639   0.07721   0.08028   0.08404   0.09102
 Alpha virt. eigenvalues --    0.10775   0.11901   0.12082   0.12393   0.12637

 Mulliken charges:
               1
     1  Mg   0.950299
     2  C   -0.074866
     3  C   -0.076153
     4  C   -0.078589
     5  C   -0.081262
     6  N   -0.316148
     7  C    0.004618
     8  C   -0.083013
     9  C   -0.092946
    10  C    0.048682
    11  C    0.028371
    12  C    0.056112
    13  C    0.006647
    14  C    0.237514
    15  O   -0.265194
    16  O   -0.397718
    17  N   -0.418862
    18  C    0.117773
    19  C   -0.140410
    20  C   -0.074086
    21  C    0.145736
    22  C    0.062991
    23  C    0.014839
    24  O   -0.213452
    25  C   -0.001908
    26  N   -0.334924
    27  C    0.068163
    28  C   -0.088657
    29  C   -0.086963
    30  C    0.089019
    31  C    0.033372
    32  C   -0.017569
    33  C   -0.054744
    34  N   -0.467862
    35  C    0.113851
    36  C   -0.183337
    37  C   -0.114352
    38  C    0.215506
    39  C    0.057292
    40  C    0.144303
    41  O   -0.174064
    42  C   -0.089862
    43  C    0.265226
    44  O   -0.223553
    45  O   -0.372850
    46  C    0.134531
    47  C    0.244333
    48  C   -0.126437
    49  C   -0.205753
    50  C    0.029768
    51  C    0.047188
    52  C   -0.026965
    53  C   -0.017165
    54  C   -0.195102
    55  C    0.032000
    56  C   -0.050165
    57  C    0.008126
    58  C    0.041454
    59  C   -0.174166
    60  C   -0.009006
    61  C    0.003877
    62  C   -0.023879
    63  C   -0.023541
    64  C   -0.194176
    65  C   -0.005601
    66  C    0.008573
    67  H   -0.021373
    68  H    0.029429
    69  H   -0.005529
    70  H    0.045363
    71  H    0.032912
    72  H    0.041766
    73  H    0.039606
    74  H    0.035431
    75  H    0.036918
    76  H    0.037295
    77  H    0.063218
    78  H    0.057687
    79  H    0.043844
    80  H    0.054337
    81  H    0.050790
    82  H    0.030520
    83  H    0.062049
    84  H    0.052969
    85  H    0.033813
    86  H    0.044972
    87  H    0.045840
    88  H    0.044965
    89  H    0.018286
    90  H    0.036206
    91  H    0.024961
    92  H    0.030109
    93  H    0.030526
    94  H    0.036662
    95  H    0.055842
    96  H    0.049916
    97  H    0.066736
    98  H    0.056919
    99  H    0.058279
   100  H    0.061968
   101  H    0.049550
   102  H    0.051557
   103  H    0.066602
   104  H    0.021825
   105  H    0.039019
   106  H    0.036342
   107  H    0.051735
   108  H    0.019206
   109  H    0.018133
   110  H    0.025342
   111  H    0.021290
   112  H    0.008759
   113  H    0.025018
   114  H    0.021912
   115  H    0.031635
   116  H    0.026101
   117  H    0.040255
   118  H    0.010111
   119  H    0.006237
   120  H    0.014548
   121  H    0.013120
   122  H    0.010591
   123  H    0.003429
   124  H    0.022498
   125  H    0.001163
   126  H    0.016812
   127  H    0.039428
   128  H    0.020590
   129  H    0.009611
   130  H    0.030379
   131  H    0.015135
   132  H    0.016906
   133  H    0.020787
   134  H    0.017604
   135  H    0.030180
   136  H    0.016758
   137  H    0.030707
   138  H    0.031132
   139  H    0.013164
   140  H    0.036734
 Sum of Mulliken charges =  -0.00000

 Dipole moment (field-independent basis, Debye):
    X=             -6.3229    Y=              2.6555    Z=              2.3320  Tot=              7.2435
 Quadrupole moment (field-independent basis, Debye-Ang):
   XX=           -386.3188   YY=           -429.3014   ZZ=           -400.5609
   XY=             31.6503   XZ=             16.7717   YZ=              0.0584

 Normal termination of Gaussian 16 at Wed Apr 27 03:36:02 2022.
