 Gaussian 16, Revision A.03,
 Gaussian 16:  ES64L-G16RevA.03 25-Dec-2016

 --------------------
 #p ZINDO=(nstates=5)
 --------------------

 ------------------------------
 step_1051_chromophore_21 ZINDO
 ------------------------------
 Symbolic Z-matrix:
 Charge =  0 Multiplicity = 1

                         Standard orientation:
 ---------------------------------------------------------------------
 Center     Atomic      Atomic             Coordinates (Angstroms)
 Number     Number       Type             X           Y           Z
 ---------------------------------------------------------------------
      1         12           0        5.115569    1.096743    0.088200
      2          6           0        4.843177   -2.331073    0.260265
      3          6           0        1.745396    1.327064   -0.035167
      4          6           0        5.454752    4.367260   -0.159424
      5          6           0        8.660851    0.783844    0.159023
      6          7           0        3.524094   -0.408790    0.176114
      7          6           0        3.573299   -1.691971    0.364380
      8          6           0        2.227107   -2.344749    0.474238
      9          6           0        1.286717   -1.248753   -0.104588
     10          6           0        2.209994   -0.026216   -0.029466
     11          6           0        0.647632   -1.512197   -1.487902
     12          6           0        1.877204   -2.788839    1.898828
     13          6           0        1.272539   -4.195558    1.990354
     14          6           0        0.259996   -4.605921    0.872973
     15          8           0        0.328023   -5.607158    0.136833
     16          8           0       -0.809057   -3.681187    0.806554
     17          7           0        3.721786    2.651079    0.071695
     18          6           0        2.392697    2.547630   -0.001938
     19          6           0        1.796848    3.891181   -0.006076
     20          6           0        2.874893    4.781985   -0.160043
     21          6           0        4.092473    3.911680   -0.129442
     22          6           0        0.291770    4.072989    0.088187
     23          6           0        2.933577    6.226566   -0.379704
     24          8           0        3.961546    6.829289   -0.497393
     25          6           0        1.674030    6.980827   -0.371427
     26          7           0        6.901640    2.432905   -0.134696
     27          6           0        6.655862    3.726991    0.005754
     28          6           0        8.043232    4.505343   -0.052680
     29          6           0        9.093277    3.323973    0.002530
     30          6           0        8.203852    2.111141    0.081914
     31          6           0        8.393973    5.575923   -1.081145
     32          6           0       10.198294    3.420840    1.205166
     33          6           0       11.619994    3.696233    0.874452
     34          7           0        6.506344   -0.412429   -0.058865
     35          6           0        7.907600   -0.399347   -0.017943
     36          6           0        8.356071   -1.810375   -0.058568
     37          6           0        7.148670   -2.622913    0.034814
     38          6           0        6.069576   -1.693993   -0.023442
     39          6           0        9.828286   -2.234719   -0.012653
     40          6           0        6.643004   -3.998363    0.266992
     41          8           0        7.108199   -5.092845    0.420131
     42          6           0        5.125991   -3.782020    0.248384
     43          6           0        4.694266   -4.457257   -1.030058
     44          8           0        5.189523   -4.397503   -2.130454
     45          8           0        3.648347   -5.294186   -0.738765
     46          6           0        3.233030   -6.285309   -1.722703
     47          6           0       -1.964142   -4.157593    0.018586
     48          6           0       -3.016048   -3.056424   -0.234085
     49          6           0       -4.152059   -3.101962   -0.954582
     50          6           0       -4.651632   -4.334332   -1.684966
     51          6           0       -5.152957   -1.896068   -1.093477
     52          6           0       -6.407686   -1.860899   -0.204350
     53          6           0       -6.495626   -0.542950    0.644266
     54          6           0       -7.829756    0.247809    0.445188
     55          6           0       -7.749270    1.560892    1.189392
     56          6           0       -8.958846   -0.700420    1.167156
     57          6           0      -10.290436   -0.793956    0.462584
     58          6           0      -11.431136   -0.690304    1.408468
     59          6           0      -12.292759    0.559560    1.266936
     60          6           0      -13.065778    0.792926    2.611193
     61          6           0      -13.407671    0.372434    0.175099
     62          6           0      -13.718592    1.718623   -0.504361
     63          6           0      -15.011358    2.361935    0.050857
     64          6           0      -16.071095    2.631446   -0.971595
     65          6           0      -16.670346    1.317537   -1.506299
     66          6           0      -15.676986    3.628081   -2.076371
     67          1           0        0.660884    1.451893   -0.023138
     68          1           0        5.648759    5.438795   -0.234471
     69          1           0        9.724429    0.538900    0.199254
     70          1           0        2.251775   -3.159737   -0.248438
     71          1           0        0.432595   -1.158679    0.567214
     72          1           0        0.575570   -2.560983   -1.774557
     73          1           0        1.264313   -0.963588   -2.199760
     74          1           0       -0.378670   -1.149380   -1.546525
     75          1           0        1.173006   -2.168798    2.453995
     76          1           0        2.761491   -2.734314    2.532557
     77          1           0        0.856058   -4.336013    2.987223
     78          1           0        2.118114   -4.876937    1.891544
     79          1           0       -0.291606    3.180960    0.315089
     80          1           0       -0.089805    4.507485   -0.836494
     81          1           0        0.117673    4.783622    0.895308
     82          1           0        1.108211    6.661399    0.503882
     83          1           0        1.037829    6.780745   -1.234529
     84          1           0        1.932180    8.025828   -0.197781
     85          1           0        8.054986    5.080696    0.872842
     86          1           0        9.661299    3.255077   -0.925849
     87          1           0        8.306139    6.610481   -0.749050
     88          1           0        8.031685    5.393253   -2.092147
     89          1           0        9.470114    5.421623   -1.167001
     90          1           0       10.187581    2.514959    1.810884
     91          1           0        9.916429    4.260364    1.841556
     92          1           0       11.849697    4.761826    0.865471
     93          1           0       11.801846    3.278760   -0.115728
     94          1           0       12.333317    3.336100    1.615995
     95          1           0        9.661307   -3.181451    0.501173
     96          1           0       10.483114   -1.613851    0.598779
     97          1           0       10.198049   -2.456811   -1.014103
     98          1           0        4.718628   -4.369693    1.071031
     99          1           0        2.207472   -6.605133   -1.534099
    100          1           0        3.858441   -7.176754   -1.686078
    101          1           0        3.150181   -5.780728   -2.685690
    102          1           0       -2.411121   -4.926641    0.649093
    103          1           0       -1.695089   -4.635894   -0.923296
    104          1           0       -2.772431   -2.073226    0.166892
    105          1           0       -5.715634   -4.458574   -1.479189
    106          1           0       -4.116651   -5.228057   -1.365067
    107          1           0       -4.543111   -4.159578   -2.755088
    108          1           0       -5.475259   -1.854625   -2.133595
    109          1           0       -4.677473   -0.921014   -0.983260
    110          1           0       -6.516893   -2.645374    0.544533
    111          1           0       -7.304774   -2.124957   -0.763034
    112          1           0       -5.722793    0.189413    0.409017
    113          1           0       -6.334421   -0.795689    1.692087
    114          1           0       -8.098386    0.326311   -0.608306
    115          1           0       -7.333531    1.399926    2.184017
    116          1           0       -8.761939    1.916403    1.380478
    117          1           0       -7.210606    2.184746    0.475157
    118          1           0       -9.019246   -0.445774    2.225471
    119          1           0       -8.651369   -1.746117    1.166564
    120          1           0      -10.221573   -1.749901   -0.057005
    121          1           0      -10.314322   -0.035224   -0.320193
    122          1           0      -11.110426   -0.886649    2.431987
    123          1           0      -11.984726   -1.614668    1.240493
    124          1           0      -11.700182    1.462506    1.124398
    125          1           0      -13.882530    1.503929    2.488087
    126          1           0      -12.537436    1.463952    3.288272
    127          1           0      -13.532108   -0.077258    3.072907
    128          1           0      -14.319823   -0.039222    0.606273
    129          1           0      -13.078152   -0.349933   -0.571165
    130          1           0      -13.731007    1.591621   -1.586506
    131          1           0      -12.880668    2.342971   -0.191455
    132          1           0      -14.772947    3.288907    0.571894
    133          1           0      -15.448429    1.708019    0.805885
    134          1           0      -16.871324    3.068474   -0.374676
    135          1           0      -16.082295    0.453625   -1.196923
    136          1           0      -16.726272    1.394226   -2.591706
    137          1           0      -17.696505    1.168106   -1.170006
    138          1           0      -16.236815    4.563612   -2.060078
    139          1           0      -15.974696    3.232837   -3.047885
    140          1           0      -14.601153    3.797907   -2.057980
 ---------------------------------------------------------------------

 SCF Done:  E(RZINDO/S) =  -474.498731166     A.U. after   20 cycles

 Excitation energies and oscillator strengths:

 Excited State   1:      Singlet-A      1.2721 eV  974.67 nm  f=0.5504  <S**2>=0.000
     175 ->178        -0.21120
     176 ->177         0.65703
 This state for optimization and/or second-order correction.
 Total Energy, E(CIS/TDA) =  -474.451983873
 Copying the excited state density for this state as the 1-particle RhoCI density.

 Excited State   2:      Singlet-A      1.8663 eV  664.35 nm  f=0.0214  <S**2>=0.000
     175 ->177         0.52784
     176 ->178         0.44667

 Excited State   3:      Singlet-A      2.9278 eV  423.47 nm  f=0.8538  <S**2>=0.000
     175 ->177        -0.33950
     176 ->178         0.44763
     176 ->179        -0.33696

 Excited State   4:      Singlet-A      2.9557 eV  419.47 nm  f=0.0350  <S**2>=0.000
     170 ->177         0.27594
     170 ->179        -0.36301
     170 ->181         0.35691
     170 ->186         0.17928
     170 ->188         0.19180

 Excited State   5:      Singlet-A      3.0102 eV  411.88 nm  f=0.0139  <S**2>=0.000
     168 ->177         0.31202
     168 ->178        -0.13207
     168 ->179         0.29511
     168 ->181         0.25282
     168 ->186        -0.19650
     176 ->179         0.31599

 The electronic state is 1-A.
 Alpha  occ. eigenvalues --   -1.85102  -1.82211  -1.80244  -1.73864  -1.71533
 Alpha  occ. eigenvalues --   -1.69340  -1.67025  -1.62373  -1.62301  -1.60003
 Alpha  occ. eigenvalues --   -1.55470  -1.50689  -1.48608  -1.47764  -1.46845
 Alpha  occ. eigenvalues --   -1.44955  -1.43943  -1.40264  -1.40203  -1.38383
 Alpha  occ. eigenvalues --   -1.36766  -1.33394  -1.32885  -1.32174  -1.29629
 Alpha  occ. eigenvalues --   -1.27510  -1.24812  -1.22377  -1.19976  -1.18366
 Alpha  occ. eigenvalues --   -1.17793  -1.15809  -1.15367  -1.15120  -1.13310
 Alpha  occ. eigenvalues --   -1.12393  -1.11138  -1.09890  -1.04940  -1.03208
 Alpha  occ. eigenvalues --   -1.02894  -1.00960  -0.98459  -0.97621  -0.97538
 Alpha  occ. eigenvalues --   -0.95466  -0.94495  -0.94303  -0.93640  -0.93066
 Alpha  occ. eigenvalues --   -0.92390  -0.90436  -0.88881  -0.88598  -0.86263
 Alpha  occ. eigenvalues --   -0.85212  -0.84067  -0.83566  -0.82820  -0.81072
 Alpha  occ. eigenvalues --   -0.80122  -0.79539  -0.78945  -0.76911  -0.76113
 Alpha  occ. eigenvalues --   -0.75818  -0.75222  -0.75168  -0.74239  -0.73208
 Alpha  occ. eigenvalues --   -0.72598  -0.72092  -0.71341  -0.70659  -0.70125
 Alpha  occ. eigenvalues --   -0.69988  -0.69517  -0.69112  -0.68973  -0.68332
 Alpha  occ. eigenvalues --   -0.67520  -0.67059  -0.66711  -0.66472  -0.66165
 Alpha  occ. eigenvalues --   -0.65827  -0.65105  -0.64581  -0.64145  -0.63863
 Alpha  occ. eigenvalues --   -0.63778  -0.63294  -0.62970  -0.61978  -0.61893
 Alpha  occ. eigenvalues --   -0.61534  -0.60881  -0.60590  -0.60290  -0.60220
 Alpha  occ. eigenvalues --   -0.59834  -0.59625  -0.59072  -0.58649  -0.57991
 Alpha  occ. eigenvalues --   -0.57887  -0.57366  -0.57300  -0.56603  -0.56291
 Alpha  occ. eigenvalues --   -0.55771  -0.55544  -0.55290  -0.54977  -0.54094
 Alpha  occ. eigenvalues --   -0.53902  -0.53766  -0.53318  -0.53104  -0.52790
 Alpha  occ. eigenvalues --   -0.52530  -0.52302  -0.51676  -0.51640  -0.51474
 Alpha  occ. eigenvalues --   -0.51018  -0.50784  -0.50681  -0.50273  -0.49850
 Alpha  occ. eigenvalues --   -0.49581  -0.49369  -0.49268  -0.49232  -0.48994
 Alpha  occ. eigenvalues --   -0.48844  -0.48463  -0.48266  -0.48006  -0.47838
 Alpha  occ. eigenvalues --   -0.47703  -0.47466  -0.47110  -0.47010  -0.46460
 Alpha  occ. eigenvalues --   -0.46235  -0.46180  -0.45714  -0.45509  -0.45359
 Alpha  occ. eigenvalues --   -0.45029  -0.44947  -0.44814  -0.44265  -0.43920
 Alpha  occ. eigenvalues --   -0.43412  -0.43156  -0.43085  -0.42507  -0.42104
 Alpha  occ. eigenvalues --   -0.41905  -0.41226  -0.40481  -0.39929  -0.38918
 Alpha  occ. eigenvalues --   -0.37979  -0.36433  -0.35133  -0.34744  -0.34182
 Alpha  occ. eigenvalues --   -0.33178  -0.33033  -0.32557  -0.31849  -0.26117
 Alpha  occ. eigenvalues --   -0.21560
 Alpha virt. eigenvalues --   -0.08011  -0.02328  -0.00317   0.00642   0.01518
 Alpha virt. eigenvalues --    0.02863   0.03046   0.03494   0.04525   0.05204
 Alpha virt. eigenvalues --    0.06511   0.06781   0.07387   0.07577   0.08007

 Mulliken charges:
               1
     1  Mg   0.429553
     2  C   -0.049560
     3  C   -0.063929
     4  C   -0.071417
     5  C   -0.077677
     6  N   -0.259396
     7  C    0.140991
     8  C    0.013526
     9  C    0.005762
    10  C    0.084669
    11  C   -0.048787
    12  C   -0.012933
    13  C    0.008810
    14  C    0.463246
    15  O   -0.505357
    16  O   -0.281031
    17  N   -0.292482
    18  C    0.087231
    19  C    0.008289
    20  C   -0.058889
    21  C    0.133635
    22  C   -0.040262
    23  C    0.338823
    24  O   -0.526045
    25  C   -0.033654
    26  N   -0.272581
    27  C    0.123410
    28  C   -0.000787
    29  C    0.001814
    30  C    0.146007
    31  C   -0.048266
    32  C   -0.032663
    33  C   -0.052114
    34  N   -0.333506
    35  C    0.105667
    36  C    0.025703
    37  C   -0.053349
    38  C    0.117744
    39  C   -0.045339
    40  C    0.348611
    41  O   -0.503496
    42  C    0.058413
    43  C    0.493735
    44  O   -0.511807
    45  O   -0.284077
    46  C    0.075196
    47  C    0.109034
    48  C   -0.085998
    49  C   -0.010299
    50  C   -0.042944
    51  C   -0.020567
    52  C   -0.033142
    53  C   -0.034480
    54  C   -0.022430
    55  C   -0.054416
    56  C   -0.053262
    57  C   -0.029417
    58  C   -0.025015
    59  C   -0.004868
    60  C   -0.073807
    61  C   -0.033176
    62  C   -0.039784
    63  C   -0.024400
    64  C   -0.005538
    65  C   -0.058248
    66  C   -0.056652
    67  H    0.017567
    68  H    0.043994
    69  H    0.025589
    70  H    0.040790
    71  H    0.023244
    72  H    0.027561
    73  H    0.023828
    74  H    0.018975
    75  H    0.025714
    76  H    0.020815
    77  H    0.043658
    78  H    0.034200
    79  H    0.028968
    80  H    0.029327
    81  H    0.026200
    82  H    0.025314
    83  H    0.042677
    84  H    0.037102
    85  H    0.023175
    86  H    0.039063
    87  H    0.031783
    88  H    0.029691
    89  H    0.006920
    90  H    0.022250
    91  H    0.017198
    92  H    0.014664
    93  H    0.018813
    94  H    0.020045
    95  H    0.029209
    96  H    0.035251
    97  H    0.043816
    98  H    0.048230
    99  H    0.034228
   100  H    0.049276
   101  H    0.044423
   102  H    0.042928
   103  H    0.059738
   104  H    0.027259
   105  H    0.024578
   106  H    0.023479
   107  H    0.032312
   108  H    0.016269
   109  H    0.019263
   110  H    0.016013
   111  H    0.022714
   112  H    0.011326
   113  H    0.020843
   114  H    0.031816
   115  H    0.028015
   116  H    0.013505
   117  H    0.023952
   118  H    0.020352
   119  H    0.009986
   120  H    0.014042
   121  H    0.014745
   122  H    0.015844
   123  H    0.009190
   124  H    0.033349
   125  H    0.004534
   126  H    0.014938
   127  H    0.029985
   128  H    0.024358
   129  H    0.010020
   130  H    0.024794
   131  H    0.018233
   132  H    0.009874
   133  H    0.015301
   134  H    0.007897
   135  H    0.022215
   136  H    0.017106
   137  H    0.016158
   138  H    0.019166
   139  H    0.014954
   140  H    0.023365
 Sum of Mulliken charges =  -0.00000

 Dipole moment (field-independent basis, Debye):
    X=             -6.8073    Y=              2.6861    Z=              4.0114  Tot=              8.3454
 N-N= 4.295225671933D+03 E-N= 0.000000000000D+00  KE=-9.264906919604D+03
 Leave Link  601 at Wed Apr 27 03:47:50 2022, MaxMem=  6710886400 cpu:               4.1 elap:               0.2
 (Enter /sw/apps/gaussian-16.0/g16/l9999.exe)
 1\1\GINC-BP1-COMPUTE155\SP\RZINDO CIS\STO-3G\C55H74Mg1N4O6\OF15641\27-
 Apr-2022\0\\#p ZINDO=(nstates=5)\\step_1051_chromophore_21 ZINDO\\0,1\
 Mg,0,15.975,51.301,25.625\C,0,17.765,50.277,28.382\C,0,13.524,52.415,2
 7.669\C,0,14.279,52.179,22.937\C,0,18.563,50.052,23.524\N,0,15.779,51.
 358,27.808\C,0,16.612,51.031,28.748\C,0,16.122,51.339,30.132\C,0,14.6,
 51.559,29.896\C,0,14.584,51.764,28.376\C,0,13.63,50.479,30.429\C,0,16.
 838,52.527,30.784\C,0,17.252,52.291,32.242\C,0,16.244,51.513,33.148\O,

 Normal termination of Gaussian 16 at Wed Apr 27 03:47:50 2022.
