 Gaussian 16, Revision A.03,
 Gaussian 16:  ES64L-G16RevA.03 25-Dec-2016

 ------------------------------
 #p blyp/Def2SVP td=(nstates=5)
 ------------------------------

 --------------------------------------------------
 step_801_chromophore_23 TDDFT with blyp functional
 --------------------------------------------------
 Symbolic Z-matrix:
 Charge =  0 Multiplicity = 1

                         Standard orientation:
 ---------------------------------------------------------------------
 Center     Atomic      Atomic             Coordinates (Angstroms)
 Number     Number       Type             X           Y           Z
 ---------------------------------------------------------------------
      1         12           0        4.658218    0.266955   -0.416352
      2          6           0        2.939761   -2.745374   -0.220563
      3          6           0        2.244393    1.445342   -2.499030
      4          6           0        5.858960    3.480416   -0.040014
      5          6           0        6.502601   -0.728983    2.396950
      6          7           0        2.803028   -0.547346   -1.236227
      7          6           0        2.294507   -1.816306   -1.034764
      8          6           0        1.022627   -1.976072   -1.778446
      9          6           0        0.976441   -0.704826   -2.754426
     10          6           0        2.100395    0.114649   -2.184014
     11          6           0        1.009080   -1.034004   -4.300692
     12          6           0       -0.244025   -2.150431   -0.859001
     13          6           0       -0.935702   -3.505697   -1.052814
     14          6           0       -2.241741   -3.564088   -1.885002
     15          8           0       -2.404256   -3.860659   -3.070180
     16          8           0       -3.318342   -3.408134   -1.002863
     17          7           0        4.287718    2.158708   -1.368441
     18          6           0        3.279214    2.405070   -2.255251
     19          6           0        3.333114    3.788024   -2.707527
     20          6           0        4.456582    4.396544   -1.953725
     21          6           0        4.914382    3.330472   -1.069568
     22          6           0        2.469306    4.429528   -3.714401
     23          6           0        4.792450    5.908871   -2.055900
     24          8           0        4.265612    6.627862   -2.849643
     25          6           0        5.805467    6.570888   -1.274551
     26          7           0        6.179081    1.203310    0.891704
     27          6           0        6.393188    2.545328    0.898022
     28          6           0        7.296024    2.915913    2.033717
     29          6           0        7.615105    1.568674    2.814056
     30          6           0        6.696342    0.592598    2.006777
     31          6           0        8.585738    3.682788    1.681641
     32          6           0        7.250615    1.607075    4.314828
     33          6           0        8.351362    1.017981    5.281768
     34          7           0        4.947181   -1.446681    0.677947
     35          6           0        5.716752   -1.733740    1.781590
     36          6           0        5.458334   -3.061445    2.209517
     37          6           0        4.458648   -3.551544    1.380518
     38          6           0        4.134193   -2.525163    0.512816
     39          6           0        6.137966   -3.890604    3.312033
     40          6           0        3.508443   -4.653348    1.227080
     41          8           0        3.436380   -5.712259    1.852461
     42          6           0        2.519601   -4.244748    0.077602
     43          6           0        2.792966   -5.235019   -1.070692
     44          8           0        3.715961   -5.163928   -1.882627
     45          8           0        1.820490   -6.248768   -1.202444
     46          6           0        1.808647   -7.197517   -2.369202
     47          6           0       -4.631483   -3.596512   -1.522224
     48          6           0       -5.551297   -2.896397   -0.614456
     49          6           0       -6.296445   -1.798976   -0.977348
     50          6           0       -6.119109   -0.989708   -2.320679
     51          6           0       -7.266550   -1.292301    0.071775
     52          6           0       -8.786208   -1.063354   -0.221769
     53          6           0       -9.879402   -1.897709    0.546019
     54          6           0      -10.642286   -0.955705    1.460777
     55          6           0      -11.989549   -1.706018    1.944184
     56          6           0       -9.753849   -0.443044    2.651108
     57          6           0       -9.642692    1.040392    2.610874
     58          6           0       -8.500841    1.686834    3.564177
     59          6           0       -7.139566    2.054354    2.813446
     60          6           0       -5.876512    1.643481    3.652267
     61          6           0       -6.979963    3.562836    2.480366
     62          6           0       -6.257417    3.720308    1.147769
     63          6           0       -7.170591    3.969405   -0.089028
     64          6           0       -6.780109    5.179735   -0.914980
     65          6           0       -7.543499    6.544204   -0.479787
     66          6           0       -7.067759    4.945648   -2.444585
     67          1           0        1.583950    1.851956   -3.267556
     68          1           0        6.151966    4.497364    0.227552
     69          1           0        6.937678   -1.042303    3.347980
     70          1           0        1.077986   -2.899631   -2.355564
     71          1           0        0.021382   -0.200386   -2.612651
     72          1           0        1.038043   -2.123456   -4.317986
     73          1           0        1.861010   -0.592766   -4.816947
     74          1           0        0.116292   -0.685466   -4.820612
     75          1           0       -0.917719   -1.339886   -1.136109
     76          1           0       -0.111290   -1.999532    0.212546
     77          1           0       -1.174169   -3.946283   -0.084382
     78          1           0       -0.471998   -4.358657   -1.547565
     79          1           0        1.794762    5.174157   -3.292537
     80          1           0        1.898192    3.652784   -4.222183
     81          1           0        3.085519    4.981240   -4.425703
     82          1           0        6.676479    5.934123   -1.425550
     83          1           0        5.577848    6.625987   -0.210849
     84          1           0        6.082290    7.605769   -1.475665
     85          1           0        6.659602    3.577342    2.622478
     86          1           0        8.641579    1.206549    2.748598
     87          1           0        8.469232    3.969211    0.636700
     88          1           0        9.510772    3.115053    1.780244
     89          1           0        8.773960    4.578302    2.273996
     90          1           0        6.328467    1.049217    4.474210
     91          1           0        7.003369    2.630113    4.598776
     92          1           0        9.177630    0.593222    4.711280
     93          1           0        7.911801    0.166840    5.800161
     94          1           0        8.619721    1.801230    5.990258
     95          1           0        7.083836   -4.245471    2.901167
     96          1           0        5.622375   -4.816147    3.567121
     97          1           0        6.247755   -3.348427    4.251276
     98          1           0        1.477370   -4.366713    0.373619
     99          1           0        2.745836   -7.729064   -2.535287
    100          1           0        1.533989   -6.674796   -3.285094
    101          1           0        1.022579   -7.898461   -2.087238
    102          1           0       -5.070044   -4.589501   -1.619330
    103          1           0       -4.634424   -3.124343   -2.504565
    104          1           0       -5.796533   -3.440966    0.297969
    105          1           0       -6.243870   -1.761295   -3.080476
    106          1           0       -5.095649   -0.625456   -2.235269
    107          1           0       -6.692580   -0.071380   -2.447946
    108          1           0       -6.864043   -0.304247    0.294479
    109          1           0       -7.179705   -1.876886    0.987509
    110          1           0       -8.895023   -1.231683   -1.293520
    111          1           0       -8.834158    0.014098   -0.062361
    112          1           0       -9.325162   -2.588843    1.182295
    113          1           0      -10.466649   -2.496116   -0.150042
    114          1           0      -10.979412   -0.093675    0.885334
    115          1           0      -11.975946   -2.734137    1.581453
    116          1           0      -12.882134   -1.206970    1.568106
    117          1           0      -11.999795   -1.733642    3.033962
    118          1           0       -8.772020   -0.912205    2.584671
    119          1           0      -10.165526   -0.741485    3.615930
    120          1           0      -10.538024    1.558336    2.954867
    121          1           0       -9.467023    1.396502    1.595218
    122          1           0       -8.407124    0.813427    4.208816
    123          1           0       -8.801967    2.593658    4.087795
    124          1           0       -7.318410    1.587338    1.845598
    125          1           0       -5.977196    1.861872    4.715616
    126          1           0       -5.033899    2.154645    3.186326
    127          1           0       -5.699287    0.578162    3.505899
    128          1           0       -6.495988    4.071388    3.313668
    129          1           0       -7.992453    3.960935    2.405994
    130          1           0       -5.681658    2.830755    0.888839
    131          1           0       -5.466810    4.446291    1.336923
    132          1           0       -8.218547    3.925969    0.208168
    133          1           0       -7.132154    3.150731   -0.808016
    134          1           0       -5.692664    5.246729   -0.869590
    135          1           0       -8.171660    6.871783   -1.308149
    136          1           0       -6.715377    7.176585   -0.159041
    137          1           0       -8.163482    6.208400    0.351427
    138          1           0       -7.662914    4.037366   -2.542176
    139          1           0       -6.120824    4.740269   -2.944520
    140          1           0       -7.532039    5.779931   -2.970070
 ---------------------------------------------------------------------

 SCF Done:  E(RB-LYP) =  -3007.37455441     A.U. after   20 cycles

 Excitation energies and oscillator strengths:

 Excited State   1:      Singlet-A      1.7678 eV  701.33 nm  f=0.0001  <S**2>=0.000
     244 -> 247        0.70394
 This state for optimization and/or second-order correction.
 Total Energy, E(TD-HF/TD-DFT) =  -3007.30958736
 Copying the excited state density for this state as the 1-particle RhoCI density.

 Excited State   2:      Singlet-A      1.8519 eV  669.49 nm  f=0.3012  <S**2>=0.000
     245 -> 248        0.20316
     246 -> 247        0.68372
     246 <- 247       -0.14541

 Excited State   3:      Singlet-A      1.9840 eV  624.92 nm  f=0.0494  <S**2>=0.000
     243 -> 247       -0.46151
     245 -> 247        0.49996
     246 -> 248       -0.15423

 Excited State   4:      Singlet-A      2.1184 eV  585.28 nm  f=0.0455  <S**2>=0.000
     243 -> 247        0.52418
     245 -> 247        0.40812
     246 -> 248       -0.19967

 Excited State   5:      Singlet-A      2.1878 eV  566.70 nm  f=0.0005  <S**2>=0.000
     242 -> 247        0.70224

 The electronic state is 1-A.
 Alpha  occ. eigenvalues --  -46.27741 -18.81433 -18.81348 -18.77580 -18.76607
 Alpha  occ. eigenvalues --  -18.76161 -18.75108 -14.03482 -14.03342 -14.01114
 Alpha  occ. eigenvalues --  -14.01048 -10.04412 -10.04386 -10.00242  -9.99594
 Alpha  occ. eigenvalues --   -9.98088  -9.96880  -9.96722  -9.96567  -9.96562
 Alpha  occ. eigenvalues --   -9.96550  -9.96277  -9.95824  -9.95498  -9.95466
 Alpha  occ. eigenvalues --   -9.94679  -9.94443  -9.94392  -9.94356  -9.94341
 Alpha  occ. eigenvalues --   -9.94159  -9.94132  -9.94060  -9.93910  -9.93577
 Alpha  occ. eigenvalues --   -9.93396  -9.93117  -9.93111  -9.92959  -9.92945
 Alpha  occ. eigenvalues --   -9.92773  -9.92738  -9.92688  -9.92558  -9.92388
 Alpha  occ. eigenvalues --   -9.92279  -9.92269  -9.92155  -9.91926  -9.91801
 Alpha  occ. eigenvalues --   -9.91740  -9.91673  -9.91638  -9.91580  -9.91511
 Alpha  occ. eigenvalues --   -9.91338  -9.91320  -9.91292  -9.91178  -9.91157
 Alpha  occ. eigenvalues --   -9.91137  -9.91040  -9.90990  -9.90897  -9.90893
 Alpha  occ. eigenvalues --   -9.90752  -2.92224  -1.72665  -1.72083  -1.71950
 Alpha  occ. eigenvalues --   -0.97321  -0.95637  -0.93234  -0.91165  -0.89867
 Alpha  occ. eigenvalues --   -0.88181  -0.86945  -0.86172  -0.85838  -0.85033
 Alpha  occ. eigenvalues --   -0.75289  -0.73427  -0.73052  -0.72613  -0.72122
 Alpha  occ. eigenvalues --   -0.71958  -0.71895  -0.71208  -0.70392  -0.69938
 Alpha  occ. eigenvalues --   -0.69358  -0.69240  -0.68165  -0.67585  -0.67466
 Alpha  occ. eigenvalues --   -0.66349  -0.66207  -0.65162  -0.64852  -0.64573
 Alpha  occ. eigenvalues --   -0.63816  -0.62450  -0.62221  -0.61674  -0.60981
 Alpha  occ. eigenvalues --   -0.60590  -0.60116  -0.59715  -0.59326  -0.59066
 Alpha  occ. eigenvalues --   -0.58517  -0.57783  -0.57372  -0.56298  -0.54801
 Alpha  occ. eigenvalues --   -0.54162  -0.53795  -0.52897  -0.52121  -0.51977
 Alpha  occ. eigenvalues --   -0.51560  -0.51079  -0.50924  -0.50656  -0.50055
 Alpha  occ. eigenvalues --   -0.49414  -0.49314  -0.48696  -0.48237  -0.46568
 Alpha  occ. eigenvalues --   -0.46363  -0.46339  -0.45781  -0.45243  -0.44710
 Alpha  occ. eigenvalues --   -0.44096  -0.43333  -0.43252  -0.43060  -0.42740
 Alpha  occ. eigenvalues --   -0.42203  -0.41857  -0.41204  -0.41104  -0.40746
 Alpha  occ. eigenvalues --   -0.40498  -0.40430  -0.40243  -0.40065  -0.39964
 Alpha  occ. eigenvalues --   -0.39654  -0.39619  -0.39391  -0.39178  -0.39018
 Alpha  occ. eigenvalues --   -0.38990  -0.38622  -0.38445  -0.38270  -0.38125
 Alpha  occ. eigenvalues --   -0.37962  -0.37801  -0.37689  -0.37432  -0.37251
 Alpha  occ. eigenvalues --   -0.36944  -0.36857  -0.36620  -0.36603  -0.36454
 Alpha  occ. eigenvalues --   -0.36367  -0.36280  -0.36001  -0.35781  -0.35749
 Alpha  occ. eigenvalues --   -0.35335  -0.35235  -0.35057  -0.34985  -0.34909
 Alpha  occ. eigenvalues --   -0.34781  -0.34527  -0.34427  -0.34411  -0.34179
 Alpha  occ. eigenvalues --   -0.33928  -0.33834  -0.33789  -0.33643  -0.33611
 Alpha  occ. eigenvalues --   -0.33539  -0.33318  -0.33050  -0.32591  -0.32501
 Alpha  occ. eigenvalues --   -0.32313  -0.32161  -0.31797  -0.31748  -0.31550
 Alpha  occ. eigenvalues --   -0.31461  -0.31300  -0.31101  -0.30951  -0.30729
 Alpha  occ. eigenvalues --   -0.30621  -0.30406  -0.30321  -0.30022  -0.29875
 Alpha  occ. eigenvalues --   -0.29598  -0.29375  -0.29276  -0.29228  -0.29076
 Alpha  occ. eigenvalues --   -0.28461  -0.28436  -0.28131  -0.28024  -0.27692
 Alpha  occ. eigenvalues --   -0.27611  -0.27466  -0.27344  -0.26822  -0.26778
 Alpha  occ. eigenvalues --   -0.26682  -0.25841  -0.25546  -0.25464  -0.25046
 Alpha  occ. eigenvalues --   -0.24540  -0.24514  -0.24436  -0.24235  -0.24192
 Alpha  occ. eigenvalues --   -0.23595  -0.22500  -0.22324  -0.21375  -0.20979
 Alpha  occ. eigenvalues --   -0.20058  -0.19833  -0.19231  -0.18228  -0.17508
 Alpha  occ. eigenvalues --   -0.16217
 Alpha virt. eigenvalues --   -0.11799  -0.06916  -0.06279  -0.04563  -0.03804
 Alpha virt. eigenvalues --   -0.02975  -0.02303  -0.01999  -0.01608  -0.00188
 Alpha virt. eigenvalues --    0.00852   0.00917   0.00973   0.02553   0.02853

 Mulliken charges:
               1
     1  Mg   0.696157
     2  C   -0.018416
     3  C   -0.035193
     4  C   -0.071516
     5  C   -0.058046
     6  N   -0.230161
     7  C   -0.042871
     8  C    0.012918
     9  C   -0.017340
    10  C    0.073804
    11  C    0.131103
    12  C    0.163092
    13  C    0.091389
    14  C    0.061018
    15  O   -0.192618
    16  O   -0.276990
    17  N   -0.261183
    18  C    0.075786
    19  C   -0.144460
    20  C    0.002204
    21  C    0.142573
    22  C    0.200077
    23  C   -0.071614
    24  O   -0.144784
    25  C    0.147172
    26  N   -0.205484
    27  C   -0.025769
    28  C    0.053308
    29  C    0.020812
    30  C    0.022855
    31  C    0.125921
    32  C    0.065740
    33  C    0.059841
    34  N   -0.277527
    35  C    0.103233
    36  C   -0.176993
    37  C    0.103565
    38  C    0.109603
    39  C    0.158229
    40  C   -0.047454
    41  O   -0.136264
    42  C    0.063007
    43  C    0.141452
    44  O   -0.188839
    45  O   -0.311305
    46  C    0.219870
    47  C    0.328465
    48  C   -0.114552
    49  C   -0.164219
    50  C    0.128610
    51  C    0.094504
    52  C    0.064245
    53  C    0.135166
    54  C   -0.103297
    55  C    0.105587
    56  C    0.145682
    57  C    0.004951
    58  C    0.091051
    59  C   -0.101634
    60  C    0.123081
    61  C    0.094641
    62  C    0.080712
    63  C    0.110045
    64  C   -0.132574
    65  C    0.120043
    66  C    0.087750
    67  H   -0.070905
    68  H   -0.079672
    69  H   -0.070673
    70  H   -0.009311
    71  H   -0.020441
    72  H   -0.002424
    73  H   -0.000859
    74  H   -0.003205
    75  H   -0.018297
    76  H   -0.007079
    77  H   -0.003967
    78  H    0.007240
    79  H    0.004565
    80  H   -0.023211
    81  H    0.009957
    82  H    0.005447
    83  H    0.009698
    84  H   -0.014245
    85  H   -0.020610
    86  H   -0.009151
    87  H   -0.010728
    88  H   -0.011851
    89  H   -0.012666
    90  H   -0.018803
    91  H   -0.024412
    92  H   -0.005617
    93  H   -0.005158
    94  H    0.003908
    95  H    0.005846
    96  H   -0.001385
    97  H   -0.003879
    98  H   -0.006631
    99  H    0.026759
   100  H    0.019135
   101  H    0.021057
   102  H   -0.001647
   103  H   -0.037206
   104  H   -0.035677
   105  H    0.028411
   106  H    0.012180
   107  H   -0.002316
   108  H   -0.017922
   109  H   -0.029187
   110  H   -0.036574
   111  H   -0.032201
   112  H   -0.033863
   113  H   -0.026487
   114  H   -0.026940
   115  H   -0.019709
   116  H   -0.008747
   117  H   -0.021827
   118  H   -0.030065
   119  H   -0.026259
   120  H   -0.031902
   121  H   -0.023656
   122  H   -0.040019
   123  H   -0.031120
   124  H   -0.030106
   125  H   -0.001121
   126  H   -0.022424
   127  H   -0.017549
   128  H   -0.036347
   129  H   -0.040621
   130  H   -0.028432
   131  H   -0.031620
   132  H   -0.034552
   133  H   -0.048081
   134  H   -0.029993
   135  H   -0.004837
   136  H    0.002784
   137  H   -0.016242
   138  H   -0.020914
   139  H   -0.021238
   140  H   -0.012565
 Sum of Mulliken charges =  -0.00000

 Dipole moment (field-independent basis, Debye):
    X=             -0.7320    Y=              2.3274    Z=              2.1689  Tot=              3.2644
 Quadrupole moment (field-independent basis, Debye-Ang):
   XX=           -374.4374   YY=           -437.0161   ZZ=           -406.8814
   XY=             19.1569   XZ=             21.5684   YZ=             22.1464

 Normal termination of Gaussian 16 at Thu May  5 10:41:27 2022.
