 Gaussian 16, Revision A.03,
 Gaussian 16:  ES64L-G16RevA.03 25-Dec-2016

 -----------------------------------
 #p cam-b3lyp/Def2SVP td=(nstates=5)
 -----------------------------------

 -------------------------------------------------------
 step_801_chromophore_23 TDDFT with cam-b3lyp functional
 -------------------------------------------------------
 Symbolic Z-matrix:
 Charge =  0 Multiplicity = 1

                         Standard orientation:
 ---------------------------------------------------------------------
 Center     Atomic      Atomic             Coordinates (Angstroms)
 Number     Number       Type             X           Y           Z
 ---------------------------------------------------------------------
      1         12           0        4.658218    0.266955   -0.416352
      2          6           0        2.939761   -2.745374   -0.220563
      3          6           0        2.244393    1.445342   -2.499030
      4          6           0        5.858960    3.480416   -0.040014
      5          6           0        6.502601   -0.728983    2.396950
      6          7           0        2.803028   -0.547346   -1.236227
      7          6           0        2.294507   -1.816306   -1.034764
      8          6           0        1.022627   -1.976072   -1.778446
      9          6           0        0.976441   -0.704826   -2.754426
     10          6           0        2.100395    0.114649   -2.184014
     11          6           0        1.009080   -1.034004   -4.300692
     12          6           0       -0.244025   -2.150431   -0.859001
     13          6           0       -0.935702   -3.505697   -1.052814
     14          6           0       -2.241741   -3.564088   -1.885002
     15          8           0       -2.404256   -3.860659   -3.070180
     16          8           0       -3.318342   -3.408134   -1.002863
     17          7           0        4.287718    2.158708   -1.368441
     18          6           0        3.279214    2.405070   -2.255251
     19          6           0        3.333114    3.788024   -2.707527
     20          6           0        4.456582    4.396544   -1.953725
     21          6           0        4.914382    3.330472   -1.069568
     22          6           0        2.469306    4.429528   -3.714401
     23          6           0        4.792450    5.908871   -2.055900
     24          8           0        4.265612    6.627862   -2.849643
     25          6           0        5.805467    6.570888   -1.274551
     26          7           0        6.179081    1.203310    0.891704
     27          6           0        6.393188    2.545328    0.898022
     28          6           0        7.296024    2.915913    2.033717
     29          6           0        7.615105    1.568674    2.814056
     30          6           0        6.696342    0.592598    2.006777
     31          6           0        8.585738    3.682788    1.681641
     32          6           0        7.250615    1.607075    4.314828
     33          6           0        8.351362    1.017981    5.281768
     34          7           0        4.947181   -1.446681    0.677947
     35          6           0        5.716752   -1.733740    1.781590
     36          6           0        5.458334   -3.061445    2.209517
     37          6           0        4.458648   -3.551544    1.380518
     38          6           0        4.134193   -2.525163    0.512816
     39          6           0        6.137966   -3.890604    3.312033
     40          6           0        3.508443   -4.653348    1.227080
     41          8           0        3.436380   -5.712259    1.852461
     42          6           0        2.519601   -4.244748    0.077602
     43          6           0        2.792966   -5.235019   -1.070692
     44          8           0        3.715961   -5.163928   -1.882627
     45          8           0        1.820490   -6.248768   -1.202444
     46          6           0        1.808647   -7.197517   -2.369202
     47          6           0       -4.631483   -3.596512   -1.522224
     48          6           0       -5.551297   -2.896397   -0.614456
     49          6           0       -6.296445   -1.798976   -0.977348
     50          6           0       -6.119109   -0.989708   -2.320679
     51          6           0       -7.266550   -1.292301    0.071775
     52          6           0       -8.786208   -1.063354   -0.221769
     53          6           0       -9.879402   -1.897709    0.546019
     54          6           0      -10.642286   -0.955705    1.460777
     55          6           0      -11.989549   -1.706018    1.944184
     56          6           0       -9.753849   -0.443044    2.651108
     57          6           0       -9.642692    1.040392    2.610874
     58          6           0       -8.500841    1.686834    3.564177
     59          6           0       -7.139566    2.054354    2.813446
     60          6           0       -5.876512    1.643481    3.652267
     61          6           0       -6.979963    3.562836    2.480366
     62          6           0       -6.257417    3.720308    1.147769
     63          6           0       -7.170591    3.969405   -0.089028
     64          6           0       -6.780109    5.179735   -0.914980
     65          6           0       -7.543499    6.544204   -0.479787
     66          6           0       -7.067759    4.945648   -2.444585
     67          1           0        1.583950    1.851956   -3.267556
     68          1           0        6.151966    4.497364    0.227552
     69          1           0        6.937678   -1.042303    3.347980
     70          1           0        1.077986   -2.899631   -2.355564
     71          1           0        0.021382   -0.200386   -2.612651
     72          1           0        1.038043   -2.123456   -4.317986
     73          1           0        1.861010   -0.592766   -4.816947
     74          1           0        0.116292   -0.685466   -4.820612
     75          1           0       -0.917719   -1.339886   -1.136109
     76          1           0       -0.111290   -1.999532    0.212546
     77          1           0       -1.174169   -3.946283   -0.084382
     78          1           0       -0.471998   -4.358657   -1.547565
     79          1           0        1.794762    5.174157   -3.292537
     80          1           0        1.898192    3.652784   -4.222183
     81          1           0        3.085519    4.981240   -4.425703
     82          1           0        6.676479    5.934123   -1.425550
     83          1           0        5.577848    6.625987   -0.210849
     84          1           0        6.082290    7.605769   -1.475665
     85          1           0        6.659602    3.577342    2.622478
     86          1           0        8.641579    1.206549    2.748598
     87          1           0        8.469232    3.969211    0.636700
     88          1           0        9.510772    3.115053    1.780244
     89          1           0        8.773960    4.578302    2.273996
     90          1           0        6.328467    1.049217    4.474210
     91          1           0        7.003369    2.630113    4.598776
     92          1           0        9.177630    0.593222    4.711280
     93          1           0        7.911801    0.166840    5.800161
     94          1           0        8.619721    1.801230    5.990258
     95          1           0        7.083836   -4.245471    2.901167
     96          1           0        5.622375   -4.816147    3.567121
     97          1           0        6.247755   -3.348427    4.251276
     98          1           0        1.477370   -4.366713    0.373619
     99          1           0        2.745836   -7.729064   -2.535287
    100          1           0        1.533989   -6.674796   -3.285094
    101          1           0        1.022579   -7.898461   -2.087238
    102          1           0       -5.070044   -4.589501   -1.619330
    103          1           0       -4.634424   -3.124343   -2.504565
    104          1           0       -5.796533   -3.440966    0.297969
    105          1           0       -6.243870   -1.761295   -3.080476
    106          1           0       -5.095649   -0.625456   -2.235269
    107          1           0       -6.692580   -0.071380   -2.447946
    108          1           0       -6.864043   -0.304247    0.294479
    109          1           0       -7.179705   -1.876886    0.987509
    110          1           0       -8.895023   -1.231683   -1.293520
    111          1           0       -8.834158    0.014098   -0.062361
    112          1           0       -9.325162   -2.588843    1.182295
    113          1           0      -10.466649   -2.496116   -0.150042
    114          1           0      -10.979412   -0.093675    0.885334
    115          1           0      -11.975946   -2.734137    1.581453
    116          1           0      -12.882134   -1.206970    1.568106
    117          1           0      -11.999795   -1.733642    3.033962
    118          1           0       -8.772020   -0.912205    2.584671
    119          1           0      -10.165526   -0.741485    3.615930
    120          1           0      -10.538024    1.558336    2.954867
    121          1           0       -9.467023    1.396502    1.595218
    122          1           0       -8.407124    0.813427    4.208816
    123          1           0       -8.801967    2.593658    4.087795
    124          1           0       -7.318410    1.587338    1.845598
    125          1           0       -5.977196    1.861872    4.715616
    126          1           0       -5.033899    2.154645    3.186326
    127          1           0       -5.699287    0.578162    3.505899
    128          1           0       -6.495988    4.071388    3.313668
    129          1           0       -7.992453    3.960935    2.405994
    130          1           0       -5.681658    2.830755    0.888839
    131          1           0       -5.466810    4.446291    1.336923
    132          1           0       -8.218547    3.925969    0.208168
    133          1           0       -7.132154    3.150731   -0.808016
    134          1           0       -5.692664    5.246729   -0.869590
    135          1           0       -8.171660    6.871783   -1.308149
    136          1           0       -6.715377    7.176585   -0.159041
    137          1           0       -8.163482    6.208400    0.351427
    138          1           0       -7.662914    4.037366   -2.542176
    139          1           0       -6.120824    4.740269   -2.944520
    140          1           0       -7.532039    5.779931   -2.970070
 ---------------------------------------------------------------------

 SCF Done:  E(RCAM-B3LYP) =  -3007.15864388     A.U. after   18 cycles

 Excitation energies and oscillator strengths:

 Excited State   1:      Singlet-A      1.7457 eV  710.24 nm  f=0.3875  <S**2>=0.000
     245 -> 248       -0.18492
     246 -> 247        0.68510
     245 <- 248       -0.10909
 This state for optimization and/or second-order correction.
 Total Energy, E(TD-HF/TD-DFT) =  -3007.09449148
 Copying the excited state density for this state as the 1-particle RhoCI density.

 Excited State   2:      Singlet-A      2.2455 eV  552.14 nm  f=0.1311  <S**2>=0.000
     245 -> 247        0.64401
     246 -> 248        0.27974

 Excited State   3:      Singlet-A      3.1919 eV  388.43 nm  f=0.0032  <S**2>=0.000
     243 -> 247        0.68580

 Excited State   4:      Singlet-A      3.5277 eV  351.46 nm  f=0.0122  <S**2>=0.000
     240 -> 247        0.14836
     241 -> 247       -0.12531
     242 -> 247        0.62391
     246 -> 248        0.18721

 Excited State   5:      Singlet-A      3.5784 eV  346.48 nm  f=0.0212  <S**2>=0.000
     241 -> 247        0.56669
     241 -> 248       -0.10788
     241 -> 249       -0.20913
     241 -> 250       -0.23119
     242 -> 247        0.10217
     246 -> 248        0.14316

 The electronic state is 1-A.
 Alpha  occ. eigenvalues --  -46.89344 -19.24255 -19.24215 -19.20614 -19.19724
 Alpha  occ. eigenvalues --  -19.19248 -19.18463 -14.42400 -14.42252 -14.39740
 Alpha  occ. eigenvalues --  -14.39337 -10.39928 -10.39839 -10.35499 -10.34836
 Alpha  occ. eigenvalues --  -10.32087 -10.31595 -10.31185 -10.31098 -10.31045
 Alpha  occ. eigenvalues --  -10.30802 -10.30548 -10.30517 -10.29919 -10.29408
 Alpha  occ. eigenvalues --  -10.29039 -10.28782 -10.28637 -10.28461 -10.28372
 Alpha  occ. eigenvalues --  -10.28366 -10.28140 -10.28077 -10.27969 -10.27817
 Alpha  occ. eigenvalues --  -10.27708 -10.27499 -10.27386 -10.26964 -10.26942
 Alpha  occ. eigenvalues --  -10.26824 -10.26484 -10.26455 -10.26336 -10.26053
 Alpha  occ. eigenvalues --  -10.26021 -10.25923 -10.25844 -10.25758 -10.25713
 Alpha  occ. eigenvalues --  -10.25686 -10.25414 -10.25407 -10.25314 -10.25176
 Alpha  occ. eigenvalues --  -10.25021 -10.25017 -10.24956 -10.24949 -10.24925
 Alpha  occ. eigenvalues --  -10.24812 -10.24742 -10.24736 -10.24619 -10.24552
 Alpha  occ. eigenvalues --  -10.24383  -3.17724  -1.92645  -1.92153  -1.92040
 Alpha  occ. eigenvalues --   -1.15766  -1.14112  -1.11877  -1.09445  -1.07742
 Alpha  occ. eigenvalues --   -1.05994  -1.04630  -1.03792  -1.03553  -1.02697
 Alpha  occ. eigenvalues --   -0.92331  -0.90290  -0.89843  -0.89390  -0.88874
 Alpha  occ. eigenvalues --   -0.88666  -0.88584  -0.87819  -0.86951  -0.86467
 Alpha  occ. eigenvalues --   -0.86044  -0.85639  -0.84491  -0.83865  -0.83592
 Alpha  occ. eigenvalues --   -0.82633  -0.82265  -0.81076  -0.80624  -0.80419
 Alpha  occ. eigenvalues --   -0.79552  -0.78029  -0.77852  -0.77279  -0.76398
 Alpha  occ. eigenvalues --   -0.75972  -0.75471  -0.75043  -0.74598  -0.74323
 Alpha  occ. eigenvalues --   -0.73590  -0.72777  -0.72352  -0.71163  -0.69404
 Alpha  occ. eigenvalues --   -0.68790  -0.68369  -0.67408  -0.66414  -0.66084
 Alpha  occ. eigenvalues --   -0.65871  -0.65248  -0.64953  -0.64646  -0.64091
 Alpha  occ. eigenvalues --   -0.63374  -0.63196  -0.62609  -0.61832  -0.60255
 Alpha  occ. eigenvalues --   -0.60017  -0.59863  -0.59267  -0.58536  -0.58234
 Alpha  occ. eigenvalues --   -0.57660  -0.56716  -0.56564  -0.56217  -0.55831
 Alpha  occ. eigenvalues --   -0.55282  -0.54667  -0.54087  -0.53927  -0.53833
 Alpha  occ. eigenvalues --   -0.53313  -0.53019  -0.52991  -0.52887  -0.52827
 Alpha  occ. eigenvalues --   -0.52447  -0.52232  -0.52217  -0.51883  -0.51633
 Alpha  occ. eigenvalues --   -0.51500  -0.51334  -0.50925  -0.50742  -0.50429
 Alpha  occ. eigenvalues --   -0.50399  -0.50284  -0.50152  -0.49890  -0.49643
 Alpha  occ. eigenvalues --   -0.49564  -0.49333  -0.48996  -0.48943  -0.48679
 Alpha  occ. eigenvalues --   -0.48642  -0.48447  -0.48167  -0.47936  -0.47773
 Alpha  occ. eigenvalues --   -0.47547  -0.47196  -0.46933  -0.46853  -0.46746
 Alpha  occ. eigenvalues --   -0.46647  -0.46585  -0.46434  -0.46154  -0.46127
 Alpha  occ. eigenvalues --   -0.45891  -0.45554  -0.45467  -0.45423  -0.45393
 Alpha  occ. eigenvalues --   -0.45297  -0.44995  -0.44967  -0.44341  -0.44032
 Alpha  occ. eigenvalues --   -0.43924  -0.43828  -0.43450  -0.43353  -0.43284
 Alpha  occ. eigenvalues --   -0.43212  -0.42803  -0.42481  -0.42412  -0.42134
 Alpha  occ. eigenvalues --   -0.42065  -0.41687  -0.41586  -0.41474  -0.41284
 Alpha  occ. eigenvalues --   -0.41111  -0.40753  -0.40687  -0.40465  -0.40319
 Alpha  occ. eigenvalues --   -0.39512  -0.39481  -0.39081  -0.39071  -0.38707
 Alpha  occ. eigenvalues --   -0.38602  -0.38327  -0.38209  -0.38193  -0.37678
 Alpha  occ. eigenvalues --   -0.37242  -0.36917  -0.36337  -0.36075  -0.36051
 Alpha  occ. eigenvalues --   -0.35724  -0.35580  -0.34942  -0.34663  -0.34604
 Alpha  occ. eigenvalues --   -0.34278  -0.33800  -0.33520  -0.31639  -0.31007
 Alpha  occ. eigenvalues --   -0.30783  -0.30192  -0.29508  -0.29451  -0.24294
 Alpha  occ. eigenvalues --   -0.21600
 Alpha virt. eigenvalues --   -0.09018  -0.01824   0.00387   0.02398   0.02980
 Alpha virt. eigenvalues --    0.03974   0.04621   0.04880   0.05169   0.06256
 Alpha virt. eigenvalues --    0.07049   0.07952   0.08175   0.08766   0.09236

 Mulliken charges:
               1
     1  Mg   0.827595
     2  C   -0.048473
     3  C   -0.046840
     4  C   -0.091989
     5  C   -0.063242
     6  N   -0.302667
     7  C   -0.005211
     8  C   -0.035596
     9  C   -0.070938
    10  C    0.091642
    11  C    0.075695
    12  C    0.107130
    13  C    0.017474
    14  C    0.147887
    15  O   -0.234340
    16  O   -0.341162
    17  N   -0.349590
    18  C    0.088534
    19  C   -0.147609
    20  C   -0.062319
    21  C    0.174270
    22  C    0.139171
    23  C    0.008002
    24  O   -0.183269
    25  C    0.057876
    26  N   -0.277446
    27  C    0.005759
    28  C   -0.011321
    29  C   -0.027307
    30  C    0.040952
    31  C    0.067182
    32  C    0.008001
    33  C   -0.000633
    34  N   -0.367369
    35  C    0.105643
    36  C   -0.179390
    37  C    0.025541
    38  C    0.149736
    39  C    0.109311
    40  C    0.043385
    41  O   -0.175736
    42  C   -0.001643
    43  C    0.230774
    44  O   -0.224416
    45  O   -0.378476
    46  C    0.184742
    47  C    0.291118
    48  C   -0.134518
    49  C   -0.176763
    50  C    0.066326
    51  C    0.042400
    52  C    0.007644
    53  C    0.079603
    54  C   -0.161288
    55  C    0.052434
    56  C    0.087974
    57  C   -0.042115
    58  C    0.043926
    59  C   -0.149074
    60  C    0.066416
    61  C    0.038505
    62  C    0.020850
    63  C    0.057350
    64  C   -0.188793
    65  C    0.063040
    66  C    0.030605
    67  H   -0.038018
    68  H   -0.043708
    69  H   -0.035992
    70  H    0.023068
    71  H    0.015053
    72  H    0.021819
    73  H    0.024343
    74  H    0.021258
    75  H    0.012534
    76  H    0.026075
    77  H    0.032384
    78  H    0.036277
    79  H    0.034412
    80  H    0.002801
    81  H    0.040418
    82  H    0.030652
    83  H    0.037161
    84  H    0.023431
    85  H    0.014132
    86  H    0.023474
    87  H    0.012683
    88  H    0.014433
    89  H    0.013121
    90  H    0.012427
    91  H    0.004068
    92  H    0.016237
    93  H    0.017148
    94  H    0.027247
    95  H    0.030982
    96  H    0.027190
    97  H    0.018086
    98  H    0.034680
    99  H    0.049552
   100  H    0.039336
   101  H    0.043768
   102  H    0.023810
   103  H   -0.004030
   104  H   -0.001234
   105  H    0.050180
   106  H    0.035889
   107  H    0.022541
   108  H    0.007068
   109  H   -0.002614
   110  H   -0.006664
   111  H   -0.006934
   112  H   -0.005581
   113  H    0.004430
   114  H    0.005950
   115  H    0.004159
   116  H    0.014580
   117  H    0.001160
   118  H   -0.005027
   119  H    0.002728
   120  H   -0.002006
   121  H   -0.002857
   122  H   -0.011278
   123  H   -0.002326
   124  H   -0.006785
   125  H    0.022347
   126  H    0.000576
   127  H    0.006089
   128  H   -0.005554
   129  H   -0.012234
   130  H   -0.000253
   131  H   -0.002007
   132  H   -0.007384
   133  H   -0.019927
   134  H    0.001415
   135  H    0.017734
   136  H    0.025284
   137  H    0.005526
   138  H    0.002005
   139  H    0.002682
   140  H    0.011054
 Sum of Mulliken charges =  -0.00000

 Dipole moment (field-independent basis, Debye):
    X=             -0.7181    Y=              2.9793    Z=              1.9879  Tot=              3.6529
 Quadrupole moment (field-independent basis, Debye-Ang):
   XX=           -373.6241   YY=           -434.5826   ZZ=           -405.8295
   XY=             23.8472   XZ=             21.9311   YZ=             22.2272

 Normal termination of Gaussian 16 at Thu May  5 09:42:42 2022.
