 Gaussian 16, Revision A.03,
 Gaussian 16:  ES64L-G16RevA.03 25-Dec-2016

 ---------------------------------
 #p PBE1PBE/Def2SVP td=(nstates=5)
 ---------------------------------

 -----------------------------------------------------
 step_801_chromophore_23 TDDFT with PBE1PBE functional
 -----------------------------------------------------
 Symbolic Z-matrix:
 Charge =  0 Multiplicity = 1

                         Standard orientation:
 ---------------------------------------------------------------------
 Center     Atomic      Atomic             Coordinates (Angstroms)
 Number     Number       Type             X           Y           Z
 ---------------------------------------------------------------------
      1         12           0        4.658218    0.266955   -0.416352
      2          6           0        2.939761   -2.745374   -0.220563
      3          6           0        2.244393    1.445342   -2.499030
      4          6           0        5.858960    3.480416   -0.040014
      5          6           0        6.502601   -0.728983    2.396950
      6          7           0        2.803028   -0.547346   -1.236227
      7          6           0        2.294507   -1.816306   -1.034764
      8          6           0        1.022627   -1.976072   -1.778446
      9          6           0        0.976441   -0.704826   -2.754426
     10          6           0        2.100395    0.114649   -2.184014
     11          6           0        1.009080   -1.034004   -4.300692
     12          6           0       -0.244025   -2.150431   -0.859001
     13          6           0       -0.935702   -3.505697   -1.052814
     14          6           0       -2.241741   -3.564088   -1.885002
     15          8           0       -2.404256   -3.860659   -3.070180
     16          8           0       -3.318342   -3.408134   -1.002863
     17          7           0        4.287718    2.158708   -1.368441
     18          6           0        3.279214    2.405070   -2.255251
     19          6           0        3.333114    3.788024   -2.707527
     20          6           0        4.456582    4.396544   -1.953725
     21          6           0        4.914382    3.330472   -1.069568
     22          6           0        2.469306    4.429528   -3.714401
     23          6           0        4.792450    5.908871   -2.055900
     24          8           0        4.265612    6.627862   -2.849643
     25          6           0        5.805467    6.570888   -1.274551
     26          7           0        6.179081    1.203310    0.891704
     27          6           0        6.393188    2.545328    0.898022
     28          6           0        7.296024    2.915913    2.033717
     29          6           0        7.615105    1.568674    2.814056
     30          6           0        6.696342    0.592598    2.006777
     31          6           0        8.585738    3.682788    1.681641
     32          6           0        7.250615    1.607075    4.314828
     33          6           0        8.351362    1.017981    5.281768
     34          7           0        4.947181   -1.446681    0.677947
     35          6           0        5.716752   -1.733740    1.781590
     36          6           0        5.458334   -3.061445    2.209517
     37          6           0        4.458648   -3.551544    1.380518
     38          6           0        4.134193   -2.525163    0.512816
     39          6           0        6.137966   -3.890604    3.312033
     40          6           0        3.508443   -4.653348    1.227080
     41          8           0        3.436380   -5.712259    1.852461
     42          6           0        2.519601   -4.244748    0.077602
     43          6           0        2.792966   -5.235019   -1.070692
     44          8           0        3.715961   -5.163928   -1.882627
     45          8           0        1.820490   -6.248768   -1.202444
     46          6           0        1.808647   -7.197517   -2.369202
     47          6           0       -4.631483   -3.596512   -1.522224
     48          6           0       -5.551297   -2.896397   -0.614456
     49          6           0       -6.296445   -1.798976   -0.977348
     50          6           0       -6.119109   -0.989708   -2.320679
     51          6           0       -7.266550   -1.292301    0.071775
     52          6           0       -8.786208   -1.063354   -0.221769
     53          6           0       -9.879402   -1.897709    0.546019
     54          6           0      -10.642286   -0.955705    1.460777
     55          6           0      -11.989549   -1.706018    1.944184
     56          6           0       -9.753849   -0.443044    2.651108
     57          6           0       -9.642692    1.040392    2.610874
     58          6           0       -8.500841    1.686834    3.564177
     59          6           0       -7.139566    2.054354    2.813446
     60          6           0       -5.876512    1.643481    3.652267
     61          6           0       -6.979963    3.562836    2.480366
     62          6           0       -6.257417    3.720308    1.147769
     63          6           0       -7.170591    3.969405   -0.089028
     64          6           0       -6.780109    5.179735   -0.914980
     65          6           0       -7.543499    6.544204   -0.479787
     66          6           0       -7.067759    4.945648   -2.444585
     67          1           0        1.583950    1.851956   -3.267556
     68          1           0        6.151966    4.497364    0.227552
     69          1           0        6.937678   -1.042303    3.347980
     70          1           0        1.077986   -2.899631   -2.355564
     71          1           0        0.021382   -0.200386   -2.612651
     72          1           0        1.038043   -2.123456   -4.317986
     73          1           0        1.861010   -0.592766   -4.816947
     74          1           0        0.116292   -0.685466   -4.820612
     75          1           0       -0.917719   -1.339886   -1.136109
     76          1           0       -0.111290   -1.999532    0.212546
     77          1           0       -1.174169   -3.946283   -0.084382
     78          1           0       -0.471998   -4.358657   -1.547565
     79          1           0        1.794762    5.174157   -3.292537
     80          1           0        1.898192    3.652784   -4.222183
     81          1           0        3.085519    4.981240   -4.425703
     82          1           0        6.676479    5.934123   -1.425550
     83          1           0        5.577848    6.625987   -0.210849
     84          1           0        6.082290    7.605769   -1.475665
     85          1           0        6.659602    3.577342    2.622478
     86          1           0        8.641579    1.206549    2.748598
     87          1           0        8.469232    3.969211    0.636700
     88          1           0        9.510772    3.115053    1.780244
     89          1           0        8.773960    4.578302    2.273996
     90          1           0        6.328467    1.049217    4.474210
     91          1           0        7.003369    2.630113    4.598776
     92          1           0        9.177630    0.593222    4.711280
     93          1           0        7.911801    0.166840    5.800161
     94          1           0        8.619721    1.801230    5.990258
     95          1           0        7.083836   -4.245471    2.901167
     96          1           0        5.622375   -4.816147    3.567121
     97          1           0        6.247755   -3.348427    4.251276
     98          1           0        1.477370   -4.366713    0.373619
     99          1           0        2.745836   -7.729064   -2.535287
    100          1           0        1.533989   -6.674796   -3.285094
    101          1           0        1.022579   -7.898461   -2.087238
    102          1           0       -5.070044   -4.589501   -1.619330
    103          1           0       -4.634424   -3.124343   -2.504565
    104          1           0       -5.796533   -3.440966    0.297969
    105          1           0       -6.243870   -1.761295   -3.080476
    106          1           0       -5.095649   -0.625456   -2.235269
    107          1           0       -6.692580   -0.071380   -2.447946
    108          1           0       -6.864043   -0.304247    0.294479
    109          1           0       -7.179705   -1.876886    0.987509
    110          1           0       -8.895023   -1.231683   -1.293520
    111          1           0       -8.834158    0.014098   -0.062361
    112          1           0       -9.325162   -2.588843    1.182295
    113          1           0      -10.466649   -2.496116   -0.150042
    114          1           0      -10.979412   -0.093675    0.885334
    115          1           0      -11.975946   -2.734137    1.581453
    116          1           0      -12.882134   -1.206970    1.568106
    117          1           0      -11.999795   -1.733642    3.033962
    118          1           0       -8.772020   -0.912205    2.584671
    119          1           0      -10.165526   -0.741485    3.615930
    120          1           0      -10.538024    1.558336    2.954867
    121          1           0       -9.467023    1.396502    1.595218
    122          1           0       -8.407124    0.813427    4.208816
    123          1           0       -8.801967    2.593658    4.087795
    124          1           0       -7.318410    1.587338    1.845598
    125          1           0       -5.977196    1.861872    4.715616
    126          1           0       -5.033899    2.154645    3.186326
    127          1           0       -5.699287    0.578162    3.505899
    128          1           0       -6.495988    4.071388    3.313668
    129          1           0       -7.992453    3.960935    2.405994
    130          1           0       -5.681658    2.830755    0.888839
    131          1           0       -5.466810    4.446291    1.336923
    132          1           0       -8.218547    3.925969    0.208168
    133          1           0       -7.132154    3.150731   -0.808016
    134          1           0       -5.692664    5.246729   -0.869590
    135          1           0       -8.171660    6.871783   -1.308149
    136          1           0       -6.715377    7.176585   -0.159041
    137          1           0       -8.163482    6.208400    0.351427
    138          1           0       -7.662914    4.037366   -2.542176
    139          1           0       -6.120824    4.740269   -2.944520
    140          1           0       -7.532039    5.779931   -2.970070
 ---------------------------------------------------------------------

 SCF Done:  E(RPBE1PBE) =  -3005.34706929     A.U. after   15 cycles

 Excitation energies and oscillator strengths:

 Excited State   1:      Singlet-A      1.8989 eV  652.94 nm  f=0.3745  <S**2>=0.000
     245 -> 248       -0.18150
     246 -> 247        0.69128
     246 <- 247       -0.10474
 This state for optimization and/or second-order correction.
 Total Energy, E(TD-HF/TD-DFT) =  -3005.27728718
 Copying the excited state density for this state as the 1-particle RhoCI density.

 Excited State   2:      Singlet-A      2.2610 eV  548.36 nm  f=0.1226  <S**2>=0.000
     245 -> 247        0.65269
     246 -> 248        0.25966

 Excited State   3:      Singlet-A      2.8522 eV  434.69 nm  f=0.0054  <S**2>=0.000
     243 -> 247        0.68878

 Excited State   4:      Singlet-A      2.9982 eV  413.53 nm  f=0.0010  <S**2>=0.000
     242 -> 247        0.68111

 Excited State   5:      Singlet-A      3.1115 eV  398.47 nm  f=0.0002  <S**2>=0.000
     240 -> 247        0.60139
     240 -> 249       -0.17673
     241 -> 247        0.27362
     246 -> 248        0.10658

 The electronic state is 1-A.
 Alpha  occ. eigenvalues --  -46.92719 -19.24996 -19.24924 -19.20925 -19.19965
 Alpha  occ. eigenvalues --  -19.19594 -19.18527 -14.41900 -14.41735 -14.39262
 Alpha  occ. eigenvalues --  -14.39096 -10.37004 -10.36928 -10.32768 -10.31824
 Alpha  occ. eigenvalues --  -10.29344 -10.29151 -10.28892 -10.28703 -10.28680
 Alpha  occ. eigenvalues --  -10.28474 -10.27964 -10.27929 -10.27611 -10.27330
 Alpha  occ. eigenvalues --  -10.26620 -10.26500 -10.26491 -10.26236 -10.26206
 Alpha  occ. eigenvalues --  -10.26020 -10.25961 -10.25913 -10.25543 -10.25504
 Alpha  occ. eigenvalues --  -10.25396 -10.25268 -10.24962 -10.24635 -10.24510
 Alpha  occ. eigenvalues --  -10.24250 -10.24166 -10.23895 -10.23798 -10.23769
 Alpha  occ. eigenvalues --  -10.23616 -10.23504 -10.23433 -10.23403 -10.23055
 Alpha  occ. eigenvalues --  -10.22995 -10.22986 -10.22907 -10.22895 -10.22731
 Alpha  occ. eigenvalues --  -10.22628 -10.22582 -10.22575 -10.22542 -10.22524
 Alpha  occ. eigenvalues --  -10.22504 -10.22211 -10.22128 -10.22111 -10.22056
 Alpha  occ. eigenvalues --  -10.21802  -3.14684  -1.87545  -1.87030  -1.86922
 Alpha  occ. eigenvalues --   -1.10604  -1.08880  -1.06507  -1.04292  -1.02639
 Alpha  occ. eigenvalues --   -1.00851  -0.99298  -0.98454  -0.98138  -0.97276
 Alpha  occ. eigenvalues --   -0.86747  -0.84416  -0.84025  -0.83509  -0.83136
 Alpha  occ. eigenvalues --   -0.82860  -0.82820  -0.82150  -0.81057  -0.80791
 Alpha  occ. eigenvalues --   -0.80276  -0.79893  -0.78704  -0.78042  -0.77918
 Alpha  occ. eigenvalues --   -0.76754  -0.76470  -0.75365  -0.74959  -0.74629
 Alpha  occ. eigenvalues --   -0.73733  -0.72324  -0.72143  -0.71551  -0.70716
 Alpha  occ. eigenvalues --   -0.70151  -0.69785  -0.69119  -0.68719  -0.68496
 Alpha  occ. eigenvalues --   -0.67979  -0.67175  -0.66778  -0.65458  -0.63780
 Alpha  occ. eigenvalues --   -0.63273  -0.62586  -0.61812  -0.60719  -0.60503
 Alpha  occ. eigenvalues --   -0.60280  -0.59564  -0.59449  -0.59222  -0.58264
 Alpha  occ. eigenvalues --   -0.57686  -0.57513  -0.56770  -0.56462  -0.54782
 Alpha  occ. eigenvalues --   -0.54513  -0.54256  -0.53874  -0.53241  -0.52779
 Alpha  occ. eigenvalues --   -0.52066  -0.51217  -0.51078  -0.50629  -0.50445
 Alpha  occ. eigenvalues --   -0.49878  -0.49173  -0.48692  -0.48369  -0.48313
 Alpha  occ. eigenvalues --   -0.47989  -0.47444  -0.47433  -0.47397  -0.47247
 Alpha  occ. eigenvalues --   -0.47007  -0.46788  -0.46713  -0.46491  -0.46122
 Alpha  occ. eigenvalues --   -0.46015  -0.45915  -0.45489  -0.45354  -0.44998
 Alpha  occ. eigenvalues --   -0.44960  -0.44888  -0.44655  -0.44433  -0.44191
 Alpha  occ. eigenvalues --   -0.44128  -0.43916  -0.43653  -0.43546  -0.43349
 Alpha  occ. eigenvalues --   -0.43220  -0.43036  -0.42827  -0.42607  -0.42424
 Alpha  occ. eigenvalues --   -0.42164  -0.41864  -0.41596  -0.41488  -0.41419
 Alpha  occ. eigenvalues --   -0.41268  -0.41211  -0.41152  -0.40782  -0.40715
 Alpha  occ. eigenvalues --   -0.40614  -0.40290  -0.40138  -0.40106  -0.40083
 Alpha  occ. eigenvalues --   -0.40046  -0.39774  -0.39726  -0.39144  -0.38725
 Alpha  occ. eigenvalues --   -0.38651  -0.38588  -0.38267  -0.38135  -0.37995
 Alpha  occ. eigenvalues --   -0.37953  -0.37656  -0.37284  -0.37255  -0.36972
 Alpha  occ. eigenvalues --   -0.36808  -0.36578  -0.36407  -0.36293  -0.36164
 Alpha  occ. eigenvalues --   -0.35982  -0.35598  -0.35523  -0.35274  -0.35233
 Alpha  occ. eigenvalues --   -0.34470  -0.34238  -0.33932  -0.33869  -0.33669
 Alpha  occ. eigenvalues --   -0.33382  -0.33183  -0.33164  -0.32964  -0.32510
 Alpha  occ. eigenvalues --   -0.32330  -0.31944  -0.31290  -0.31025  -0.30920
 Alpha  occ. eigenvalues --   -0.30660  -0.30489  -0.29868  -0.29817  -0.29604
 Alpha  occ. eigenvalues --   -0.29217  -0.29150  -0.28543  -0.27224  -0.26068
 Alpha  occ. eigenvalues --   -0.25944  -0.25459  -0.24880  -0.24813  -0.21227
 Alpha  occ. eigenvalues --   -0.19196
 Alpha virt. eigenvalues --   -0.11438  -0.05302  -0.03925  -0.01986  -0.00688
 Alpha virt. eigenvalues --    0.00067   0.00437   0.00605   0.01062   0.02539
 Alpha virt. eigenvalues --    0.03607   0.03645   0.04041   0.05442   0.05745

 Mulliken charges:
               1
     1  Mg   0.971611
     2  C   -0.062087
     3  C   -0.037189
     4  C   -0.079965
     5  C   -0.058876
     6  N   -0.408792
     7  C    0.060530
     8  C   -0.105081
     9  C   -0.144766
    10  C    0.122989
    11  C    0.018804
    12  C    0.059416
    13  C   -0.061808
    14  C    0.214816
    15  O   -0.267328
    16  O   -0.369243
    17  N   -0.463777
    18  C    0.113878
    19  C   -0.176731
    20  C   -0.101611
    21  C    0.193124
    22  C    0.077307
    23  C    0.058150
    24  O   -0.219862
    25  C   -0.018759
    26  N   -0.382195
    27  C    0.048799
    28  C   -0.092205
    29  C   -0.102715
    30  C    0.080583
    31  C    0.010236
    32  C   -0.046968
    33  C   -0.073183
    34  N   -0.495513
    35  C    0.131998
    36  C   -0.202070
    37  C   -0.017550
    38  C    0.210314
    39  C    0.057810
    40  C    0.129602
    41  O   -0.219529
    42  C   -0.103266
    43  C    0.321350
    44  O   -0.257999
    45  O   -0.410912
    46  C    0.130768
    47  C    0.249192
    48  C   -0.148746
    49  C   -0.207819
    50  C   -0.001176
    51  C   -0.025969
    52  C   -0.053397
    53  C    0.019772
    54  C   -0.248580
    55  C   -0.005287
    56  C    0.030994
    57  C   -0.108855
    58  C   -0.004597
    59  C   -0.243712
    60  C    0.002102
    61  C   -0.016308
    62  C   -0.042591
    63  C    0.001891
    64  C   -0.276132
    65  C   -0.000506
    66  C   -0.030077
    67  H   -0.005320
    68  H   -0.009369
    69  H   -0.001040
    70  H    0.064004
    71  H    0.051104
    72  H    0.048746
    73  H    0.051428
    74  H    0.047639
    75  H    0.045287
    76  H    0.056754
    77  H    0.063899
    78  H    0.067911
    79  H    0.061443
    80  H    0.029861
    81  H    0.067410
    82  H    0.057555
    83  H    0.062417
    84  H    0.051031
    85  H    0.051189
    86  H    0.059443
    87  H    0.040646
    88  H    0.040861
    89  H    0.040285
    90  H    0.045137
    91  H    0.037202
    92  H    0.042729
    93  H    0.044094
    94  H    0.054907
    95  H    0.059978
    96  H    0.054910
    97  H    0.044623
    98  H    0.073827
    99  H    0.070587
   100  H    0.060588
   101  H    0.065160
   102  H    0.050809
   103  H    0.023633
   104  H    0.028462
   105  H    0.076482
   106  H    0.064194
   107  H    0.048900
   108  H    0.046451
   109  H    0.026533
   110  H    0.028335
   111  H    0.025797
   112  H    0.028806
   113  H    0.036099
   114  H    0.044203
   115  H    0.031282
   116  H    0.041816
   117  H    0.028466
   118  H    0.030846
   119  H    0.034600
   120  H    0.032227
   121  H    0.030238
   122  H    0.022783
   123  H    0.029141
   124  H    0.041551
   125  H    0.049182
   126  H    0.029501
   127  H    0.034820
   128  H    0.027119
   129  H    0.021325
   130  H    0.032680
   131  H    0.029554
   132  H    0.023974
   133  H    0.013704
   134  H    0.039022
   135  H    0.044000
   136  H    0.052384
   137  H    0.034216
   138  H    0.028912
   139  H    0.030885
   140  H    0.037832
 Sum of Mulliken charges =  -0.00000

 Dipole moment (field-independent basis, Debye):
    X=             -0.7109    Y=              2.6865    Z=              2.2221  Tot=              3.5582
 Quadrupole moment (field-independent basis, Debye-Ang):
   XX=           -369.0439   YY=           -431.9984   ZZ=           -402.0696
   XY=             22.9072   XZ=             24.0635   YZ=             22.3775

 Normal termination of Gaussian 16 at Thu May  5 09:59:44 2022.
