 Gaussian 16, Revision A.03,
 Gaussian 16:  ES64L-G16RevA.03 25-Dec-2016

 --------------------------------
 #p wB97XD/Def2SVP td=(nstates=5)
 --------------------------------

 ----------------------------------------------------
 step_801_chromophore_23 TDDFT with wB97XD functional
 ----------------------------------------------------
 Symbolic Z-matrix:
 Charge =  0 Multiplicity = 1

                         Standard orientation:
 ---------------------------------------------------------------------
 Center     Atomic      Atomic             Coordinates (Angstroms)
 Number     Number       Type             X           Y           Z
 ---------------------------------------------------------------------
      1         12           0        4.658218    0.266955   -0.416352
      2          6           0        2.939761   -2.745374   -0.220563
      3          6           0        2.244393    1.445342   -2.499030
      4          6           0        5.858960    3.480416   -0.040014
      5          6           0        6.502601   -0.728983    2.396950
      6          7           0        2.803028   -0.547346   -1.236227
      7          6           0        2.294507   -1.816306   -1.034764
      8          6           0        1.022627   -1.976072   -1.778446
      9          6           0        0.976441   -0.704826   -2.754426
     10          6           0        2.100395    0.114649   -2.184014
     11          6           0        1.009080   -1.034004   -4.300692
     12          6           0       -0.244025   -2.150431   -0.859001
     13          6           0       -0.935702   -3.505697   -1.052814
     14          6           0       -2.241741   -3.564088   -1.885002
     15          8           0       -2.404256   -3.860659   -3.070180
     16          8           0       -3.318342   -3.408134   -1.002863
     17          7           0        4.287718    2.158708   -1.368441
     18          6           0        3.279214    2.405070   -2.255251
     19          6           0        3.333114    3.788024   -2.707527
     20          6           0        4.456582    4.396544   -1.953725
     21          6           0        4.914382    3.330472   -1.069568
     22          6           0        2.469306    4.429528   -3.714401
     23          6           0        4.792450    5.908871   -2.055900
     24          8           0        4.265612    6.627862   -2.849643
     25          6           0        5.805467    6.570888   -1.274551
     26          7           0        6.179081    1.203310    0.891704
     27          6           0        6.393188    2.545328    0.898022
     28          6           0        7.296024    2.915913    2.033717
     29          6           0        7.615105    1.568674    2.814056
     30          6           0        6.696342    0.592598    2.006777
     31          6           0        8.585738    3.682788    1.681641
     32          6           0        7.250615    1.607075    4.314828
     33          6           0        8.351362    1.017981    5.281768
     34          7           0        4.947181   -1.446681    0.677947
     35          6           0        5.716752   -1.733740    1.781590
     36          6           0        5.458334   -3.061445    2.209517
     37          6           0        4.458648   -3.551544    1.380518
     38          6           0        4.134193   -2.525163    0.512816
     39          6           0        6.137966   -3.890604    3.312033
     40          6           0        3.508443   -4.653348    1.227080
     41          8           0        3.436380   -5.712259    1.852461
     42          6           0        2.519601   -4.244748    0.077602
     43          6           0        2.792966   -5.235019   -1.070692
     44          8           0        3.715961   -5.163928   -1.882627
     45          8           0        1.820490   -6.248768   -1.202444
     46          6           0        1.808647   -7.197517   -2.369202
     47          6           0       -4.631483   -3.596512   -1.522224
     48          6           0       -5.551297   -2.896397   -0.614456
     49          6           0       -6.296445   -1.798976   -0.977348
     50          6           0       -6.119109   -0.989708   -2.320679
     51          6           0       -7.266550   -1.292301    0.071775
     52          6           0       -8.786208   -1.063354   -0.221769
     53          6           0       -9.879402   -1.897709    0.546019
     54          6           0      -10.642286   -0.955705    1.460777
     55          6           0      -11.989549   -1.706018    1.944184
     56          6           0       -9.753849   -0.443044    2.651108
     57          6           0       -9.642692    1.040392    2.610874
     58          6           0       -8.500841    1.686834    3.564177
     59          6           0       -7.139566    2.054354    2.813446
     60          6           0       -5.876512    1.643481    3.652267
     61          6           0       -6.979963    3.562836    2.480366
     62          6           0       -6.257417    3.720308    1.147769
     63          6           0       -7.170591    3.969405   -0.089028
     64          6           0       -6.780109    5.179735   -0.914980
     65          6           0       -7.543499    6.544204   -0.479787
     66          6           0       -7.067759    4.945648   -2.444585
     67          1           0        1.583950    1.851956   -3.267556
     68          1           0        6.151966    4.497364    0.227552
     69          1           0        6.937678   -1.042303    3.347980
     70          1           0        1.077986   -2.899631   -2.355564
     71          1           0        0.021382   -0.200386   -2.612651
     72          1           0        1.038043   -2.123456   -4.317986
     73          1           0        1.861010   -0.592766   -4.816947
     74          1           0        0.116292   -0.685466   -4.820612
     75          1           0       -0.917719   -1.339886   -1.136109
     76          1           0       -0.111290   -1.999532    0.212546
     77          1           0       -1.174169   -3.946283   -0.084382
     78          1           0       -0.471998   -4.358657   -1.547565
     79          1           0        1.794762    5.174157   -3.292537
     80          1           0        1.898192    3.652784   -4.222183
     81          1           0        3.085519    4.981240   -4.425703
     82          1           0        6.676479    5.934123   -1.425550
     83          1           0        5.577848    6.625987   -0.210849
     84          1           0        6.082290    7.605769   -1.475665
     85          1           0        6.659602    3.577342    2.622478
     86          1           0        8.641579    1.206549    2.748598
     87          1           0        8.469232    3.969211    0.636700
     88          1           0        9.510772    3.115053    1.780244
     89          1           0        8.773960    4.578302    2.273996
     90          1           0        6.328467    1.049217    4.474210
     91          1           0        7.003369    2.630113    4.598776
     92          1           0        9.177630    0.593222    4.711280
     93          1           0        7.911801    0.166840    5.800161
     94          1           0        8.619721    1.801230    5.990258
     95          1           0        7.083836   -4.245471    2.901167
     96          1           0        5.622375   -4.816147    3.567121
     97          1           0        6.247755   -3.348427    4.251276
     98          1           0        1.477370   -4.366713    0.373619
     99          1           0        2.745836   -7.729064   -2.535287
    100          1           0        1.533989   -6.674796   -3.285094
    101          1           0        1.022579   -7.898461   -2.087238
    102          1           0       -5.070044   -4.589501   -1.619330
    103          1           0       -4.634424   -3.124343   -2.504565
    104          1           0       -5.796533   -3.440966    0.297969
    105          1           0       -6.243870   -1.761295   -3.080476
    106          1           0       -5.095649   -0.625456   -2.235269
    107          1           0       -6.692580   -0.071380   -2.447946
    108          1           0       -6.864043   -0.304247    0.294479
    109          1           0       -7.179705   -1.876886    0.987509
    110          1           0       -8.895023   -1.231683   -1.293520
    111          1           0       -8.834158    0.014098   -0.062361
    112          1           0       -9.325162   -2.588843    1.182295
    113          1           0      -10.466649   -2.496116   -0.150042
    114          1           0      -10.979412   -0.093675    0.885334
    115          1           0      -11.975946   -2.734137    1.581453
    116          1           0      -12.882134   -1.206970    1.568106
    117          1           0      -11.999795   -1.733642    3.033962
    118          1           0       -8.772020   -0.912205    2.584671
    119          1           0      -10.165526   -0.741485    3.615930
    120          1           0      -10.538024    1.558336    2.954867
    121          1           0       -9.467023    1.396502    1.595218
    122          1           0       -8.407124    0.813427    4.208816
    123          1           0       -8.801967    2.593658    4.087795
    124          1           0       -7.318410    1.587338    1.845598
    125          1           0       -5.977196    1.861872    4.715616
    126          1           0       -5.033899    2.154645    3.186326
    127          1           0       -5.699287    0.578162    3.505899
    128          1           0       -6.495988    4.071388    3.313668
    129          1           0       -7.992453    3.960935    2.405994
    130          1           0       -5.681658    2.830755    0.888839
    131          1           0       -5.466810    4.446291    1.336923
    132          1           0       -8.218547    3.925969    0.208168
    133          1           0       -7.132154    3.150731   -0.808016
    134          1           0       -5.692664    5.246729   -0.869590
    135          1           0       -8.171660    6.871783   -1.308149
    136          1           0       -6.715377    7.176585   -0.159041
    137          1           0       -8.163482    6.208400    0.351427
    138          1           0       -7.662914    4.037366   -2.542176
    139          1           0       -6.120824    4.740269   -2.944520
    140          1           0       -7.532039    5.779931   -2.970070
 ---------------------------------------------------------------------

 SCF Done:  E(RwB97XD) =  -3007.85785350     A.U. after   19 cycles

 Excitation energies and oscillator strengths:

 Excited State   1:      Singlet-A      1.6933 eV  732.19 nm  f=0.3854  <S**2>=0.000
     245 -> 248       -0.18962
     246 -> 247        0.68311
     245 <- 248       -0.11782
 This state for optimization and/or second-order correction.
 Total Energy, E(TD-HF/TD-DFT) =  -3007.79562496
 Copying the excited state density for this state as the 1-particle RhoCI density.

 Excited State   2:      Singlet-A      2.1916 eV  565.73 nm  f=0.1270  <S**2>=0.000
     245 -> 247        0.64147
     246 -> 248        0.28256

 Excited State   3:      Singlet-A      3.2128 eV  385.90 nm  f=0.0023  <S**2>=0.000
     243 -> 247        0.67698

 Excited State   4:      Singlet-A      3.5577 eV  348.49 nm  f=0.0279  <S**2>=0.000
     240 -> 247        0.13570
     241 -> 247       -0.18582
     241 -> 249        0.11204
     241 -> 250        0.11400
     242 -> 247        0.57872
     246 -> 248        0.21725

 Excited State   5:      Singlet-A      3.5928 eV  345.09 nm  f=0.0466  <S**2>=0.000
     241 -> 247        0.52918
     241 -> 249       -0.21090
     241 -> 250       -0.22708
     242 -> 247        0.15867
     246 -> 248        0.20495

 The electronic state is 1-A.
 Alpha  occ. eigenvalues --  -46.95669 -19.29525 -19.29439 -19.25577 -19.24641
 Alpha  occ. eigenvalues --  -19.24259 -19.23504 -14.47006 -14.46841 -14.44371
 Alpha  occ. eigenvalues --  -14.43918 -10.43785 -10.43683 -10.39492 -10.38812
 Alpha  occ. eigenvalues --  -10.35825 -10.35645 -10.35236 -10.35146 -10.35077
 Alpha  occ. eigenvalues --  -10.34776 -10.34631 -10.34420 -10.33965 -10.33354
 Alpha  occ. eigenvalues --  -10.33265 -10.32765 -10.32713 -10.32524 -10.32425
 Alpha  occ. eigenvalues --  -10.32338 -10.32178 -10.32125 -10.31910 -10.31899
 Alpha  occ. eigenvalues --  -10.31863 -10.31548 -10.31481 -10.31016 -10.30963
 Alpha  occ. eigenvalues --  -10.30684 -10.30414 -10.30319 -10.30208 -10.30052
 Alpha  occ. eigenvalues --  -10.29876 -10.29841 -10.29722 -10.29701 -10.29686
 Alpha  occ. eigenvalues --  -10.29569 -10.29356 -10.29346 -10.29265 -10.29104
 Alpha  occ. eigenvalues --  -10.28945 -10.28935 -10.28900 -10.28869 -10.28867
 Alpha  occ. eigenvalues --  -10.28710 -10.28627 -10.28568 -10.28471 -10.28456
 Alpha  occ. eigenvalues --  -10.28209  -3.21510  -1.95118  -1.94601  -1.94492
 Alpha  occ. eigenvalues --   -1.17961  -1.16251  -1.14124  -1.11643  -1.09964
 Alpha  occ. eigenvalues --   -1.08183  -1.06624  -1.05794  -1.05592  -1.04754
 Alpha  occ. eigenvalues --   -0.94276  -0.92079  -0.91663  -0.91169  -0.90806
 Alpha  occ. eigenvalues --   -0.90476  -0.90460  -0.89747  -0.88722  -0.88436
 Alpha  occ. eigenvalues --   -0.88008  -0.87526  -0.86388  -0.85725  -0.85482
 Alpha  occ. eigenvalues --   -0.84564  -0.84129  -0.82983  -0.82576  -0.82274
 Alpha  occ. eigenvalues --   -0.81395  -0.79918  -0.79823  -0.79218  -0.78313
 Alpha  occ. eigenvalues --   -0.77820  -0.77417  -0.76833  -0.76411  -0.76157
 Alpha  occ. eigenvalues --   -0.75534  -0.74729  -0.74337  -0.73076  -0.71327
 Alpha  occ. eigenvalues --   -0.70780  -0.70226  -0.69421  -0.68314  -0.67990
 Alpha  occ. eigenvalues --   -0.67852  -0.67127  -0.66954  -0.66654  -0.65919
 Alpha  occ. eigenvalues --   -0.65225  -0.65127  -0.64428  -0.63830  -0.62260
 Alpha  occ. eigenvalues --   -0.61986  -0.61769  -0.61272  -0.60526  -0.60206
 Alpha  occ. eigenvalues --   -0.59582  -0.58709  -0.58497  -0.58109  -0.57799
 Alpha  occ. eigenvalues --   -0.57221  -0.56587  -0.56042  -0.55795  -0.55738
 Alpha  occ. eigenvalues --   -0.55253  -0.54971  -0.54847  -0.54780  -0.54735
 Alpha  occ. eigenvalues --   -0.54384  -0.54143  -0.54107  -0.53819  -0.53504
 Alpha  occ. eigenvalues --   -0.53379  -0.53255  -0.52839  -0.52670  -0.52396
 Alpha  occ. eigenvalues --   -0.52289  -0.52195  -0.52053  -0.51812  -0.51616
 Alpha  occ. eigenvalues --   -0.51468  -0.51212  -0.50921  -0.50832  -0.50590
 Alpha  occ. eigenvalues --   -0.50510  -0.50330  -0.50089  -0.49860  -0.49726
 Alpha  occ. eigenvalues --   -0.49470  -0.49113  -0.48820  -0.48713  -0.48665
 Alpha  occ. eigenvalues --   -0.48573  -0.48514  -0.48343  -0.48038  -0.47986
 Alpha  occ. eigenvalues --   -0.47815  -0.47455  -0.47353  -0.47325  -0.47277
 Alpha  occ. eigenvalues --   -0.47182  -0.46896  -0.46881  -0.46248  -0.45880
 Alpha  occ. eigenvalues --   -0.45850  -0.45773  -0.45389  -0.45307  -0.45225
 Alpha  occ. eigenvalues --   -0.45087  -0.44680  -0.44385  -0.44371  -0.44130
 Alpha  occ. eigenvalues --   -0.44014  -0.43600  -0.43479  -0.43397  -0.43175
 Alpha  occ. eigenvalues --   -0.43004  -0.42664  -0.42609  -0.42328  -0.42204
 Alpha  occ. eigenvalues --   -0.41400  -0.41351  -0.40951  -0.40930  -0.40605
 Alpha  occ. eigenvalues --   -0.40440  -0.40199  -0.40127  -0.40041  -0.39546
 Alpha  occ. eigenvalues --   -0.39422  -0.38849  -0.38284  -0.38074  -0.37893
 Alpha  occ. eigenvalues --   -0.37634  -0.37428  -0.36775  -0.36635  -0.36478
 Alpha  occ. eigenvalues --   -0.36211  -0.35844  -0.35634  -0.33823  -0.32994
 Alpha  occ. eigenvalues --   -0.32767  -0.32318  -0.31737  -0.31501  -0.26218
 Alpha  occ. eigenvalues --   -0.23404
 Alpha virt. eigenvalues --   -0.07362   0.00083   0.02450   0.04497   0.05997
 Alpha virt. eigenvalues --    0.06444   0.06932   0.07240   0.07679   0.08849
 Alpha virt. eigenvalues --    0.10234   0.10291   0.10899   0.12224   0.12486

 Mulliken charges:
               1
     1  Mg   0.964367
     2  C   -0.063275
     3  C   -0.053142
     4  C   -0.099548
     5  C   -0.072617
     6  N   -0.374440
     7  C    0.030498
     8  C   -0.075322
     9  C   -0.119993
    10  C    0.111149
    11  C    0.029101
    12  C    0.066737
    13  C   -0.043481
    14  C    0.204860
    15  O   -0.265153
    16  O   -0.369123
    17  N   -0.431669
    18  C    0.107315
    19  C   -0.164885
    20  C   -0.101347
    21  C    0.196995
    22  C    0.087404
    23  C    0.057394
    24  O   -0.214510
    25  C   -0.007130
    26  N   -0.348948
    27  C    0.037827
    28  C   -0.067792
    29  C   -0.075264
    30  C    0.067511
    31  C    0.022216
    32  C   -0.035468
    33  C   -0.055959
    34  N   -0.458337
    35  C    0.120094
    36  C   -0.198101
    37  C   -0.015332
    38  C    0.187435
    39  C    0.067791
    40  C    0.112920
    41  O   -0.210817
    42  C   -0.064843
    43  C    0.296035
    44  O   -0.252805
    45  O   -0.409566
    46  C    0.144967
    47  C    0.265556
    48  C   -0.156679
    49  C   -0.199275
    50  C    0.012435
    51  C    0.000356
    52  C   -0.035017
    53  C    0.037145
    54  C   -0.218590
    55  C    0.007901
    56  C    0.047191
    57  C   -0.083424
    58  C    0.005871
    59  C   -0.195318
    60  C    0.016422
    61  C   -0.000969
    62  C   -0.026101
    63  C    0.018909
    64  C   -0.250831
    65  C    0.014620
    66  C   -0.015481
    67  H   -0.013938
    68  H   -0.022388
    69  H   -0.009420
    70  H    0.046050
    71  H    0.041226
    72  H    0.043478
    73  H    0.045820
    74  H    0.043189
    75  H    0.036865
    76  H    0.051614
    77  H    0.059663
    78  H    0.059670
    79  H    0.059303
    80  H    0.025488
    81  H    0.064354
    82  H    0.050157
    83  H    0.058814
    84  H    0.051159
    85  H    0.040561
    86  H    0.046592
    87  H    0.031877
    88  H    0.036376
    89  H    0.035745
    90  H    0.036086
    91  H    0.028715
    92  H    0.036133
    93  H    0.038150
    94  H    0.049764
    95  H    0.053829
    96  H    0.050812
    97  H    0.038876
    98  H    0.064656
    99  H    0.067207
   100  H    0.056532
   101  H    0.061897
   102  H    0.046606
   103  H    0.015205
   104  H    0.025893
   105  H    0.070640
   106  H    0.057869
   107  H    0.045370
   108  H    0.033180
   109  H    0.015849
   110  H    0.019572
   111  H    0.012240
   112  H    0.017189
   113  H    0.030106
   114  H    0.030966
   115  H    0.024923
   116  H    0.036751
   117  H    0.021682
   118  H    0.014832
   119  H    0.026418
   120  H    0.024615
   121  H    0.014234
   122  H    0.012037
   123  H    0.022263
   124  H    0.007020
   125  H    0.043942
   126  H    0.021713
   127  H    0.028577
   128  H    0.019569
   129  H    0.009206
   130  H    0.022274
   131  H    0.022226
   132  H    0.013824
   133  H    0.002874
   134  H    0.027644
   135  H    0.038013
   136  H    0.046992
   137  H    0.026133
   138  H    0.021536
   139  H    0.024910
   140  H    0.031732
 Sum of Mulliken charges =  -0.00000

 Dipole moment (field-independent basis, Debye):
    X=             -0.7569    Y=              3.1432    Z=              1.9455  Tot=              3.7733
 Quadrupole moment (field-independent basis, Debye-Ang):
   XX=           -369.5646   YY=           -430.3724   ZZ=           -401.8219
   XY=             25.0920   XZ=             22.4637   YZ=             21.9305

 Normal termination of Gaussian 16 at Thu May  5 10:29:00 2022.
