 Gaussian 16, Revision A.03,
 Gaussian 16:  ES64L-G16RevA.03 25-Dec-2016

 --------------------
 #p ZINDO=(nstates=5)
 --------------------

 -----------------------------
 step_801_chromophore_23 ZINDO
 -----------------------------
 Symbolic Z-matrix:
 Charge =  0 Multiplicity = 1

                         Standard orientation:
 ---------------------------------------------------------------------
 Center     Atomic      Atomic             Coordinates (Angstroms)
 Number     Number       Type             X           Y           Z
 ---------------------------------------------------------------------
      1         12           0        4.658218    0.266955   -0.416352
      2          6           0        2.939761   -2.745374   -0.220563
      3          6           0        2.244393    1.445342   -2.499030
      4          6           0        5.858960    3.480416   -0.040014
      5          6           0        6.502601   -0.728983    2.396950
      6          7           0        2.803028   -0.547346   -1.236227
      7          6           0        2.294507   -1.816306   -1.034764
      8          6           0        1.022627   -1.976072   -1.778446
      9          6           0        0.976441   -0.704826   -2.754426
     10          6           0        2.100395    0.114649   -2.184014
     11          6           0        1.009080   -1.034004   -4.300692
     12          6           0       -0.244025   -2.150431   -0.859001
     13          6           0       -0.935702   -3.505697   -1.052814
     14          6           0       -2.241741   -3.564088   -1.885002
     15          8           0       -2.404256   -3.860659   -3.070180
     16          8           0       -3.318342   -3.408134   -1.002863
     17          7           0        4.287718    2.158708   -1.368441
     18          6           0        3.279214    2.405070   -2.255251
     19          6           0        3.333114    3.788024   -2.707527
     20          6           0        4.456582    4.396544   -1.953725
     21          6           0        4.914382    3.330472   -1.069568
     22          6           0        2.469306    4.429528   -3.714401
     23          6           0        4.792450    5.908871   -2.055900
     24          8           0        4.265612    6.627862   -2.849643
     25          6           0        5.805467    6.570888   -1.274551
     26          7           0        6.179081    1.203310    0.891704
     27          6           0        6.393188    2.545328    0.898022
     28          6           0        7.296024    2.915913    2.033717
     29          6           0        7.615105    1.568674    2.814056
     30          6           0        6.696342    0.592598    2.006777
     31          6           0        8.585738    3.682788    1.681641
     32          6           0        7.250615    1.607075    4.314828
     33          6           0        8.351362    1.017981    5.281768
     34          7           0        4.947181   -1.446681    0.677947
     35          6           0        5.716752   -1.733740    1.781590
     36          6           0        5.458334   -3.061445    2.209517
     37          6           0        4.458648   -3.551544    1.380518
     38          6           0        4.134193   -2.525163    0.512816
     39          6           0        6.137966   -3.890604    3.312033
     40          6           0        3.508443   -4.653348    1.227080
     41          8           0        3.436380   -5.712259    1.852461
     42          6           0        2.519601   -4.244748    0.077602
     43          6           0        2.792966   -5.235019   -1.070692
     44          8           0        3.715961   -5.163928   -1.882627
     45          8           0        1.820490   -6.248768   -1.202444
     46          6           0        1.808647   -7.197517   -2.369202
     47          6           0       -4.631483   -3.596512   -1.522224
     48          6           0       -5.551297   -2.896397   -0.614456
     49          6           0       -6.296445   -1.798976   -0.977348
     50          6           0       -6.119109   -0.989708   -2.320679
     51          6           0       -7.266550   -1.292301    0.071775
     52          6           0       -8.786208   -1.063354   -0.221769
     53          6           0       -9.879402   -1.897709    0.546019
     54          6           0      -10.642286   -0.955705    1.460777
     55          6           0      -11.989549   -1.706018    1.944184
     56          6           0       -9.753849   -0.443044    2.651108
     57          6           0       -9.642692    1.040392    2.610874
     58          6           0       -8.500841    1.686834    3.564177
     59          6           0       -7.139566    2.054354    2.813446
     60          6           0       -5.876512    1.643481    3.652267
     61          6           0       -6.979963    3.562836    2.480366
     62          6           0       -6.257417    3.720308    1.147769
     63          6           0       -7.170591    3.969405   -0.089028
     64          6           0       -6.780109    5.179735   -0.914980
     65          6           0       -7.543499    6.544204   -0.479787
     66          6           0       -7.067759    4.945648   -2.444585
     67          1           0        1.583950    1.851956   -3.267556
     68          1           0        6.151966    4.497364    0.227552
     69          1           0        6.937678   -1.042303    3.347980
     70          1           0        1.077986   -2.899631   -2.355564
     71          1           0        0.021382   -0.200386   -2.612651
     72          1           0        1.038043   -2.123456   -4.317986
     73          1           0        1.861010   -0.592766   -4.816947
     74          1           0        0.116292   -0.685466   -4.820612
     75          1           0       -0.917719   -1.339886   -1.136109
     76          1           0       -0.111290   -1.999532    0.212546
     77          1           0       -1.174169   -3.946283   -0.084382
     78          1           0       -0.471998   -4.358657   -1.547565
     79          1           0        1.794762    5.174157   -3.292537
     80          1           0        1.898192    3.652784   -4.222183
     81          1           0        3.085519    4.981240   -4.425703
     82          1           0        6.676479    5.934123   -1.425550
     83          1           0        5.577848    6.625987   -0.210849
     84          1           0        6.082290    7.605769   -1.475665
     85          1           0        6.659602    3.577342    2.622478
     86          1           0        8.641579    1.206549    2.748598
     87          1           0        8.469232    3.969211    0.636700
     88          1           0        9.510772    3.115053    1.780244
     89          1           0        8.773960    4.578302    2.273996
     90          1           0        6.328467    1.049217    4.474210
     91          1           0        7.003369    2.630113    4.598776
     92          1           0        9.177630    0.593222    4.711280
     93          1           0        7.911801    0.166840    5.800161
     94          1           0        8.619721    1.801230    5.990258
     95          1           0        7.083836   -4.245471    2.901167
     96          1           0        5.622375   -4.816147    3.567121
     97          1           0        6.247755   -3.348427    4.251276
     98          1           0        1.477370   -4.366713    0.373619
     99          1           0        2.745836   -7.729064   -2.535287
    100          1           0        1.533989   -6.674796   -3.285094
    101          1           0        1.022579   -7.898461   -2.087238
    102          1           0       -5.070044   -4.589501   -1.619330
    103          1           0       -4.634424   -3.124343   -2.504565
    104          1           0       -5.796533   -3.440966    0.297969
    105          1           0       -6.243870   -1.761295   -3.080476
    106          1           0       -5.095649   -0.625456   -2.235269
    107          1           0       -6.692580   -0.071380   -2.447946
    108          1           0       -6.864043   -0.304247    0.294479
    109          1           0       -7.179705   -1.876886    0.987509
    110          1           0       -8.895023   -1.231683   -1.293520
    111          1           0       -8.834158    0.014098   -0.062361
    112          1           0       -9.325162   -2.588843    1.182295
    113          1           0      -10.466649   -2.496116   -0.150042
    114          1           0      -10.979412   -0.093675    0.885334
    115          1           0      -11.975946   -2.734137    1.581453
    116          1           0      -12.882134   -1.206970    1.568106
    117          1           0      -11.999795   -1.733642    3.033962
    118          1           0       -8.772020   -0.912205    2.584671
    119          1           0      -10.165526   -0.741485    3.615930
    120          1           0      -10.538024    1.558336    2.954867
    121          1           0       -9.467023    1.396502    1.595218
    122          1           0       -8.407124    0.813427    4.208816
    123          1           0       -8.801967    2.593658    4.087795
    124          1           0       -7.318410    1.587338    1.845598
    125          1           0       -5.977196    1.861872    4.715616
    126          1           0       -5.033899    2.154645    3.186326
    127          1           0       -5.699287    0.578162    3.505899
    128          1           0       -6.495988    4.071388    3.313668
    129          1           0       -7.992453    3.960935    2.405994
    130          1           0       -5.681658    2.830755    0.888839
    131          1           0       -5.466810    4.446291    1.336923
    132          1           0       -8.218547    3.925969    0.208168
    133          1           0       -7.132154    3.150731   -0.808016
    134          1           0       -5.692664    5.246729   -0.869590
    135          1           0       -8.171660    6.871783   -1.308149
    136          1           0       -6.715377    7.176585   -0.159041
    137          1           0       -8.163482    6.208400    0.351427
    138          1           0       -7.662914    4.037366   -2.542176
    139          1           0       -6.120824    4.740269   -2.944520
    140          1           0       -7.532039    5.779931   -2.970070
 ---------------------------------------------------------------------

 SCF Done:  E(RZINDO/S) =  -474.039772207     A.U. after   19 cycles

 Excitation energies and oscillator strengths:

 Excited State   1:      Singlet-A      1.2812 eV  967.72 nm  f=0.6010  <S**2>=0.000
     175 ->178         0.18350
     176 ->177         0.66639
 This state for optimization and/or second-order correction.
 Total Energy, E(CIS/TDA) =  -473.992689241
 Copying the excited state density for this state as the 1-particle RhoCI density.

 Excited State   2:      Singlet-A      1.9402 eV  639.03 nm  f=0.0543  <S**2>=0.000
     175 ->177         0.55091
     176 ->178        -0.41643

 Excited State   3:      Singlet-A      2.8843 eV  429.86 nm  f=0.0006  <S**2>=0.000
     169 ->177         0.28215
     169 ->178         0.12604
     169 ->179        -0.28155
     169 ->180         0.32656
     169 ->184         0.14519
     169 ->186         0.25244
     169 ->187        -0.12725
     169 ->194         0.12768
     171 ->177        -0.16246
     173 ->177         0.10217

 Excited State   4:      Singlet-A      3.0287 eV  409.36 nm  f=0.6907  <S**2>=0.000
     171 ->177        -0.17930
     175 ->177         0.30490
     176 ->178         0.43266
     176 ->179         0.32707

 Excited State   5:      Singlet-A      3.0661 eV  404.38 nm  f=0.0294  <S**2>=0.000
     168 ->177         0.17609
     168 ->179         0.24918
     168 ->180         0.16957
     168 ->184         0.10033
     168 ->186        -0.11386
     170 ->177         0.18742
     170 ->179         0.30428
     170 ->180         0.17099
     170 ->184         0.10705
     170 ->186        -0.13014
     170 ->187        -0.10131
     171 ->177         0.10324
     176 ->179         0.21458

 The electronic state is 1-A.
 Alpha  occ. eigenvalues --   -1.84650  -1.80646  -1.79685  -1.73167  -1.71294
 Alpha  occ. eigenvalues --   -1.67516  -1.65380  -1.63321  -1.60554  -1.56792
 Alpha  occ. eigenvalues --   -1.53062  -1.51280  -1.47456  -1.46950  -1.46272
 Alpha  occ. eigenvalues --   -1.44169  -1.42270  -1.40094  -1.38717  -1.38083
 Alpha  occ. eigenvalues --   -1.35607  -1.33131  -1.31713  -1.30769  -1.28216
 Alpha  occ. eigenvalues --   -1.27265  -1.27129  -1.23124  -1.20545  -1.18126
 Alpha  occ. eigenvalues --   -1.16327  -1.15283  -1.15053  -1.14238  -1.12942
 Alpha  occ. eigenvalues --   -1.12348  -1.10387  -1.10281  -1.05887  -1.04552
 Alpha  occ. eigenvalues --   -1.03146  -1.02118  -0.99801  -0.98550  -0.97375
 Alpha  occ. eigenvalues --   -0.95877  -0.95367  -0.94841  -0.92980  -0.91393
 Alpha  occ. eigenvalues --   -0.91195  -0.89767  -0.89326  -0.87957  -0.86605
 Alpha  occ. eigenvalues --   -0.86347  -0.83804  -0.83384  -0.82355  -0.80053
 Alpha  occ. eigenvalues --   -0.79760  -0.79236  -0.77560  -0.76514  -0.76300
 Alpha  occ. eigenvalues --   -0.75460  -0.74969  -0.74704  -0.74226  -0.73983
 Alpha  occ. eigenvalues --   -0.72925  -0.72109  -0.71280  -0.71021  -0.70727
 Alpha  occ. eigenvalues --   -0.70437  -0.69998  -0.68884  -0.67970  -0.67759
 Alpha  occ. eigenvalues --   -0.66893  -0.66229  -0.65950  -0.65735  -0.65423
 Alpha  occ. eigenvalues --   -0.65140  -0.64684  -0.64140  -0.63651  -0.63348
 Alpha  occ. eigenvalues --   -0.63086  -0.62761  -0.62332  -0.62211  -0.62013
 Alpha  occ. eigenvalues --   -0.61470  -0.61130  -0.60859  -0.60769  -0.60418
 Alpha  occ. eigenvalues --   -0.59934  -0.59571  -0.59389  -0.59069  -0.58866
 Alpha  occ. eigenvalues --   -0.58084  -0.57982  -0.57766  -0.57647  -0.57012
 Alpha  occ. eigenvalues --   -0.56424  -0.55744  -0.55532  -0.55291  -0.54972
 Alpha  occ. eigenvalues --   -0.54853  -0.54306  -0.53978  -0.53631  -0.53328
 Alpha  occ. eigenvalues --   -0.53036  -0.52508  -0.52140  -0.52021  -0.51814
 Alpha  occ. eigenvalues --   -0.51347  -0.51114  -0.50859  -0.50656  -0.50228
 Alpha  occ. eigenvalues --   -0.49780  -0.49521  -0.49414  -0.49200  -0.49005
 Alpha  occ. eigenvalues --   -0.48650  -0.48416  -0.48026  -0.47764  -0.47481
 Alpha  occ. eigenvalues --   -0.47153  -0.46991  -0.46885  -0.46471  -0.46426
 Alpha  occ. eigenvalues --   -0.46316  -0.46247  -0.46039  -0.45723  -0.45358
 Alpha  occ. eigenvalues --   -0.45266  -0.45011  -0.44760  -0.44636  -0.44508
 Alpha  occ. eigenvalues --   -0.44096  -0.43559  -0.42995  -0.42758  -0.42599
 Alpha  occ. eigenvalues --   -0.42300  -0.41510  -0.41429  -0.39468  -0.39201
 Alpha  occ. eigenvalues --   -0.38510  -0.37475  -0.35228  -0.35150  -0.34964
 Alpha  occ. eigenvalues --   -0.33281  -0.32951  -0.32400  -0.31775  -0.27047
 Alpha  occ. eigenvalues --   -0.22184
 Alpha virt. eigenvalues --   -0.08866  -0.02249  -0.00581   0.01118   0.01401
 Alpha virt. eigenvalues --    0.02022   0.02655   0.03025   0.04541   0.04587
 Alpha virt. eigenvalues --    0.05918   0.06263   0.06620   0.07239   0.07540

 Mulliken charges:
               1
     1  Mg   0.428471
     2  C   -0.045580
     3  C   -0.085794
     4  C   -0.095767
     5  C   -0.057321
     6  N   -0.287546
     7  C    0.113683
     8  C    0.004950
     9  C   -0.001196
    10  C    0.169488
    11  C   -0.050447
    12  C   -0.011472
    13  C    0.001776
    14  C    0.457503
    15  O   -0.511807
    16  O   -0.272457
    17  N   -0.330261
    18  C    0.131826
    19  C    0.047342
    20  C   -0.072382
    21  C    0.155551
    22  C   -0.028464
    23  C    0.340625
    24  O   -0.515824
    25  C   -0.018069
    26  N   -0.272202
    27  C    0.160852
    28  C    0.012819
    29  C   -0.004946
    30  C    0.091920
    31  C   -0.052410
    32  C   -0.036670
    33  C   -0.062310
    34  N   -0.322545
    35  C    0.085156
    36  C    0.018384
    37  C   -0.050432
    38  C    0.114052
    39  C   -0.044477
    40  C    0.334861
    41  O   -0.524710
    42  C    0.056391
    43  C    0.480549
    44  O   -0.514732
    45  O   -0.291507
    46  C    0.082202
    47  C    0.105413
    48  C   -0.100205
    49  C   -0.011379
    50  C   -0.046158
    51  C   -0.027974
    52  C   -0.045112
    53  C   -0.024580
    54  C   -0.015089
    55  C   -0.070383
    56  C   -0.020306
    57  C   -0.037117
    58  C   -0.063345
    59  C   -0.027073
    60  C   -0.053008
    61  C   -0.031819
    62  C   -0.033409
    63  C   -0.027869
    64  C   -0.023298
    65  C   -0.068006
    66  C   -0.066457
    67  H    0.016738
    68  H    0.022531
    69  H    0.024437
    70  H    0.035633
    71  H    0.030507
    72  H    0.029586
    73  H    0.027804
    74  H    0.025009
    75  H    0.025020
    76  H    0.032238
    77  H    0.032189
    78  H    0.049197
    79  H    0.043724
    80  H    0.020619
    81  H    0.044074
    82  H    0.029495
    83  H    0.031101
    84  H    0.039836
    85  H    0.032817
    86  H    0.041318
    87  H    0.018685
    88  H    0.024056
    89  H    0.019964
    90  H    0.022046
    91  H    0.015675
    92  H    0.025851
    93  H    0.019109
    94  H    0.026502
    95  H    0.030837
    96  H    0.031200
    97  H    0.023885
    98  H    0.054078
    99  H    0.053230
   100  H    0.042428
   101  H    0.034504
   102  H    0.050270
   103  H    0.040993
   104  H    0.032877
   105  H    0.039740
   106  H    0.027501
   107  H    0.031211
   108  H    0.017431
   109  H    0.019379
   110  H    0.012682
   111  H    0.022342
   112  H    0.018377
   113  H    0.026295
   114  H    0.021867
   115  H    0.019490
   116  H    0.021560
   117  H    0.019294
   118  H    0.022383
   119  H    0.021064
   120  H    0.014698
   121  H    0.017582
   122  H    0.019492
   123  H    0.025500
   124  H    0.028602
   125  H    0.031148
   126  H    0.017376
   127  H    0.011944
   128  H    0.019786
   129  H    0.012146
   130  H    0.013465
   131  H    0.016032
   132  H    0.020779
   133  H    0.011304
   134  H    0.022809
   135  H    0.034520
   136  H    0.029421
   137  H    0.021992
   138  H    0.017940
   139  H    0.010451
   140  H    0.022439
 Sum of Mulliken charges =  -0.00000

 Dipole moment (field-independent basis, Debye):
    X=             -1.6855    Y=              5.7314    Z=              2.8978  Tot=              6.6398
 N-N= 4.439573730184D+03 E-N= 0.000000000000D+00  KE=-9.552914752719D+03
 Leave Link  601 at Thu May  5 10:41:34 2022, MaxMem=  6710886400 cpu:               0.8 elap:               0.0
 (Enter /sw/apps/gaussian-16.0/g16/l9999.exe)
 1\1\GINC-BP1-COMPUTE067\SP\RZINDO CIS\STO-3G\C55H74Mg1N4O6\OF15641\05-
 May-2022\0\\#p ZINDO=(nstates=5)\\step_801_chromophore_23 ZINDO\\0,1\M
 g,0,-10.524,40.809,42.556\C,0,-9.196,37.789,41.469\C,0,-8.261,42.44,40
 .614\C,0,-12.26,43.764,42.961\C,0,-13.314,39.034,43.728\N,0,-8.939,40.
 184,41.187\C,0,-8.555,38.888,40.9\C,0,-7.432,38.895,39.933\C,0,-6.947,
 40.423,39.906\C,0,-8.076,41.078,40.652\C,0,-5.473,40.677,40.419\C,0,-7
 .791,38.29,38.524\C,0,-6.968,37.04,38.188\C,0,-5.787,37.17,37.193\O,0,

 Normal termination of Gaussian 16 at Thu May  5 10:41:34 2022.
