 Gaussian 16, Revision A.03,
 Gaussian 16:  ES64L-G16RevA.03 25-Dec-2016

 ------------------------------
 #p blyp/Def2SVP td=(nstates=5)
 ------------------------------

 -------------------------------------------------
 step_801_chromophore_4 TDDFT with blyp functional
 -------------------------------------------------
 Symbolic Z-matrix:
 Charge =  0 Multiplicity = 1

                         Standard orientation:
 ---------------------------------------------------------------------
 Center     Atomic      Atomic             Coordinates (Angstroms)
 Number     Number       Type             X           Y           Z
 ---------------------------------------------------------------------
      1         12           0        5.963964    0.560483    0.237296
      2          6           0        3.630470   -2.067045    0.018829
      3          6           0        3.412080    2.742964   -0.388319
      4          6           0        8.286412    2.862294   -0.151392
      5          6           0        8.510861   -1.885661    0.278597
      6          7           0        3.703652    0.301709   -0.515110
      7          6           0        2.955181   -0.782266   -0.193567
      8          6           0        1.447716   -0.430451   -0.223901
      9          6           0        1.463978    1.136776   -0.492493
     10          6           0        2.979276    1.426192   -0.416848
     11          6           0        0.823447    1.546589   -1.835979
     12          6           0        0.648491   -0.968982    0.996677
     13          6           0       -0.792216   -0.497067    1.052855
     14          6           0       -1.817748   -1.657410    0.904181
     15          8           0       -2.208372   -2.370704    1.821746
     16          8           0       -2.321550   -1.771180   -0.404548
     17          7           0        5.842132    2.591633   -0.151240
     18          6           0        4.733379    3.329101   -0.346883
     19          6           0        5.115138    4.755029   -0.367885
     20          6           0        6.554624    4.835861   -0.322027
     21          6           0        6.934486    3.354742   -0.235318
     22          6           0        3.973819    5.804885   -0.597176
     23          6           0        7.500002    6.052540   -0.323323
     24          8           0        8.727552    6.010252   -0.302073
     25          6           0        6.919300    7.451340   -0.239545
     26          7           0        8.066794    0.472216    0.219908
     27          6           0        8.731299    1.566085    0.093716
     28          6           0       10.188852    1.254542   -0.220466
     29          6           0       10.325503   -0.196443    0.223977
     30          6           0        8.919201   -0.574802    0.258881
     31          6           0       10.614907    1.462278   -1.738649
     32          6           0       10.966045   -0.563514    1.591527
     33          6           0       12.186815   -1.445736    1.507129
     34          7           0        6.070703   -1.439570    0.142056
     35          6           0        7.126547   -2.264033    0.336118
     36          6           0        6.708648   -3.606003    0.417370
     37          6           0        5.325196   -3.540114    0.408421
     38          6           0        5.006234   -2.202915    0.153530
     39          6           0        7.614251   -4.752269    0.547781
     40          6           0        4.193702   -4.330351    0.448784
     41          8           0        4.058935   -5.507511    0.705329
     42          6           0        2.974899   -3.369923    0.314578
     43          6           0        2.095494   -3.928801   -0.800629
     44          8           0        2.355938   -3.945849   -1.993417
     45          8           0        0.982231   -4.553431   -0.315951
     46          6           0        0.070242   -5.020166   -1.359018
     47          6           0       -3.434231   -2.764915   -0.611572
     48          6           0       -4.716474   -2.208962   -0.198640
     49          6           0       -5.832235   -2.821126    0.207383
     50          6           0       -5.908781   -4.351769    0.444936
     51          6           0       -7.121025   -2.042314    0.439249
     52          6           0       -7.875626   -1.302202   -0.735416
     53          6           0       -7.816724    0.275596   -0.612249
     54          6           0       -9.237586    0.830869   -0.270596
     55          6           0      -10.145275    0.857544   -1.536869
     56          6           0       -9.157382    2.249698    0.382989
     57          6           0       -9.774391    2.184191    1.782828
     58          6           0      -11.035813    3.033141    1.824492
     59          6           0      -12.328064    2.330051    2.208384
     60          6           0      -13.082616    3.043158    3.358109
     61          6           0      -13.132609    2.153106    0.869846
     62          6           0      -13.761837    0.753678    0.743421
     63          6           0      -15.046063    0.687481   -0.157470
     64          6           0      -14.841836   -0.008412   -1.513074
     65          6           0      -14.128568    0.815735   -2.613718
     66          6           0      -16.104882   -0.625106   -2.105336
     67          1           0        2.593407    3.454303   -0.514215
     68          1           0        9.063167    3.621290   -0.276093
     69          1           0        9.386140   -2.539037    0.297277
     70          1           0        1.095944   -0.908897   -1.137729
     71          1           0        1.075888    1.663734    0.378952
     72          1           0       -0.220487    1.389109   -1.566291
     73          1           0        1.189956    0.918192   -2.648210
     74          1           0        1.002515    2.600583   -2.051433
     75          1           0        1.166948   -0.656361    1.902808
     76          1           0        0.725974   -2.055855    1.015718
     77          1           0       -0.902282    0.123088    0.162870
     78          1           0       -0.873313    0.097989    1.962979
     79          1           0        3.050212    5.530935   -1.107472
     80          1           0        4.267534    6.510093   -1.374464
     81          1           0        3.651732    6.255834    0.341420
     82          1           0        7.580567    8.317044   -0.263543
     83          1           0        6.233641    7.536014    0.603747
     84          1           0        6.321575    7.667086   -1.125048
     85          1           0       10.779965    1.942866    0.384268
     86          1           0       10.836713   -0.784870   -0.537768
     87          1           0       11.150124    0.566464   -2.056342
     88          1           0       11.195475    2.371614   -1.891092
     89          1           0        9.732840    1.490075   -2.377588
     90          1           0       10.220788   -1.045309    2.224418
     91          1           0       11.276516    0.278878    2.210392
     92          1           0       12.985635   -0.929456    2.038816
     93          1           0       12.420394   -1.672608    0.467410
     94          1           0       11.942542   -2.405436    1.964737
     95          1           0        8.587566   -4.500642    0.969506
     96          1           0        7.679572   -5.184800   -0.450332
     97          1           0        7.262101   -5.531674    1.222887
     98          1           0        2.437778   -3.299486    1.260084
     99          1           0       -0.888672   -5.253716   -0.897459
    100          1           0        0.521060   -5.896772   -1.823149
    101          1           0       -0.137259   -4.258964   -2.111315
    102          1           0       -3.259055   -3.683500   -0.051704
    103          1           0       -3.316195   -3.057632   -1.654753
    104          1           0       -4.754672   -1.131225   -0.357968
    105          1           0       -4.881210   -4.711609    0.384038
    106          1           0       -6.603170   -4.757584   -0.291850
    107          1           0       -6.258869   -4.564931    1.454288
    108          1           0       -6.951102   -1.307282    1.226963
    109          1           0       -7.884232   -2.671069    0.897842
    110          1           0       -8.917220   -1.624470   -0.758050
    111          1           0       -7.398006   -1.613471   -1.664288
    112          1           0       -7.430363    0.618957   -1.572875
    113          1           0       -7.065947    0.634729    0.091446
    114          1           0       -9.623219    0.106856    0.447969
    115          1           0       -9.964395    0.006228   -2.192683
    116          1           0       -9.991189    1.731983   -2.169036
    117          1           0      -11.206367    0.757266   -1.310512
    118          1           0       -9.639937    2.935292   -0.314049
    119          1           0       -8.156226    2.668954    0.482746
    120          1           0       -9.080974    2.578681    2.525682
    121          1           0      -10.018551    1.161908    2.069937
    122          1           0      -11.101052    3.526347    0.854912
    123          1           0      -10.827123    3.755464    2.613818
    124          1           0      -12.058457    1.325988    2.536687
    125          1           0      -12.647300    4.040978    3.405196
    126          1           0      -12.939644    2.508497    4.297062
    127          1           0      -14.172705    3.044231    3.326471
    128          1           0      -12.481407    2.265841    0.002816
    129          1           0      -13.832964    2.974911    0.719229
    130          1           0      -14.056088    0.437373    1.744417
    131          1           0      -12.940065    0.146594    0.364137
    132          1           0      -15.239984    1.740060   -0.366951
    133          1           0      -15.834928    0.191139    0.408820
    134          1           0      -14.238189   -0.886554   -1.285496
    135          1           0      -13.809688    0.119816   -3.389190
    136          1           0      -13.236208    1.319621   -2.242610
    137          1           0      -14.775277    1.638258   -2.921671
    138          1           0      -16.845707    0.142306   -1.881411
    139          1           0      -16.205926   -1.536648   -1.514629
    140          1           0      -15.944116   -0.864180   -3.156425
 ---------------------------------------------------------------------

 SCF Done:  E(RB-LYP) =  -3007.35902772     A.U. after   23 cycles

 Excitation energies and oscillator strengths:

 Excited State   1:      Singlet-A      1.8209 eV  680.89 nm  f=0.2827  <S**2>=0.000
     244 -> 247       -0.24898
     245 -> 248        0.17228
     246 -> 247        0.64345
     246 <- 247       -0.14118
 This state for optimization and/or second-order correction.
 Total Energy, E(TD-HF/TD-DFT) =  -3007.29211034
 Copying the excited state density for this state as the 1-particle RhoCI density.

 Excited State   2:      Singlet-A      1.8608 eV  666.31 nm  f=0.0597  <S**2>=0.000
     244 -> 247        0.64937
     245 -> 247        0.10177
     246 -> 247        0.25275

 Excited State   3:      Singlet-A      2.0096 eV  616.96 nm  f=0.0315  <S**2>=0.000
     243 -> 247        0.55750
     245 -> 247        0.39847
     246 -> 248       -0.13411

 Excited State   4:      Singlet-A      2.0415 eV  607.32 nm  f=0.0532  <S**2>=0.000
     243 -> 247       -0.43308
     245 -> 247        0.50701
     246 -> 248       -0.19627

 Excited State   5:      Singlet-A      2.4489 eV  506.29 nm  f=0.0001  <S**2>=0.000
     242 -> 247        0.70707

 The electronic state is 1-A.
 Alpha  occ. eigenvalues --  -46.27999 -18.81887 -18.81658 -18.76958 -18.76027
 Alpha  occ. eigenvalues --  -18.75880 -18.74893 -14.02908 -14.02714 -14.01834
 Alpha  occ. eigenvalues --  -14.01084 -10.04447 -10.03443 -10.00656  -9.98348
 Alpha  occ. eigenvalues --   -9.98093  -9.97189  -9.96987  -9.96531  -9.96084
 Alpha  occ. eigenvalues --   -9.95942  -9.95470  -9.95255  -9.95234  -9.95020
 Alpha  occ. eigenvalues --   -9.94471  -9.94243  -9.94235  -9.94171  -9.94123
 Alpha  occ. eigenvalues --   -9.93736  -9.93598  -9.93492  -9.93438  -9.93268
 Alpha  occ. eigenvalues --   -9.93180  -9.93104  -9.92928  -9.92889  -9.92583
 Alpha  occ. eigenvalues --   -9.92445  -9.92392  -9.92360  -9.92354  -9.92318
 Alpha  occ. eigenvalues --   -9.92002  -9.91956  -9.91915  -9.91881  -9.91829
 Alpha  occ. eigenvalues --   -9.91778  -9.91579  -9.91488  -9.91381  -9.91358
 Alpha  occ. eigenvalues --   -9.91229  -9.91175  -9.91076  -9.90943  -9.90941
 Alpha  occ. eigenvalues --   -9.90876  -9.90703  -9.90694  -9.90590  -9.90059
 Alpha  occ. eigenvalues --   -9.89897  -2.92731  -1.73127  -1.72645  -1.72426
 Alpha  occ. eigenvalues --   -0.97654  -0.96337  -0.91474  -0.91400  -0.89053
 Alpha  occ. eigenvalues --   -0.88989  -0.88946  -0.88077  -0.86694  -0.85977
 Alpha  occ. eigenvalues --   -0.76364  -0.73605  -0.73546  -0.73383  -0.72928
 Alpha  occ. eigenvalues --   -0.72068  -0.71768  -0.71060  -0.70980  -0.70801
 Alpha  occ. eigenvalues --   -0.69617  -0.69028  -0.68132  -0.67816  -0.67042
 Alpha  occ. eigenvalues --   -0.66606  -0.65964  -0.65161  -0.65011  -0.64290
 Alpha  occ. eigenvalues --   -0.63942  -0.62750  -0.62443  -0.62087  -0.60827
 Alpha  occ. eigenvalues --   -0.60276  -0.60179  -0.60045  -0.59721  -0.59014
 Alpha  occ. eigenvalues --   -0.58327  -0.57951  -0.56787  -0.55786  -0.54586
 Alpha  occ. eigenvalues --   -0.54376  -0.54035  -0.53103  -0.52422  -0.52340
 Alpha  occ. eigenvalues --   -0.51574  -0.51247  -0.50637  -0.50452  -0.50176
 Alpha  occ. eigenvalues --   -0.49247  -0.48965  -0.48380  -0.48183  -0.46924
 Alpha  occ. eigenvalues --   -0.46757  -0.46557  -0.46001  -0.45673  -0.45167
 Alpha  occ. eigenvalues --   -0.44399  -0.44095  -0.43119  -0.42288  -0.42113
 Alpha  occ. eigenvalues --   -0.41942  -0.41825  -0.41680  -0.41208  -0.41064
 Alpha  occ. eigenvalues --   -0.40674  -0.40664  -0.40541  -0.40159  -0.40012
 Alpha  occ. eigenvalues --   -0.39961  -0.39578  -0.39502  -0.39484  -0.39353
 Alpha  occ. eigenvalues --   -0.39241  -0.38898  -0.38665  -0.38573  -0.38343
 Alpha  occ. eigenvalues --   -0.38242  -0.37836  -0.37753  -0.37658  -0.37517
 Alpha  occ. eigenvalues --   -0.37173  -0.36930  -0.36721  -0.36585  -0.36310
 Alpha  occ. eigenvalues --   -0.36222  -0.36061  -0.36009  -0.35729  -0.35700
 Alpha  occ. eigenvalues --   -0.35535  -0.35325  -0.35217  -0.35134  -0.34766
 Alpha  occ. eigenvalues --   -0.34706  -0.34482  -0.34297  -0.34076  -0.33936
 Alpha  occ. eigenvalues --   -0.33813  -0.33743  -0.33532  -0.33378  -0.33205
 Alpha  occ. eigenvalues --   -0.32914  -0.32756  -0.32663  -0.32587  -0.32505
 Alpha  occ. eigenvalues --   -0.32305  -0.32281  -0.32204  -0.31959  -0.31804
 Alpha  occ. eigenvalues --   -0.31560  -0.31206  -0.30929  -0.30745  -0.30403
 Alpha  occ. eigenvalues --   -0.30210  -0.30119  -0.30060  -0.29986  -0.29926
 Alpha  occ. eigenvalues --   -0.29874  -0.29501  -0.29414  -0.29220  -0.28980
 Alpha  occ. eigenvalues --   -0.28762  -0.28677  -0.28612  -0.28453  -0.28177
 Alpha  occ. eigenvalues --   -0.27756  -0.27727  -0.27150  -0.26778  -0.26489
 Alpha  occ. eigenvalues --   -0.26250  -0.26173  -0.25707  -0.25436  -0.25221
 Alpha  occ. eigenvalues --   -0.25157  -0.24681  -0.23930  -0.23884  -0.23427
 Alpha  occ. eigenvalues --   -0.23322  -0.22049  -0.21862  -0.21463  -0.21281
 Alpha  occ. eigenvalues --   -0.21063  -0.20509  -0.18841  -0.18236  -0.17203
 Alpha  occ. eigenvalues --   -0.15794
 Alpha virt. eigenvalues --   -0.11510  -0.06595  -0.06247  -0.04508  -0.03724
 Alpha virt. eigenvalues --   -0.03314  -0.02322  -0.01986  -0.01269   0.00173
 Alpha virt. eigenvalues --    0.01146   0.01780   0.02285   0.02307   0.02783

 Mulliken charges:
               1
     1  Mg   0.707070
     2  C   -0.065001
     3  C   -0.038808
     4  C   -0.056360
     5  C   -0.103699
     6  N   -0.159697
     7  C   -0.103812
     8  C    0.046213
     9  C   -0.022563
    10  C   -0.016282
    11  C    0.153015
    12  C    0.055812
    13  C    0.187849
    14  C    0.090141
    15  O   -0.189672
    16  O   -0.308028
    17  N   -0.259501
    18  C    0.101658
    19  C   -0.105268
    20  C    0.006367
    21  C    0.077808
    22  C    0.116206
    23  C   -0.030917
    24  O   -0.161103
    25  C    0.116592
    26  N   -0.173654
    27  C    0.037733
    28  C    0.004903
    29  C    0.050600
    30  C   -0.036875
    31  C    0.132413
    32  C    0.087088
    33  C    0.072770
    34  N   -0.224047
    35  C    0.162635
    36  C   -0.195148
    37  C    0.145997
    38  C    0.117520
    39  C    0.188519
    40  C   -0.115099
    41  O   -0.123058
    42  C    0.064823
    43  C    0.099363
    44  O   -0.188685
    45  O   -0.261446
    46  C    0.224237
    47  C    0.321103
    48  C   -0.104984
    49  C   -0.135169
    50  C    0.153284
    51  C    0.125234
    52  C    0.061544
    53  C    0.081080
    54  C   -0.072580
    55  C    0.093460
    56  C    0.117850
    57  C    0.076169
    58  C    0.110120
    59  C   -0.069488
    60  C    0.130062
    61  C    0.065714
    62  C    0.055979
    63  C    0.130553
    64  C   -0.115458
    65  C    0.098966
    66  C    0.117118
    67  H   -0.071966
    68  H   -0.045183
    69  H   -0.069505
    70  H   -0.014639
    71  H   -0.032270
    72  H   -0.002592
    73  H    0.012809
    74  H   -0.010027
    75  H   -0.032602
    76  H    0.018273
    77  H   -0.015145
    78  H    0.002426
    79  H   -0.009100
    80  H   -0.002773
    81  H    0.009865
    82  H   -0.010189
    83  H    0.005665
    84  H   -0.008111
    85  H   -0.036031
    86  H   -0.027939
    87  H   -0.015850
    88  H    0.009720
    89  H   -0.003958
    90  H   -0.020686
    91  H   -0.029576
    92  H    0.000972
    93  H   -0.014126
    94  H   -0.007436
    95  H   -0.014998
    96  H    0.008674
    97  H   -0.001076
    98  H    0.011456
    99  H    0.009033
   100  H    0.018495
   101  H    0.010374
   102  H    0.004377
   103  H    0.003798
   104  H   -0.039592
   105  H   -0.025260
   106  H    0.008525
   107  H    0.003342
   108  H   -0.016243
   109  H   -0.052722
   110  H   -0.018429
   111  H   -0.030383
   112  H   -0.039437
   113  H   -0.027105
   114  H   -0.028418
   115  H   -0.029853
   116  H   -0.011508
   117  H   -0.004826
   118  H   -0.035242
   119  H   -0.039126
   120  H   -0.036803
   121  H   -0.030673
   122  H   -0.029006
   123  H   -0.055029
   124  H   -0.040436
   125  H   -0.010395
   126  H   -0.022779
   127  H   -0.021186
   128  H   -0.038861
   129  H   -0.040117
   130  H   -0.031478
   131  H   -0.021935
   132  H   -0.037824
   133  H   -0.036159
   134  H   -0.049235
   135  H   -0.007884
   136  H   -0.022143
   137  H   -0.018523
   138  H   -0.010574
   139  H   -0.016504
   140  H   -0.015503
 Sum of Mulliken charges =  -0.00000

 Dipole moment (field-independent basis, Debye):
    X=             -2.1071    Y=              3.2098    Z=              0.4583  Tot=              3.8669
 Quadrupole moment (field-independent basis, Debye-Ang):
   XX=           -387.6612   YY=           -427.7646   ZZ=           -409.4220
   XY=             -4.0193   XZ=             11.6208   YZ=              4.5673

 Normal termination of Gaussian 16 at Thu May  5 11:14:19 2022.
