 Gaussian 16, Revision A.03,
 Gaussian 16:  ES64L-G16RevA.03 25-Dec-2016

 -----------------------------------
 #p cam-b3lyp/Def2SVP td=(nstates=5)
 -----------------------------------

 ------------------------------------------------------
 step_801_chromophore_4 TDDFT with cam-b3lyp functional
 ------------------------------------------------------
 Symbolic Z-matrix:
 Charge =  0 Multiplicity = 1

                         Standard orientation:
 ---------------------------------------------------------------------
 Center     Atomic      Atomic             Coordinates (Angstroms)
 Number     Number       Type             X           Y           Z
 ---------------------------------------------------------------------
      1         12           0        5.963964    0.560483    0.237296
      2          6           0        3.630470   -2.067045    0.018829
      3          6           0        3.412080    2.742964   -0.388319
      4          6           0        8.286412    2.862294   -0.151392
      5          6           0        8.510861   -1.885661    0.278597
      6          7           0        3.703652    0.301709   -0.515110
      7          6           0        2.955181   -0.782266   -0.193567
      8          6           0        1.447716   -0.430451   -0.223901
      9          6           0        1.463978    1.136776   -0.492493
     10          6           0        2.979276    1.426192   -0.416848
     11          6           0        0.823447    1.546589   -1.835979
     12          6           0        0.648491   -0.968982    0.996677
     13          6           0       -0.792216   -0.497067    1.052855
     14          6           0       -1.817748   -1.657410    0.904181
     15          8           0       -2.208372   -2.370704    1.821746
     16          8           0       -2.321550   -1.771180   -0.404548
     17          7           0        5.842132    2.591633   -0.151240
     18          6           0        4.733379    3.329101   -0.346883
     19          6           0        5.115138    4.755029   -0.367885
     20          6           0        6.554624    4.835861   -0.322027
     21          6           0        6.934486    3.354742   -0.235318
     22          6           0        3.973819    5.804885   -0.597176
     23          6           0        7.500002    6.052540   -0.323323
     24          8           0        8.727552    6.010252   -0.302073
     25          6           0        6.919300    7.451340   -0.239545
     26          7           0        8.066794    0.472216    0.219908
     27          6           0        8.731299    1.566085    0.093716
     28          6           0       10.188852    1.254542   -0.220466
     29          6           0       10.325503   -0.196443    0.223977
     30          6           0        8.919201   -0.574802    0.258881
     31          6           0       10.614907    1.462278   -1.738649
     32          6           0       10.966045   -0.563514    1.591527
     33          6           0       12.186815   -1.445736    1.507129
     34          7           0        6.070703   -1.439570    0.142056
     35          6           0        7.126547   -2.264033    0.336118
     36          6           0        6.708648   -3.606003    0.417370
     37          6           0        5.325196   -3.540114    0.408421
     38          6           0        5.006234   -2.202915    0.153530
     39          6           0        7.614251   -4.752269    0.547781
     40          6           0        4.193702   -4.330351    0.448784
     41          8           0        4.058935   -5.507511    0.705329
     42          6           0        2.974899   -3.369923    0.314578
     43          6           0        2.095494   -3.928801   -0.800629
     44          8           0        2.355938   -3.945849   -1.993417
     45          8           0        0.982231   -4.553431   -0.315951
     46          6           0        0.070242   -5.020166   -1.359018
     47          6           0       -3.434231   -2.764915   -0.611572
     48          6           0       -4.716474   -2.208962   -0.198640
     49          6           0       -5.832235   -2.821126    0.207383
     50          6           0       -5.908781   -4.351769    0.444936
     51          6           0       -7.121025   -2.042314    0.439249
     52          6           0       -7.875626   -1.302202   -0.735416
     53          6           0       -7.816724    0.275596   -0.612249
     54          6           0       -9.237586    0.830869   -0.270596
     55          6           0      -10.145275    0.857544   -1.536869
     56          6           0       -9.157382    2.249698    0.382989
     57          6           0       -9.774391    2.184191    1.782828
     58          6           0      -11.035813    3.033141    1.824492
     59          6           0      -12.328064    2.330051    2.208384
     60          6           0      -13.082616    3.043158    3.358109
     61          6           0      -13.132609    2.153106    0.869846
     62          6           0      -13.761837    0.753678    0.743421
     63          6           0      -15.046063    0.687481   -0.157470
     64          6           0      -14.841836   -0.008412   -1.513074
     65          6           0      -14.128568    0.815735   -2.613718
     66          6           0      -16.104882   -0.625106   -2.105336
     67          1           0        2.593407    3.454303   -0.514215
     68          1           0        9.063167    3.621290   -0.276093
     69          1           0        9.386140   -2.539037    0.297277
     70          1           0        1.095944   -0.908897   -1.137729
     71          1           0        1.075888    1.663734    0.378952
     72          1           0       -0.220487    1.389109   -1.566291
     73          1           0        1.189956    0.918192   -2.648210
     74          1           0        1.002515    2.600583   -2.051433
     75          1           0        1.166948   -0.656361    1.902808
     76          1           0        0.725974   -2.055855    1.015718
     77          1           0       -0.902282    0.123088    0.162870
     78          1           0       -0.873313    0.097989    1.962979
     79          1           0        3.050212    5.530935   -1.107472
     80          1           0        4.267534    6.510093   -1.374464
     81          1           0        3.651732    6.255834    0.341420
     82          1           0        7.580567    8.317044   -0.263543
     83          1           0        6.233641    7.536014    0.603747
     84          1           0        6.321575    7.667086   -1.125048
     85          1           0       10.779965    1.942866    0.384268
     86          1           0       10.836713   -0.784870   -0.537768
     87          1           0       11.150124    0.566464   -2.056342
     88          1           0       11.195475    2.371614   -1.891092
     89          1           0        9.732840    1.490075   -2.377588
     90          1           0       10.220788   -1.045309    2.224418
     91          1           0       11.276516    0.278878    2.210392
     92          1           0       12.985635   -0.929456    2.038816
     93          1           0       12.420394   -1.672608    0.467410
     94          1           0       11.942542   -2.405436    1.964737
     95          1           0        8.587566   -4.500642    0.969506
     96          1           0        7.679572   -5.184800   -0.450332
     97          1           0        7.262101   -5.531674    1.222887
     98          1           0        2.437778   -3.299486    1.260084
     99          1           0       -0.888672   -5.253716   -0.897459
    100          1           0        0.521060   -5.896772   -1.823149
    101          1           0       -0.137259   -4.258964   -2.111315
    102          1           0       -3.259055   -3.683500   -0.051704
    103          1           0       -3.316195   -3.057632   -1.654753
    104          1           0       -4.754672   -1.131225   -0.357968
    105          1           0       -4.881210   -4.711609    0.384038
    106          1           0       -6.603170   -4.757584   -0.291850
    107          1           0       -6.258869   -4.564931    1.454288
    108          1           0       -6.951102   -1.307282    1.226963
    109          1           0       -7.884232   -2.671069    0.897842
    110          1           0       -8.917220   -1.624470   -0.758050
    111          1           0       -7.398006   -1.613471   -1.664288
    112          1           0       -7.430363    0.618957   -1.572875
    113          1           0       -7.065947    0.634729    0.091446
    114          1           0       -9.623219    0.106856    0.447969
    115          1           0       -9.964395    0.006228   -2.192683
    116          1           0       -9.991189    1.731983   -2.169036
    117          1           0      -11.206367    0.757266   -1.310512
    118          1           0       -9.639937    2.935292   -0.314049
    119          1           0       -8.156226    2.668954    0.482746
    120          1           0       -9.080974    2.578681    2.525682
    121          1           0      -10.018551    1.161908    2.069937
    122          1           0      -11.101052    3.526347    0.854912
    123          1           0      -10.827123    3.755464    2.613818
    124          1           0      -12.058457    1.325988    2.536687
    125          1           0      -12.647300    4.040978    3.405196
    126          1           0      -12.939644    2.508497    4.297062
    127          1           0      -14.172705    3.044231    3.326471
    128          1           0      -12.481407    2.265841    0.002816
    129          1           0      -13.832964    2.974911    0.719229
    130          1           0      -14.056088    0.437373    1.744417
    131          1           0      -12.940065    0.146594    0.364137
    132          1           0      -15.239984    1.740060   -0.366951
    133          1           0      -15.834928    0.191139    0.408820
    134          1           0      -14.238189   -0.886554   -1.285496
    135          1           0      -13.809688    0.119816   -3.389190
    136          1           0      -13.236208    1.319621   -2.242610
    137          1           0      -14.775277    1.638258   -2.921671
    138          1           0      -16.845707    0.142306   -1.881411
    139          1           0      -16.205926   -1.536648   -1.514629
    140          1           0      -15.944116   -0.864180   -3.156425
 ---------------------------------------------------------------------

 SCF Done:  E(RCAM-B3LYP) =  -3007.16372931     A.U. after   17 cycles

 Excitation energies and oscillator strengths:

 Excited State   1:      Singlet-A      1.7103 eV  724.95 nm  f=0.4060  <S**2>=0.000
     245 -> 248        0.18195
     246 -> 247        0.68483
     245 <- 248        0.10972
 This state for optimization and/or second-order correction.
 Total Energy, E(TD-HF/TD-DFT) =  -3007.10087858
 Copying the excited state density for this state as the 1-particle RhoCI density.

 Excited State   2:      Singlet-A      2.2426 eV  552.85 nm  f=0.1319  <S**2>=0.000
     245 -> 247        0.64533
     246 -> 248       -0.27974

 Excited State   3:      Singlet-A      3.4370 eV  360.74 nm  f=0.0035  <S**2>=0.000
     242 -> 247       -0.11379
     243 -> 247        0.56367
     243 -> 249       -0.23620
     243 -> 251       -0.21683
     244 -> 247        0.14159

 Excited State   4:      Singlet-A      3.5752 eV  346.79 nm  f=0.4517  <S**2>=0.000
     239 -> 247        0.13735
     241 -> 247        0.15998
     245 -> 247        0.22091
     246 -> 248        0.53655
     246 -> 249       -0.19113
     246 -> 250       -0.24966

 Excited State   5:      Singlet-A      3.6342 eV  341.16 nm  f=0.0032  <S**2>=0.000
     239 -> 247        0.23108
     239 -> 249        0.16979
     240 -> 247        0.48201
     240 -> 249        0.28734
     240 -> 250       -0.14287
     240 -> 251       -0.15873

 The electronic state is 1-A.
 Alpha  occ. eigenvalues --  -46.89622 -19.24781 -19.24600 -19.19998 -19.19249
 Alpha  occ. eigenvalues --  -19.19168 -19.17963 -14.41827 -14.41439 -14.40388
 Alpha  occ. eigenvalues --  -14.39447 -10.39851 -10.38918 -10.36033 -10.33515
 Alpha  occ. eigenvalues --  -10.32204 -10.31566 -10.31154 -10.31125 -10.30545
 Alpha  occ. eigenvalues --  -10.30405 -10.29926 -10.29849 -10.29445 -10.29329
 Alpha  occ. eigenvalues --  -10.28795 -10.28595 -10.28434 -10.28326 -10.28234
 Alpha  occ. eigenvalues --  -10.28074 -10.27820 -10.27605 -10.27602 -10.27413
 Alpha  occ. eigenvalues --  -10.27131 -10.27030 -10.26854 -10.26832 -10.26672
 Alpha  occ. eigenvalues --  -10.26320 -10.26162 -10.26120 -10.25952 -10.25945
 Alpha  occ. eigenvalues --  -10.25940 -10.25935 -10.25733 -10.25669 -10.25478
 Alpha  occ. eigenvalues --  -10.25370 -10.25360 -10.25302 -10.25097 -10.25054
 Alpha  occ. eigenvalues --  -10.24879 -10.24867 -10.24768 -10.24574 -10.24542
 Alpha  occ. eigenvalues --  -10.24538 -10.24399 -10.24316 -10.24166 -10.23773
 Alpha  occ. eigenvalues --  -10.23679  -3.18258  -1.93127  -1.92727  -1.92554
 Alpha  occ. eigenvalues --   -1.16225  -1.14785  -1.10009  -1.09740  -1.06922
 Alpha  occ. eigenvalues --   -1.06882  -1.06741  -1.05722  -1.04445  -1.03653
 Alpha  occ. eigenvalues --   -0.93557  -0.90489  -0.90261  -0.90212  -0.89751
 Alpha  occ. eigenvalues --   -0.88789  -0.88402  -0.87646  -0.87581  -0.87374
 Alpha  occ. eigenvalues --   -0.86405  -0.85448  -0.84397  -0.83917  -0.83196
 Alpha  occ. eigenvalues --   -0.82675  -0.82058  -0.81176  -0.81024  -0.80150
 Alpha  occ. eigenvalues --   -0.79698  -0.78425  -0.78176  -0.77643  -0.76246
 Alpha  occ. eigenvalues --   -0.75636  -0.75464  -0.75371  -0.75034  -0.74252
 Alpha  occ. eigenvalues --   -0.73388  -0.72988  -0.71708  -0.70631  -0.69186
 Alpha  occ. eigenvalues --   -0.68893  -0.68638  -0.67744  -0.66798  -0.66413
 Alpha  occ. eigenvalues --   -0.65749  -0.65370  -0.64817  -0.64543  -0.64180
 Alpha  occ. eigenvalues --   -0.63205  -0.62704  -0.62115  -0.62069  -0.60620
 Alpha  occ. eigenvalues --   -0.60285  -0.60173  -0.59595  -0.59093  -0.58671
 Alpha  occ. eigenvalues --   -0.58064  -0.57392  -0.56340  -0.55611  -0.55469
 Alpha  occ. eigenvalues --   -0.54722  -0.54664  -0.54570  -0.54215  -0.53861
 Alpha  occ. eigenvalues --   -0.53814  -0.53603  -0.53178  -0.52938  -0.52766
 Alpha  occ. eigenvalues --   -0.52632  -0.52453  -0.52303  -0.52097  -0.52060
 Alpha  occ. eigenvalues --   -0.51842  -0.51408  -0.51256  -0.50986  -0.50874
 Alpha  occ. eigenvalues --   -0.50554  -0.50502  -0.50178  -0.49905  -0.49829
 Alpha  occ. eigenvalues --   -0.49681  -0.49401  -0.49285  -0.48863  -0.48725
 Alpha  occ. eigenvalues --   -0.48473  -0.48254  -0.48110  -0.48007  -0.47918
 Alpha  occ. eigenvalues --   -0.47669  -0.47487  -0.47319  -0.47187  -0.46780
 Alpha  occ. eigenvalues --   -0.46605  -0.46251  -0.46116  -0.46008  -0.45888
 Alpha  occ. eigenvalues --   -0.45599  -0.45482  -0.45268  -0.45182  -0.45124
 Alpha  occ. eigenvalues --   -0.44832  -0.44377  -0.44295  -0.44176  -0.44062
 Alpha  occ. eigenvalues --   -0.43994  -0.43792  -0.43760  -0.43705  -0.43345
 Alpha  occ. eigenvalues --   -0.42978  -0.42944  -0.42585  -0.42193  -0.41930
 Alpha  occ. eigenvalues --   -0.41736  -0.41639  -0.41324  -0.41260  -0.41199
 Alpha  occ. eigenvalues --   -0.41119  -0.41094  -0.40664  -0.40343  -0.40172
 Alpha  occ. eigenvalues --   -0.39937  -0.39710  -0.39665  -0.39602  -0.39184
 Alpha  occ. eigenvalues --   -0.38729  -0.38572  -0.37995  -0.37771  -0.37563
 Alpha  occ. eigenvalues --   -0.36958  -0.36744  -0.36677  -0.36346  -0.36300
 Alpha  occ. eigenvalues --   -0.36173  -0.36089  -0.34508  -0.34365  -0.33999
 Alpha  occ. eigenvalues --   -0.33847  -0.33773  -0.33113  -0.31428  -0.31216
 Alpha  occ. eigenvalues --   -0.30658  -0.30536  -0.30231  -0.30196  -0.23891
 Alpha  occ. eigenvalues --   -0.21104
 Alpha virt. eigenvalues --   -0.08654  -0.01377   0.00147   0.01172   0.02524
 Alpha virt. eigenvalues --    0.04349   0.05120   0.05733   0.05859   0.06989
 Alpha virt. eigenvalues --    0.07892   0.08321   0.08507   0.08822   0.08982

 Mulliken charges:
               1
     1  Mg   0.840595
     2  C   -0.076290
     3  C   -0.052970
     4  C   -0.076075
     5  C   -0.102607
     6  N   -0.221220
     7  C   -0.060543
     8  C   -0.001588
     9  C   -0.083116
    10  C    0.002387
    11  C    0.100093
    12  C    0.005961
    13  C    0.115651
    14  C    0.171977
    15  O   -0.228551
    16  O   -0.374182
    17  N   -0.349040
    18  C    0.110088
    19  C   -0.110720
    20  C   -0.058273
    21  C    0.103094
    22  C    0.062569
    23  C    0.044009
    24  O   -0.200471
    25  C    0.039252
    26  N   -0.250598
    27  C    0.061139
    28  C   -0.056530
    29  C   -0.011781
    30  C   -0.020391
    31  C    0.078026
    32  C    0.033171
    33  C    0.009886
    34  N   -0.318351
    35  C    0.162105
    36  C   -0.184827
    37  C    0.058788
    38  C    0.147399
    39  C    0.131371
    40  C   -0.012477
    41  O   -0.162221
    42  C   -0.018337
    43  C    0.187345
    44  O   -0.224901
    45  O   -0.323413
    46  C    0.184940
    47  C    0.290082
    48  C   -0.126702
    49  C   -0.160848
    50  C    0.095228
    51  C    0.069980
    52  C    0.005626
    53  C    0.031878
    54  C   -0.125535
    55  C    0.043759
    56  C    0.059914
    57  C    0.021924
    58  C    0.052013
    59  C   -0.126796
    60  C    0.070779
    61  C    0.023269
    62  C    0.004725
    63  C    0.071389
    64  C   -0.171350
    65  C    0.043699
    66  C    0.057492
    67  H   -0.038123
    68  H   -0.004001
    69  H   -0.033342
    70  H    0.020118
    71  H    0.002917
    72  H    0.019554
    73  H    0.037127
    74  H    0.014182
    75  H    0.000191
    76  H    0.043035
    77  H    0.016848
    78  H    0.036725
    79  H    0.019299
    80  H    0.022208
    81  H    0.036765
    82  H    0.025036
    83  H    0.032402
    84  H    0.018700
    85  H    0.000267
    86  H    0.007924
    87  H    0.007873
    88  H    0.032929
    89  H    0.021392
    90  H    0.011200
    91  H   -0.000177
    92  H    0.024465
    93  H    0.008536
    94  H    0.015212
    95  H    0.009724
    96  H    0.035793
    97  H    0.027402
    98  H    0.054150
    99  H    0.030238
   100  H    0.043078
   101  H    0.032840
   102  H    0.030584
   103  H    0.032275
   104  H   -0.006636
   105  H   -0.002043
   106  H    0.031270
   107  H    0.027697
   108  H    0.013432
   109  H   -0.020236
   110  H    0.008459
   111  H   -0.000140
   112  H   -0.010022
   113  H   -0.000538
   114  H   -0.000200
   115  H   -0.004640
   116  H    0.012085
   117  H    0.008806
   118  H   -0.007012
   119  H   -0.008138
   120  H   -0.005963
   121  H   -0.003872
   122  H   -0.000939
   123  H   -0.022904
   124  H   -0.008485
   125  H    0.012744
   126  H    0.002102
   127  H    0.003899
   128  H   -0.016517
   129  H   -0.011230
   130  H   -0.002680
   131  H    0.001360
   132  H   -0.010260
   133  H   -0.004575
   134  H   -0.018193
   135  H    0.016009
   136  H   -0.003625
   137  H    0.005715
   138  H    0.012010
   139  H    0.007518
   140  H    0.009495
 Sum of Mulliken charges =  -0.00000

 Dipole moment (field-independent basis, Debye):
    X=             -2.2621    Y=              4.0525    Z=              0.4444  Tot=              4.6623
 Quadrupole moment (field-independent basis, Debye-Ang):
   XX=           -388.5866   YY=           -422.9899   ZZ=           -409.8814
   XY=             -0.5640   XZ=             12.0161   YZ=              4.4904

 Normal termination of Gaussian 16 at Thu May  5 10:06:13 2022.
