 Gaussian 16, Revision A.03,
 Gaussian 16:  ES64L-G16RevA.03 25-Dec-2016

 ---------------------------------
 #p PBE1PBE/Def2SVP td=(nstates=5)
 ---------------------------------

 ----------------------------------------------------
 step_801_chromophore_4 TDDFT with PBE1PBE functional
 ----------------------------------------------------
 Symbolic Z-matrix:
 Charge =  0 Multiplicity = 1

                         Standard orientation:
 ---------------------------------------------------------------------
 Center     Atomic      Atomic             Coordinates (Angstroms)
 Number     Number       Type             X           Y           Z
 ---------------------------------------------------------------------
      1         12           0        5.963964    0.560483    0.237296
      2          6           0        3.630470   -2.067045    0.018829
      3          6           0        3.412080    2.742964   -0.388319
      4          6           0        8.286412    2.862294   -0.151392
      5          6           0        8.510861   -1.885661    0.278597
      6          7           0        3.703652    0.301709   -0.515110
      7          6           0        2.955181   -0.782266   -0.193567
      8          6           0        1.447716   -0.430451   -0.223901
      9          6           0        1.463978    1.136776   -0.492493
     10          6           0        2.979276    1.426192   -0.416848
     11          6           0        0.823447    1.546589   -1.835979
     12          6           0        0.648491   -0.968982    0.996677
     13          6           0       -0.792216   -0.497067    1.052855
     14          6           0       -1.817748   -1.657410    0.904181
     15          8           0       -2.208372   -2.370704    1.821746
     16          8           0       -2.321550   -1.771180   -0.404548
     17          7           0        5.842132    2.591633   -0.151240
     18          6           0        4.733379    3.329101   -0.346883
     19          6           0        5.115138    4.755029   -0.367885
     20          6           0        6.554624    4.835861   -0.322027
     21          6           0        6.934486    3.354742   -0.235318
     22          6           0        3.973819    5.804885   -0.597176
     23          6           0        7.500002    6.052540   -0.323323
     24          8           0        8.727552    6.010252   -0.302073
     25          6           0        6.919300    7.451340   -0.239545
     26          7           0        8.066794    0.472216    0.219908
     27          6           0        8.731299    1.566085    0.093716
     28          6           0       10.188852    1.254542   -0.220466
     29          6           0       10.325503   -0.196443    0.223977
     30          6           0        8.919201   -0.574802    0.258881
     31          6           0       10.614907    1.462278   -1.738649
     32          6           0       10.966045   -0.563514    1.591527
     33          6           0       12.186815   -1.445736    1.507129
     34          7           0        6.070703   -1.439570    0.142056
     35          6           0        7.126547   -2.264033    0.336118
     36          6           0        6.708648   -3.606003    0.417370
     37          6           0        5.325196   -3.540114    0.408421
     38          6           0        5.006234   -2.202915    0.153530
     39          6           0        7.614251   -4.752269    0.547781
     40          6           0        4.193702   -4.330351    0.448784
     41          8           0        4.058935   -5.507511    0.705329
     42          6           0        2.974899   -3.369923    0.314578
     43          6           0        2.095494   -3.928801   -0.800629
     44          8           0        2.355938   -3.945849   -1.993417
     45          8           0        0.982231   -4.553431   -0.315951
     46          6           0        0.070242   -5.020166   -1.359018
     47          6           0       -3.434231   -2.764915   -0.611572
     48          6           0       -4.716474   -2.208962   -0.198640
     49          6           0       -5.832235   -2.821126    0.207383
     50          6           0       -5.908781   -4.351769    0.444936
     51          6           0       -7.121025   -2.042314    0.439249
     52          6           0       -7.875626   -1.302202   -0.735416
     53          6           0       -7.816724    0.275596   -0.612249
     54          6           0       -9.237586    0.830869   -0.270596
     55          6           0      -10.145275    0.857544   -1.536869
     56          6           0       -9.157382    2.249698    0.382989
     57          6           0       -9.774391    2.184191    1.782828
     58          6           0      -11.035813    3.033141    1.824492
     59          6           0      -12.328064    2.330051    2.208384
     60          6           0      -13.082616    3.043158    3.358109
     61          6           0      -13.132609    2.153106    0.869846
     62          6           0      -13.761837    0.753678    0.743421
     63          6           0      -15.046063    0.687481   -0.157470
     64          6           0      -14.841836   -0.008412   -1.513074
     65          6           0      -14.128568    0.815735   -2.613718
     66          6           0      -16.104882   -0.625106   -2.105336
     67          1           0        2.593407    3.454303   -0.514215
     68          1           0        9.063167    3.621290   -0.276093
     69          1           0        9.386140   -2.539037    0.297277
     70          1           0        1.095944   -0.908897   -1.137729
     71          1           0        1.075888    1.663734    0.378952
     72          1           0       -0.220487    1.389109   -1.566291
     73          1           0        1.189956    0.918192   -2.648210
     74          1           0        1.002515    2.600583   -2.051433
     75          1           0        1.166948   -0.656361    1.902808
     76          1           0        0.725974   -2.055855    1.015718
     77          1           0       -0.902282    0.123088    0.162870
     78          1           0       -0.873313    0.097989    1.962979
     79          1           0        3.050212    5.530935   -1.107472
     80          1           0        4.267534    6.510093   -1.374464
     81          1           0        3.651732    6.255834    0.341420
     82          1           0        7.580567    8.317044   -0.263543
     83          1           0        6.233641    7.536014    0.603747
     84          1           0        6.321575    7.667086   -1.125048
     85          1           0       10.779965    1.942866    0.384268
     86          1           0       10.836713   -0.784870   -0.537768
     87          1           0       11.150124    0.566464   -2.056342
     88          1           0       11.195475    2.371614   -1.891092
     89          1           0        9.732840    1.490075   -2.377588
     90          1           0       10.220788   -1.045309    2.224418
     91          1           0       11.276516    0.278878    2.210392
     92          1           0       12.985635   -0.929456    2.038816
     93          1           0       12.420394   -1.672608    0.467410
     94          1           0       11.942542   -2.405436    1.964737
     95          1           0        8.587566   -4.500642    0.969506
     96          1           0        7.679572   -5.184800   -0.450332
     97          1           0        7.262101   -5.531674    1.222887
     98          1           0        2.437778   -3.299486    1.260084
     99          1           0       -0.888672   -5.253716   -0.897459
    100          1           0        0.521060   -5.896772   -1.823149
    101          1           0       -0.137259   -4.258964   -2.111315
    102          1           0       -3.259055   -3.683500   -0.051704
    103          1           0       -3.316195   -3.057632   -1.654753
    104          1           0       -4.754672   -1.131225   -0.357968
    105          1           0       -4.881210   -4.711609    0.384038
    106          1           0       -6.603170   -4.757584   -0.291850
    107          1           0       -6.258869   -4.564931    1.454288
    108          1           0       -6.951102   -1.307282    1.226963
    109          1           0       -7.884232   -2.671069    0.897842
    110          1           0       -8.917220   -1.624470   -0.758050
    111          1           0       -7.398006   -1.613471   -1.664288
    112          1           0       -7.430363    0.618957   -1.572875
    113          1           0       -7.065947    0.634729    0.091446
    114          1           0       -9.623219    0.106856    0.447969
    115          1           0       -9.964395    0.006228   -2.192683
    116          1           0       -9.991189    1.731983   -2.169036
    117          1           0      -11.206367    0.757266   -1.310512
    118          1           0       -9.639937    2.935292   -0.314049
    119          1           0       -8.156226    2.668954    0.482746
    120          1           0       -9.080974    2.578681    2.525682
    121          1           0      -10.018551    1.161908    2.069937
    122          1           0      -11.101052    3.526347    0.854912
    123          1           0      -10.827123    3.755464    2.613818
    124          1           0      -12.058457    1.325988    2.536687
    125          1           0      -12.647300    4.040978    3.405196
    126          1           0      -12.939644    2.508497    4.297062
    127          1           0      -14.172705    3.044231    3.326471
    128          1           0      -12.481407    2.265841    0.002816
    129          1           0      -13.832964    2.974911    0.719229
    130          1           0      -14.056088    0.437373    1.744417
    131          1           0      -12.940065    0.146594    0.364137
    132          1           0      -15.239984    1.740060   -0.366951
    133          1           0      -15.834928    0.191139    0.408820
    134          1           0      -14.238189   -0.886554   -1.285496
    135          1           0      -13.809688    0.119816   -3.389190
    136          1           0      -13.236208    1.319621   -2.242610
    137          1           0      -14.775277    1.638258   -2.921671
    138          1           0      -16.845707    0.142306   -1.881411
    139          1           0      -16.205926   -1.536648   -1.514629
    140          1           0      -15.944116   -0.864180   -3.156425
 ---------------------------------------------------------------------

 SCF Done:  E(RPBE1PBE) =  -3005.35312304     A.U. after   16 cycles

 Excitation energies and oscillator strengths:

 Excited State   1:      Singlet-A      1.8698 eV  663.09 nm  f=0.3966  <S**2>=0.000
     245 -> 248        0.17567
     246 -> 247        0.69257
     246 <- 247       -0.10915
 This state for optimization and/or second-order correction.
 Total Energy, E(TD-HF/TD-DFT) =  -3005.28440893
 Copying the excited state density for this state as the 1-particle RhoCI density.

 Excited State   2:      Singlet-A      2.2480 eV  551.54 nm  f=0.1254  <S**2>=0.000
     245 -> 247        0.65634
     246 -> 248       -0.25667

 Excited State   3:      Singlet-A      2.9089 eV  426.23 nm  f=0.0004  <S**2>=0.000
     244 -> 247        0.67846
     244 -> 249       -0.15023

 Excited State   4:      Singlet-A      3.1290 eV  396.25 nm  f=0.0005  <S**2>=0.000
     242 -> 247        0.66582
     242 -> 249        0.19173

 Excited State   5:      Singlet-A      3.3325 eV  372.04 nm  f=0.0032  <S**2>=0.000
     241 -> 247        0.69275

 The electronic state is 1-A.
 Alpha  occ. eigenvalues --  -46.93009 -19.25505 -19.25237 -19.20270 -19.19386
 Alpha  occ. eigenvalues --  -19.19383 -19.18258 -14.41266 -14.40947 -14.39962
 Alpha  occ. eigenvalues --  -14.39098 -10.36925 -10.35945 -10.33098 -10.30674
 Alpha  occ. eigenvalues --  -10.29599 -10.29361 -10.28754 -10.28378 -10.28189
 Alpha  occ. eigenvalues --  -10.28082 -10.27519 -10.27478 -10.27215 -10.27117
 Alpha  occ. eigenvalues --  -10.26468 -10.26402 -10.26133 -10.26116 -10.25867
 Alpha  occ. eigenvalues --  -10.25724 -10.25442 -10.25194 -10.25072 -10.24965
 Alpha  occ. eigenvalues --  -10.24859 -10.24730 -10.24554 -10.24545 -10.24329
 Alpha  occ. eigenvalues --  -10.24041 -10.23903 -10.23648 -10.23639 -10.23513
 Alpha  occ. eigenvalues --  -10.23462 -10.23324 -10.23237 -10.23144 -10.23011
 Alpha  occ. eigenvalues --  -10.22954 -10.22891 -10.22828 -10.22701 -10.22689
 Alpha  occ. eigenvalues --  -10.22411 -10.22303 -10.22291 -10.22144 -10.21964
 Alpha  occ. eigenvalues --  -10.21953 -10.21930 -10.21875 -10.21545 -10.21539
 Alpha  occ. eigenvalues --  -10.21261  -3.15221  -1.88029  -1.87609  -1.87440
 Alpha  occ. eigenvalues --   -1.10993  -1.09574  -1.04668  -1.04541  -1.01759
 Alpha  occ. eigenvalues --   -1.01735  -1.01433  -1.00487  -0.99070  -0.98289
 Alpha  occ. eigenvalues --   -0.87972  -0.84634  -0.84588  -0.84376  -0.83904
 Alpha  occ. eigenvalues --   -0.82890  -0.82762  -0.81987  -0.81737  -0.81689
 Alpha  occ. eigenvalues --   -0.80573  -0.79703  -0.78562  -0.78218  -0.77494
 Alpha  occ. eigenvalues --   -0.76892  -0.76317  -0.75302  -0.75233  -0.74440
 Alpha  occ. eigenvalues --   -0.73884  -0.72723  -0.72401  -0.71946  -0.70586
 Alpha  occ. eigenvalues --   -0.69823  -0.69727  -0.69507  -0.69165  -0.68434
 Alpha  occ. eigenvalues --   -0.67760  -0.67393  -0.66103  -0.64973  -0.63654
 Alpha  occ. eigenvalues --   -0.63330  -0.62882  -0.62140  -0.61049  -0.60855
 Alpha  occ. eigenvalues --   -0.60240  -0.59857  -0.59004  -0.58819  -0.58626
 Alpha  occ. eigenvalues --   -0.57435  -0.57171  -0.56697  -0.56237  -0.55160
 Alpha  occ. eigenvalues --   -0.54748  -0.54625  -0.54148  -0.53711  -0.53248
 Alpha  occ. eigenvalues --   -0.52461  -0.51844  -0.50917  -0.50120  -0.49978
 Alpha  occ. eigenvalues --   -0.49264  -0.49194  -0.48936  -0.48806  -0.48443
 Alpha  occ. eigenvalues --   -0.48245  -0.48074  -0.47644  -0.47549  -0.47402
 Alpha  occ. eigenvalues --   -0.47067  -0.46941  -0.46911  -0.46615  -0.46484
 Alpha  occ. eigenvalues --   -0.46345  -0.45969  -0.45869  -0.45520  -0.45472
 Alpha  occ. eigenvalues --   -0.45226  -0.45006  -0.44791  -0.44502  -0.44372
 Alpha  occ. eigenvalues --   -0.44243  -0.43934  -0.43883  -0.43422  -0.43357
 Alpha  occ. eigenvalues --   -0.43137  -0.42847  -0.42718  -0.42638  -0.42524
 Alpha  occ. eigenvalues --   -0.42339  -0.42109  -0.42022  -0.41833  -0.41498
 Alpha  occ. eigenvalues --   -0.41170  -0.40891  -0.40745  -0.40637  -0.40581
 Alpha  occ. eigenvalues --   -0.40320  -0.40135  -0.40024  -0.39903  -0.39826
 Alpha  occ. eigenvalues --   -0.39589  -0.39158  -0.39047  -0.38987  -0.38818
 Alpha  occ. eigenvalues --   -0.38670  -0.38617  -0.38554  -0.38462  -0.38196
 Alpha  occ. eigenvalues --   -0.37730  -0.37676  -0.37437  -0.37001  -0.36802
 Alpha  occ. eigenvalues --   -0.36522  -0.36421  -0.36198  -0.36135  -0.36020
 Alpha  occ. eigenvalues --   -0.35950  -0.35893  -0.35497  -0.35187  -0.34981
 Alpha  occ. eigenvalues --   -0.34855  -0.34567  -0.34494  -0.34394  -0.34021
 Alpha  occ. eigenvalues --   -0.33656  -0.33407  -0.32788  -0.32766  -0.32345
 Alpha  occ. eigenvalues --   -0.31828  -0.31747  -0.31648  -0.31330  -0.31185
 Alpha  occ. eigenvalues --   -0.31134  -0.30879  -0.29639  -0.29343  -0.29007
 Alpha  occ. eigenvalues --   -0.28788  -0.28645  -0.28476  -0.26942  -0.26315
 Alpha  occ. eigenvalues --   -0.26170  -0.25938  -0.25499  -0.25144  -0.20864
 Alpha  occ. eigenvalues --   -0.18741
 Alpha virt. eigenvalues --   -0.11113  -0.04903  -0.03995  -0.02006  -0.01456
 Alpha virt. eigenvalues --   -0.00146   0.00652   0.01088   0.01599   0.03151
 Alpha virt. eigenvalues --    0.03886   0.04754   0.05094   0.05211   0.05723

 Mulliken charges:
               1
     1  Mg   0.982799
     2  C   -0.053481
     3  C   -0.049356
     4  C   -0.060631
     5  C   -0.079709
     6  N   -0.314390
     7  C    0.016256
     8  C   -0.067030
     9  C   -0.164892
    10  C    0.037375
    11  C    0.038818
    12  C   -0.046038
    13  C    0.028137
    14  C    0.240275
    15  O   -0.259900
    16  O   -0.403979
    17  N   -0.467029
    18  C    0.138414
    19  C   -0.137454
    20  C   -0.100590
    21  C    0.132172
    22  C    0.009632
    23  C    0.086101
    24  O   -0.238294
    25  C   -0.029295
    26  N   -0.364369
    27  C    0.101144
    28  C   -0.135193
    29  C   -0.095016
    30  C    0.012041
    31  C    0.022292
    32  C   -0.016986
    33  C   -0.063146
    34  N   -0.459852
    35  C    0.179140
    36  C   -0.193993
    37  C    0.005890
    38  C    0.178380
    39  C    0.078404
    40  C    0.091891
    41  O   -0.209635
    42  C   -0.146305
    43  C    0.280361
    44  O   -0.259878
    45  O   -0.356615
    46  C    0.128077
    47  C    0.242824
    48  C   -0.132587
    49  C   -0.208008
    50  C    0.027483
    51  C    0.015258
    52  C   -0.060260
    53  C   -0.016364
    54  C   -0.216057
    55  C   -0.023532
    56  C    0.008570
    57  C   -0.038259
    58  C   -0.005785
    59  C   -0.212828
    60  C    0.011343
    61  C   -0.027790
    62  C   -0.062537
    63  C    0.013272
    64  C   -0.261786
    65  C   -0.022392
    66  C   -0.007277
    67  H   -0.006096
    68  H    0.027377
    69  H   -0.000767
    70  H    0.059349
    71  H    0.041104
    72  H    0.049445
    73  H    0.063831
    74  H    0.042485
    75  H    0.033782
    76  H    0.080264
    77  H    0.056722
    78  H    0.067960
    79  H    0.043146
    80  H    0.048359
    81  H    0.063613
    82  H    0.051690
    83  H    0.058837
    84  H    0.045214
    85  H    0.037526
    86  H    0.044908
    87  H    0.035483
    88  H    0.059417
    89  H    0.049801
    90  H    0.044741
    91  H    0.032613
    92  H    0.051918
    93  H    0.035653
    94  H    0.042685
    95  H    0.035526
    96  H    0.064557
    97  H    0.055117
    98  H    0.089784
    99  H    0.053108
   100  H    0.065599
   101  H    0.054591
   102  H    0.057256
   103  H    0.058487
   104  H    0.025079
   105  H    0.026419
   106  H    0.059393
   107  H    0.055309
   108  H    0.046156
   109  H    0.012316
   110  H    0.039429
   111  H    0.033327
   112  H    0.022750
   113  H    0.030187
   114  H    0.038393
   115  H    0.023755
   116  H    0.039056
   117  H    0.044022
   118  H    0.023884
   119  H    0.023549
   120  H    0.027283
   121  H    0.026932
   122  H    0.030966
   123  H    0.011225
   124  H    0.029458
   125  H    0.039142
   126  H    0.030043
   127  H    0.030973
   128  H    0.019640
   129  H    0.020222
   130  H    0.031233
   131  H    0.035988
   132  H    0.024043
   133  H    0.027382
   134  H    0.021332
   135  H    0.043614
   136  H    0.027421
   137  H    0.033665
   138  H    0.040346
   139  H    0.036049
   140  H    0.037099
 Sum of Mulliken charges =  -0.00000

 Dipole moment (field-independent basis, Debye):
    X=             -2.1750    Y=              3.8259    Z=              0.4561  Tot=              4.4245
 Quadrupole moment (field-independent basis, Debye-Ang):
   XX=           -382.3051   YY=           -420.6322   ZZ=           -407.3863
   XY=             -2.4808   XZ=             12.1742   YZ=              4.3256

 Normal termination of Gaussian 16 at Thu May  5 10:26:24 2022.
