 Gaussian 16, Revision A.03,
 Gaussian 16:  ES64L-G16RevA.03 25-Dec-2016

 --------------------------------
 #p wB97XD/Def2SVP td=(nstates=5)
 --------------------------------

 ---------------------------------------------------
 step_801_chromophore_4 TDDFT with wB97XD functional
 ---------------------------------------------------
 Symbolic Z-matrix:
 Charge =  0 Multiplicity = 1

                         Standard orientation:
 ---------------------------------------------------------------------
 Center     Atomic      Atomic             Coordinates (Angstroms)
 Number     Number       Type             X           Y           Z
 ---------------------------------------------------------------------
      1         12           0        5.963964    0.560483    0.237296
      2          6           0        3.630470   -2.067045    0.018829
      3          6           0        3.412080    2.742964   -0.388319
      4          6           0        8.286412    2.862294   -0.151392
      5          6           0        8.510861   -1.885661    0.278597
      6          7           0        3.703652    0.301709   -0.515110
      7          6           0        2.955181   -0.782266   -0.193567
      8          6           0        1.447716   -0.430451   -0.223901
      9          6           0        1.463978    1.136776   -0.492493
     10          6           0        2.979276    1.426192   -0.416848
     11          6           0        0.823447    1.546589   -1.835979
     12          6           0        0.648491   -0.968982    0.996677
     13          6           0       -0.792216   -0.497067    1.052855
     14          6           0       -1.817748   -1.657410    0.904181
     15          8           0       -2.208372   -2.370704    1.821746
     16          8           0       -2.321550   -1.771180   -0.404548
     17          7           0        5.842132    2.591633   -0.151240
     18          6           0        4.733379    3.329101   -0.346883
     19          6           0        5.115138    4.755029   -0.367885
     20          6           0        6.554624    4.835861   -0.322027
     21          6           0        6.934486    3.354742   -0.235318
     22          6           0        3.973819    5.804885   -0.597176
     23          6           0        7.500002    6.052540   -0.323323
     24          8           0        8.727552    6.010252   -0.302073
     25          6           0        6.919300    7.451340   -0.239545
     26          7           0        8.066794    0.472216    0.219908
     27          6           0        8.731299    1.566085    0.093716
     28          6           0       10.188852    1.254542   -0.220466
     29          6           0       10.325503   -0.196443    0.223977
     30          6           0        8.919201   -0.574802    0.258881
     31          6           0       10.614907    1.462278   -1.738649
     32          6           0       10.966045   -0.563514    1.591527
     33          6           0       12.186815   -1.445736    1.507129
     34          7           0        6.070703   -1.439570    0.142056
     35          6           0        7.126547   -2.264033    0.336118
     36          6           0        6.708648   -3.606003    0.417370
     37          6           0        5.325196   -3.540114    0.408421
     38          6           0        5.006234   -2.202915    0.153530
     39          6           0        7.614251   -4.752269    0.547781
     40          6           0        4.193702   -4.330351    0.448784
     41          8           0        4.058935   -5.507511    0.705329
     42          6           0        2.974899   -3.369923    0.314578
     43          6           0        2.095494   -3.928801   -0.800629
     44          8           0        2.355938   -3.945849   -1.993417
     45          8           0        0.982231   -4.553431   -0.315951
     46          6           0        0.070242   -5.020166   -1.359018
     47          6           0       -3.434231   -2.764915   -0.611572
     48          6           0       -4.716474   -2.208962   -0.198640
     49          6           0       -5.832235   -2.821126    0.207383
     50          6           0       -5.908781   -4.351769    0.444936
     51          6           0       -7.121025   -2.042314    0.439249
     52          6           0       -7.875626   -1.302202   -0.735416
     53          6           0       -7.816724    0.275596   -0.612249
     54          6           0       -9.237586    0.830869   -0.270596
     55          6           0      -10.145275    0.857544   -1.536869
     56          6           0       -9.157382    2.249698    0.382989
     57          6           0       -9.774391    2.184191    1.782828
     58          6           0      -11.035813    3.033141    1.824492
     59          6           0      -12.328064    2.330051    2.208384
     60          6           0      -13.082616    3.043158    3.358109
     61          6           0      -13.132609    2.153106    0.869846
     62          6           0      -13.761837    0.753678    0.743421
     63          6           0      -15.046063    0.687481   -0.157470
     64          6           0      -14.841836   -0.008412   -1.513074
     65          6           0      -14.128568    0.815735   -2.613718
     66          6           0      -16.104882   -0.625106   -2.105336
     67          1           0        2.593407    3.454303   -0.514215
     68          1           0        9.063167    3.621290   -0.276093
     69          1           0        9.386140   -2.539037    0.297277
     70          1           0        1.095944   -0.908897   -1.137729
     71          1           0        1.075888    1.663734    0.378952
     72          1           0       -0.220487    1.389109   -1.566291
     73          1           0        1.189956    0.918192   -2.648210
     74          1           0        1.002515    2.600583   -2.051433
     75          1           0        1.166948   -0.656361    1.902808
     76          1           0        0.725974   -2.055855    1.015718
     77          1           0       -0.902282    0.123088    0.162870
     78          1           0       -0.873313    0.097989    1.962979
     79          1           0        3.050212    5.530935   -1.107472
     80          1           0        4.267534    6.510093   -1.374464
     81          1           0        3.651732    6.255834    0.341420
     82          1           0        7.580567    8.317044   -0.263543
     83          1           0        6.233641    7.536014    0.603747
     84          1           0        6.321575    7.667086   -1.125048
     85          1           0       10.779965    1.942866    0.384268
     86          1           0       10.836713   -0.784870   -0.537768
     87          1           0       11.150124    0.566464   -2.056342
     88          1           0       11.195475    2.371614   -1.891092
     89          1           0        9.732840    1.490075   -2.377588
     90          1           0       10.220788   -1.045309    2.224418
     91          1           0       11.276516    0.278878    2.210392
     92          1           0       12.985635   -0.929456    2.038816
     93          1           0       12.420394   -1.672608    0.467410
     94          1           0       11.942542   -2.405436    1.964737
     95          1           0        8.587566   -4.500642    0.969506
     96          1           0        7.679572   -5.184800   -0.450332
     97          1           0        7.262101   -5.531674    1.222887
     98          1           0        2.437778   -3.299486    1.260084
     99          1           0       -0.888672   -5.253716   -0.897459
    100          1           0        0.521060   -5.896772   -1.823149
    101          1           0       -0.137259   -4.258964   -2.111315
    102          1           0       -3.259055   -3.683500   -0.051704
    103          1           0       -3.316195   -3.057632   -1.654753
    104          1           0       -4.754672   -1.131225   -0.357968
    105          1           0       -4.881210   -4.711609    0.384038
    106          1           0       -6.603170   -4.757584   -0.291850
    107          1           0       -6.258869   -4.564931    1.454288
    108          1           0       -6.951102   -1.307282    1.226963
    109          1           0       -7.884232   -2.671069    0.897842
    110          1           0       -8.917220   -1.624470   -0.758050
    111          1           0       -7.398006   -1.613471   -1.664288
    112          1           0       -7.430363    0.618957   -1.572875
    113          1           0       -7.065947    0.634729    0.091446
    114          1           0       -9.623219    0.106856    0.447969
    115          1           0       -9.964395    0.006228   -2.192683
    116          1           0       -9.991189    1.731983   -2.169036
    117          1           0      -11.206367    0.757266   -1.310512
    118          1           0       -9.639937    2.935292   -0.314049
    119          1           0       -8.156226    2.668954    0.482746
    120          1           0       -9.080974    2.578681    2.525682
    121          1           0      -10.018551    1.161908    2.069937
    122          1           0      -11.101052    3.526347    0.854912
    123          1           0      -10.827123    3.755464    2.613818
    124          1           0      -12.058457    1.325988    2.536687
    125          1           0      -12.647300    4.040978    3.405196
    126          1           0      -12.939644    2.508497    4.297062
    127          1           0      -14.172705    3.044231    3.326471
    128          1           0      -12.481407    2.265841    0.002816
    129          1           0      -13.832964    2.974911    0.719229
    130          1           0      -14.056088    0.437373    1.744417
    131          1           0      -12.940065    0.146594    0.364137
    132          1           0      -15.239984    1.740060   -0.366951
    133          1           0      -15.834928    0.191139    0.408820
    134          1           0      -14.238189   -0.886554   -1.285496
    135          1           0      -13.809688    0.119816   -3.389190
    136          1           0      -13.236208    1.319621   -2.242610
    137          1           0      -14.775277    1.638258   -2.921671
    138          1           0      -16.845707    0.142306   -1.881411
    139          1           0      -16.205926   -1.536648   -1.514629
    140          1           0      -15.944116   -0.864180   -3.156425
 ---------------------------------------------------------------------

 SCF Done:  E(RwB97XD) =  -3007.86380771     A.U. after   18 cycles

 Excitation energies and oscillator strengths:

 Excited State   1:      Singlet-A      1.6514 eV  750.77 nm  f=0.4039  <S**2>=0.000
     245 -> 248        0.18784
     246 -> 247        0.68271
     245 <- 248        0.11932
 This state for optimization and/or second-order correction.
 Total Energy, E(TD-HF/TD-DFT) =  -3007.80311928
 Copying the excited state density for this state as the 1-particle RhoCI density.

 Excited State   2:      Singlet-A      2.1890 eV  566.39 nm  f=0.1281  <S**2>=0.000
     245 -> 247        0.64331
     246 -> 248       -0.28311

 Excited State   3:      Singlet-A      3.4729 eV  357.01 nm  f=0.0065  <S**2>=0.000
     243 -> 247       -0.24844
     243 -> 249        0.11930
     244 -> 247        0.51855
     244 -> 249       -0.25041
     244 -> 251        0.20333

 Excited State   4:      Singlet-A      3.6033 eV  344.08 nm  f=0.6132  <S**2>=0.000
     239 -> 247        0.16418
     241 -> 247        0.18982
     245 -> 247        0.25023
     246 -> 248        0.59486
     245 <- 247       -0.11150

 Excited State   5:      Singlet-A      3.6525 eV  339.45 nm  f=0.0122  <S**2>=0.000
     240 -> 247        0.51557
     240 -> 249        0.36867
     240 -> 250       -0.16176
     240 -> 251        0.13953

 The electronic state is 1-A.
 Alpha  occ. eigenvalues --  -46.95974 -19.30049 -19.29818 -19.24957 -19.24299
 Alpha  occ. eigenvalues --  -19.24101 -19.23012 -14.46398 -14.45996 -14.44959
 Alpha  occ. eigenvalues --  -14.44027 -10.43709 -10.42770 -10.40040 -10.37503
 Alpha  occ. eigenvalues --  -10.36097 -10.35593 -10.35202 -10.34881 -10.34616
 Alpha  occ. eigenvalues --  -10.34427 -10.34146 -10.33835 -10.33412 -10.33327
 Alpha  occ. eigenvalues --  -10.32960 -10.32649 -10.32414 -10.32377 -10.32208
 Alpha  occ. eigenvalues --  -10.32164 -10.31868 -10.31580 -10.31575 -10.31414
 Alpha  occ. eigenvalues --  -10.31218 -10.31059 -10.30913 -10.30740 -10.30705
 Alpha  occ. eigenvalues --  -10.30335 -10.30171 -10.30011 -10.29958 -10.29869
 Alpha  occ. eigenvalues --  -10.29810 -10.29806 -10.29684 -10.29610 -10.29339
 Alpha  occ. eigenvalues --  -10.29290 -10.29283 -10.29161 -10.29044 -10.28983
 Alpha  occ. eigenvalues --  -10.28782 -10.28747 -10.28681 -10.28480 -10.28406
 Alpha  occ. eigenvalues --  -10.28364 -10.28340 -10.28218 -10.27976 -10.27780
 Alpha  occ. eigenvalues --  -10.27598  -3.22049  -1.95607  -1.95187  -1.95011
 Alpha  occ. eigenvalues --   -1.18390  -1.16964  -1.12249  -1.11966  -1.09111
 Alpha  occ. eigenvalues --   -1.09108  -1.08747  -1.07769  -1.06479  -1.05680
 Alpha  occ. eigenvalues --   -0.95558  -0.92297  -0.92102  -0.92032  -0.91568
 Alpha  occ. eigenvalues --   -0.90555  -0.90328  -0.89550  -0.89376  -0.89309
 Alpha  occ. eigenvalues --   -0.88369  -0.87355  -0.86221  -0.85777  -0.85117
 Alpha  occ. eigenvalues --   -0.84543  -0.83977  -0.83092  -0.82889  -0.82091
 Alpha  occ. eigenvalues --   -0.81550  -0.80356  -0.80110  -0.79562  -0.78193
 Alpha  occ. eigenvalues --   -0.77454  -0.77373  -0.77199  -0.76849  -0.76094
 Alpha  occ. eigenvalues --   -0.75326  -0.74955  -0.73663  -0.72574  -0.71168
 Alpha  occ. eigenvalues --   -0.70818  -0.70514  -0.69767  -0.68675  -0.68310
 Alpha  occ. eigenvalues --   -0.67712  -0.67349  -0.66648  -0.66391  -0.66161
 Alpha  occ. eigenvalues --   -0.65048  -0.64678  -0.64105  -0.63888  -0.62635
 Alpha  occ. eigenvalues --   -0.62176  -0.62119  -0.61576  -0.61068  -0.60653
 Alpha  occ. eigenvalues --   -0.60010  -0.59303  -0.58354  -0.57544  -0.57432
 Alpha  occ. eigenvalues --   -0.56649  -0.56583  -0.56421  -0.56178  -0.55800
 Alpha  occ. eigenvalues --   -0.55674  -0.55491  -0.55050  -0.54861  -0.54735
 Alpha  occ. eigenvalues --   -0.54506  -0.54391  -0.54214  -0.54015  -0.54009
 Alpha  occ. eigenvalues --   -0.53753  -0.53312  -0.53180  -0.52859  -0.52803
 Alpha  occ. eigenvalues --   -0.52500  -0.52444  -0.52091  -0.51832  -0.51730
 Alpha  occ. eigenvalues --   -0.51593  -0.51331  -0.51208  -0.50745  -0.50688
 Alpha  occ. eigenvalues --   -0.50396  -0.50183  -0.50018  -0.49940  -0.49802
 Alpha  occ. eigenvalues --   -0.49583  -0.49367  -0.49253  -0.49080  -0.48685
 Alpha  occ. eigenvalues --   -0.48474  -0.48121  -0.48049  -0.47870  -0.47803
 Alpha  occ. eigenvalues --   -0.47535  -0.47352  -0.47168  -0.47115  -0.47002
 Alpha  occ. eigenvalues --   -0.46773  -0.46287  -0.46192  -0.46099  -0.45924
 Alpha  occ. eigenvalues --   -0.45892  -0.45691  -0.45680  -0.45593  -0.45284
 Alpha  occ. eigenvalues --   -0.44901  -0.44839  -0.44571  -0.44147  -0.43883
 Alpha  occ. eigenvalues --   -0.43690  -0.43619  -0.43242  -0.43183  -0.43064
 Alpha  occ. eigenvalues --   -0.42989  -0.42973  -0.42535  -0.42213  -0.42033
 Alpha  occ. eigenvalues --   -0.41825  -0.41569  -0.41555  -0.41453  -0.41062
 Alpha  occ. eigenvalues --   -0.40611  -0.40424  -0.39834  -0.39695  -0.39389
 Alpha  occ. eigenvalues --   -0.38861  -0.38780  -0.38698  -0.38298  -0.38168
 Alpha  occ. eigenvalues --   -0.38161  -0.37908  -0.36499  -0.36200  -0.35982
 Alpha  occ. eigenvalues --   -0.35715  -0.35682  -0.35327  -0.33601  -0.33208
 Alpha  occ. eigenvalues --   -0.32886  -0.32697  -0.32232  -0.32207  -0.25809
 Alpha  occ. eigenvalues --   -0.22918
 Alpha virt. eigenvalues --   -0.07017   0.00530   0.02261   0.04230   0.04702
 Alpha virt. eigenvalues --    0.06690   0.07347   0.07896   0.08342   0.09683
 Alpha virt. eigenvalues --    0.10399   0.11561   0.11751   0.11785   0.12420

 Mulliken charges:
               1
     1  Mg   0.977003
     2  C   -0.069767
     3  C   -0.062318
     4  C   -0.080198
     5  C   -0.105509
     6  N   -0.281968
     7  C   -0.019590
     8  C   -0.042570
     9  C   -0.137096
    10  C    0.024887
    11  C    0.050234
    12  C   -0.032353
    13  C    0.052991
    14  C    0.227961
    15  O   -0.257211
    16  O   -0.404066
    17  N   -0.433986
    18  C    0.129115
    19  C   -0.128513
    20  C   -0.097828
    21  C    0.125241
    22  C    0.020079
    23  C    0.086567
    24  O   -0.231827
    25  C   -0.019542
    26  N   -0.326548
    27  C    0.083699
    28  C   -0.111981
    29  C   -0.061226
    30  C    0.004846
    31  C    0.031873
    32  C   -0.008856
    33  C   -0.046396
    34  N   -0.417393
    35  C    0.173456
    36  C   -0.192633
    37  C    0.010158
    38  C    0.169349
    39  C    0.087078
    40  C    0.070619
    41  O   -0.199944
    42  C   -0.098146
    43  C    0.255354
    44  O   -0.254331
    45  O   -0.355074
    46  C    0.143785
    47  C    0.264804
    48  C   -0.147343
    49  C   -0.192806
    50  C    0.044275
    51  C    0.028642
    52  C   -0.042753
    53  C   -0.005044
    54  C   -0.178936
    55  C    0.002475
    56  C    0.020831
    57  C   -0.021894
    58  C    0.014430
    59  C   -0.183116
    60  C    0.022532
    61  C   -0.005594
    62  C   -0.041204
    63  C    0.028765
    64  C   -0.231154
    65  C   -0.003956
    66  C    0.005814
    67  H   -0.016263
    68  H    0.022268
    69  H   -0.007837
    70  H    0.047454
    71  H    0.030340
    72  H    0.042082
    73  H    0.059114
    74  H    0.036791
    75  H    0.026554
    76  H    0.064050
    77  H    0.041656
    78  H    0.064847
    79  H    0.040229
    80  H    0.042626
    81  H    0.060261
    82  H    0.051282
    83  H    0.053933
    84  H    0.039027
    85  H    0.028310
    86  H    0.029128
    87  H    0.029530
    88  H    0.054991
    89  H    0.043069
    90  H    0.035166
    91  H    0.025365
    92  H    0.046837
    93  H    0.028887
    94  H    0.036666
    95  H    0.029927
    96  H    0.059819
    97  H    0.051502
    98  H    0.084217
    99  H    0.049974
   100  H    0.061688
   101  H    0.049809
   102  H    0.047700
   103  H    0.055443
   104  H    0.020604
   105  H    0.019899
   106  H    0.053538
   107  H    0.050111
   108  H    0.037285
   109  H    0.005912
   110  H    0.030502
   111  H    0.024859
   112  H    0.014846
   113  H    0.020414
   114  H    0.020810
   115  H    0.017449
   116  H    0.033162
   117  H    0.021255
   118  H    0.012885
   119  H    0.017148
   120  H    0.021181
   121  H    0.015659
   122  H    0.019586
   123  H    0.001993
   124  H    0.014366
   125  H    0.032491
   126  H    0.024659
   127  H    0.025775
   128  H   -0.003007
   129  H    0.011750
   130  H    0.022355
   131  H    0.022856
   132  H    0.011610
   133  H    0.021413
   134  H    0.008133
   135  H    0.037978
   136  H    0.015459
   137  H    0.027391
   138  H    0.032984
   139  H    0.030146
   140  H    0.031908
 Sum of Mulliken charges =  -0.00000

 Dipole moment (field-independent basis, Debye):
    X=             -2.2992    Y=              4.1545    Z=              0.4445  Tot=              4.7691
 Quadrupole moment (field-independent basis, Debye-Ang):
   XX=           -383.7632   YY=           -418.4040   ZZ=           -407.0994
   XY=             -0.2573   XZ=             12.3203   YZ=              4.4265

 Normal termination of Gaussian 16 at Thu May  5 11:00:50 2022.
