 Gaussian 16, Revision A.03,
 Gaussian 16:  ES64L-G16RevA.03 25-Dec-2016

 --------------------
 #p ZINDO=(nstates=5)
 --------------------

 ----------------------------
 step_801_chromophore_4 ZINDO
 ----------------------------
 Symbolic Z-matrix:
 Charge =  0 Multiplicity = 1

                         Standard orientation:
 ---------------------------------------------------------------------
 Center     Atomic      Atomic             Coordinates (Angstroms)
 Number     Number       Type             X           Y           Z
 ---------------------------------------------------------------------
      1         12           0        5.963964    0.560483    0.237296
      2          6           0        3.630470   -2.067045    0.018829
      3          6           0        3.412080    2.742964   -0.388319
      4          6           0        8.286412    2.862294   -0.151392
      5          6           0        8.510861   -1.885661    0.278597
      6          7           0        3.703652    0.301709   -0.515110
      7          6           0        2.955181   -0.782266   -0.193567
      8          6           0        1.447716   -0.430451   -0.223901
      9          6           0        1.463978    1.136776   -0.492493
     10          6           0        2.979276    1.426192   -0.416848
     11          6           0        0.823447    1.546589   -1.835979
     12          6           0        0.648491   -0.968982    0.996677
     13          6           0       -0.792216   -0.497067    1.052855
     14          6           0       -1.817748   -1.657410    0.904181
     15          8           0       -2.208372   -2.370704    1.821746
     16          8           0       -2.321550   -1.771180   -0.404548
     17          7           0        5.842132    2.591633   -0.151240
     18          6           0        4.733379    3.329101   -0.346883
     19          6           0        5.115138    4.755029   -0.367885
     20          6           0        6.554624    4.835861   -0.322027
     21          6           0        6.934486    3.354742   -0.235318
     22          6           0        3.973819    5.804885   -0.597176
     23          6           0        7.500002    6.052540   -0.323323
     24          8           0        8.727552    6.010252   -0.302073
     25          6           0        6.919300    7.451340   -0.239545
     26          7           0        8.066794    0.472216    0.219908
     27          6           0        8.731299    1.566085    0.093716
     28          6           0       10.188852    1.254542   -0.220466
     29          6           0       10.325503   -0.196443    0.223977
     30          6           0        8.919201   -0.574802    0.258881
     31          6           0       10.614907    1.462278   -1.738649
     32          6           0       10.966045   -0.563514    1.591527
     33          6           0       12.186815   -1.445736    1.507129
     34          7           0        6.070703   -1.439570    0.142056
     35          6           0        7.126547   -2.264033    0.336118
     36          6           0        6.708648   -3.606003    0.417370
     37          6           0        5.325196   -3.540114    0.408421
     38          6           0        5.006234   -2.202915    0.153530
     39          6           0        7.614251   -4.752269    0.547781
     40          6           0        4.193702   -4.330351    0.448784
     41          8           0        4.058935   -5.507511    0.705329
     42          6           0        2.974899   -3.369923    0.314578
     43          6           0        2.095494   -3.928801   -0.800629
     44          8           0        2.355938   -3.945849   -1.993417
     45          8           0        0.982231   -4.553431   -0.315951
     46          6           0        0.070242   -5.020166   -1.359018
     47          6           0       -3.434231   -2.764915   -0.611572
     48          6           0       -4.716474   -2.208962   -0.198640
     49          6           0       -5.832235   -2.821126    0.207383
     50          6           0       -5.908781   -4.351769    0.444936
     51          6           0       -7.121025   -2.042314    0.439249
     52          6           0       -7.875626   -1.302202   -0.735416
     53          6           0       -7.816724    0.275596   -0.612249
     54          6           0       -9.237586    0.830869   -0.270596
     55          6           0      -10.145275    0.857544   -1.536869
     56          6           0       -9.157382    2.249698    0.382989
     57          6           0       -9.774391    2.184191    1.782828
     58          6           0      -11.035813    3.033141    1.824492
     59          6           0      -12.328064    2.330051    2.208384
     60          6           0      -13.082616    3.043158    3.358109
     61          6           0      -13.132609    2.153106    0.869846
     62          6           0      -13.761837    0.753678    0.743421
     63          6           0      -15.046063    0.687481   -0.157470
     64          6           0      -14.841836   -0.008412   -1.513074
     65          6           0      -14.128568    0.815735   -2.613718
     66          6           0      -16.104882   -0.625106   -2.105336
     67          1           0        2.593407    3.454303   -0.514215
     68          1           0        9.063167    3.621290   -0.276093
     69          1           0        9.386140   -2.539037    0.297277
     70          1           0        1.095944   -0.908897   -1.137729
     71          1           0        1.075888    1.663734    0.378952
     72          1           0       -0.220487    1.389109   -1.566291
     73          1           0        1.189956    0.918192   -2.648210
     74          1           0        1.002515    2.600583   -2.051433
     75          1           0        1.166948   -0.656361    1.902808
     76          1           0        0.725974   -2.055855    1.015718
     77          1           0       -0.902282    0.123088    0.162870
     78          1           0       -0.873313    0.097989    1.962979
     79          1           0        3.050212    5.530935   -1.107472
     80          1           0        4.267534    6.510093   -1.374464
     81          1           0        3.651732    6.255834    0.341420
     82          1           0        7.580567    8.317044   -0.263543
     83          1           0        6.233641    7.536014    0.603747
     84          1           0        6.321575    7.667086   -1.125048
     85          1           0       10.779965    1.942866    0.384268
     86          1           0       10.836713   -0.784870   -0.537768
     87          1           0       11.150124    0.566464   -2.056342
     88          1           0       11.195475    2.371614   -1.891092
     89          1           0        9.732840    1.490075   -2.377588
     90          1           0       10.220788   -1.045309    2.224418
     91          1           0       11.276516    0.278878    2.210392
     92          1           0       12.985635   -0.929456    2.038816
     93          1           0       12.420394   -1.672608    0.467410
     94          1           0       11.942542   -2.405436    1.964737
     95          1           0        8.587566   -4.500642    0.969506
     96          1           0        7.679572   -5.184800   -0.450332
     97          1           0        7.262101   -5.531674    1.222887
     98          1           0        2.437778   -3.299486    1.260084
     99          1           0       -0.888672   -5.253716   -0.897459
    100          1           0        0.521060   -5.896772   -1.823149
    101          1           0       -0.137259   -4.258964   -2.111315
    102          1           0       -3.259055   -3.683500   -0.051704
    103          1           0       -3.316195   -3.057632   -1.654753
    104          1           0       -4.754672   -1.131225   -0.357968
    105          1           0       -4.881210   -4.711609    0.384038
    106          1           0       -6.603170   -4.757584   -0.291850
    107          1           0       -6.258869   -4.564931    1.454288
    108          1           0       -6.951102   -1.307282    1.226963
    109          1           0       -7.884232   -2.671069    0.897842
    110          1           0       -8.917220   -1.624470   -0.758050
    111          1           0       -7.398006   -1.613471   -1.664288
    112          1           0       -7.430363    0.618957   -1.572875
    113          1           0       -7.065947    0.634729    0.091446
    114          1           0       -9.623219    0.106856    0.447969
    115          1           0       -9.964395    0.006228   -2.192683
    116          1           0       -9.991189    1.731983   -2.169036
    117          1           0      -11.206367    0.757266   -1.310512
    118          1           0       -9.639937    2.935292   -0.314049
    119          1           0       -8.156226    2.668954    0.482746
    120          1           0       -9.080974    2.578681    2.525682
    121          1           0      -10.018551    1.161908    2.069937
    122          1           0      -11.101052    3.526347    0.854912
    123          1           0      -10.827123    3.755464    2.613818
    124          1           0      -12.058457    1.325988    2.536687
    125          1           0      -12.647300    4.040978    3.405196
    126          1           0      -12.939644    2.508497    4.297062
    127          1           0      -14.172705    3.044231    3.326471
    128          1           0      -12.481407    2.265841    0.002816
    129          1           0      -13.832964    2.974911    0.719229
    130          1           0      -14.056088    0.437373    1.744417
    131          1           0      -12.940065    0.146594    0.364137
    132          1           0      -15.239984    1.740060   -0.366951
    133          1           0      -15.834928    0.191139    0.408820
    134          1           0      -14.238189   -0.886554   -1.285496
    135          1           0      -13.809688    0.119816   -3.389190
    136          1           0      -13.236208    1.319621   -2.242610
    137          1           0      -14.775277    1.638258   -2.921671
    138          1           0      -16.845707    0.142306   -1.881411
    139          1           0      -16.205926   -1.536648   -1.514629
    140          1           0      -15.944116   -0.864180   -3.156425
 ---------------------------------------------------------------------

 SCF Done:  E(RZINDO/S) =  -474.614847736     A.U. after   20 cycles

 Excitation energies and oscillator strengths:

 Excited State   1:      Singlet-A      1.2218 eV 1014.76 nm  f=0.6105  <S**2>=0.000
     175 ->178        -0.19697
     176 ->177         0.66094
 This state for optimization and/or second-order correction.
 Total Energy, E(CIS/TDA) =  -474.569947037
 Copying the excited state density for this state as the 1-particle RhoCI density.

 Excited State   2:      Singlet-A      1.8804 eV  659.34 nm  f=0.0737  <S**2>=0.000
     175 ->177         0.56675
     176 ->178         0.39557

 Excited State   3:      Singlet-A      2.8740 eV  431.40 nm  f=0.0100  <S**2>=0.000
     170 ->177         0.37148
     170 ->178         0.17725
     170 ->179         0.30142
     170 ->180         0.11140
     170 ->181         0.29504
     170 ->182        -0.11422
     170 ->185         0.18161
     170 ->187        -0.10656
     170 ->201        -0.12465

 Excited State   4:      Singlet-A      2.9451 eV  420.99 nm  f=0.0973  <S**2>=0.000
     175 ->177        -0.10844
     176 ->178         0.21081
     176 ->179         0.49075
     176 ->180         0.40252

 Excited State   5:      Singlet-A      2.9864 eV  415.16 nm  f=0.0403  <S**2>=0.000
     168 ->177         0.29193
     168 ->179        -0.41360
     168 ->180         0.17021
     168 ->181         0.24154
     168 ->185        -0.21880
     168 ->188         0.12042
     176 ->178        -0.10290

 The electronic state is 1-A.
 Alpha  occ. eigenvalues --   -1.90104  -1.85910  -1.80533  -1.73463  -1.73263
 Alpha  occ. eigenvalues --   -1.70027  -1.66759  -1.61377  -1.59717  -1.57891
 Alpha  occ. eigenvalues --   -1.55707  -1.51342  -1.49684  -1.48828  -1.47677
 Alpha  occ. eigenvalues --   -1.44584  -1.43109  -1.40134  -1.39550  -1.38157
 Alpha  occ. eigenvalues --   -1.36402  -1.35207  -1.33147  -1.31235  -1.29197
 Alpha  occ. eigenvalues --   -1.27042  -1.25278  -1.21798  -1.20358  -1.18588
 Alpha  occ. eigenvalues --   -1.17209  -1.16325  -1.14580  -1.13637  -1.13416
 Alpha  occ. eigenvalues --   -1.12010  -1.11404  -1.10765  -1.05411  -1.04051
 Alpha  occ. eigenvalues --   -1.02718  -1.01647  -0.99215  -0.98546  -0.96896
 Alpha  occ. eigenvalues --   -0.95730  -0.95303  -0.94279  -0.93403  -0.92223
 Alpha  occ. eigenvalues --   -0.91316  -0.90297  -0.88560  -0.87705  -0.87012
 Alpha  occ. eigenvalues --   -0.86728  -0.83543  -0.82981  -0.82624  -0.80181
 Alpha  occ. eigenvalues --   -0.79953  -0.79865  -0.77522  -0.77438  -0.76452
 Alpha  occ. eigenvalues --   -0.75641  -0.75583  -0.75233  -0.74664  -0.74162
 Alpha  occ. eigenvalues --   -0.73389  -0.72880  -0.71957  -0.71729  -0.71052
 Alpha  occ. eigenvalues --   -0.69543  -0.68909  -0.68561  -0.68099  -0.67553
 Alpha  occ. eigenvalues --   -0.67347  -0.67198  -0.66048  -0.65693  -0.65580
 Alpha  occ. eigenvalues --   -0.65416  -0.65030  -0.64591  -0.64222  -0.63646
 Alpha  occ. eigenvalues --   -0.63233  -0.63069  -0.62206  -0.61869  -0.61622
 Alpha  occ. eigenvalues --   -0.61270  -0.61018  -0.60768  -0.59912  -0.59307
 Alpha  occ. eigenvalues --   -0.59112  -0.59028  -0.58820  -0.58518  -0.58464
 Alpha  occ. eigenvalues --   -0.57871  -0.57637  -0.57088  -0.56666  -0.56502
 Alpha  occ. eigenvalues --   -0.56333  -0.55460  -0.55340  -0.55003  -0.54799
 Alpha  occ. eigenvalues --   -0.54601  -0.54526  -0.53514  -0.53318  -0.52856
 Alpha  occ. eigenvalues --   -0.52685  -0.52407  -0.52263  -0.51455  -0.51164
 Alpha  occ. eigenvalues --   -0.51015  -0.50726  -0.50589  -0.50253  -0.50182
 Alpha  occ. eigenvalues --   -0.49858  -0.49610  -0.49596  -0.49440  -0.49185
 Alpha  occ. eigenvalues --   -0.48919  -0.48703  -0.48283  -0.48148  -0.47947
 Alpha  occ. eigenvalues --   -0.47747  -0.47386  -0.47216  -0.47124  -0.46516
 Alpha  occ. eigenvalues --   -0.46174  -0.45943  -0.45769  -0.45564  -0.45259
 Alpha  occ. eigenvalues --   -0.45189  -0.45045  -0.44854  -0.44582  -0.43613
 Alpha  occ. eigenvalues --   -0.43345  -0.42655  -0.42261  -0.42089  -0.41841
 Alpha  occ. eigenvalues --   -0.41548  -0.41198  -0.40688  -0.39121  -0.38524
 Alpha  occ. eigenvalues --   -0.37925  -0.36742  -0.35747  -0.34649  -0.34087
 Alpha  occ. eigenvalues --   -0.33674  -0.32969  -0.32417  -0.32072  -0.26268
 Alpha  occ. eigenvalues --   -0.21709
 Alpha virt. eigenvalues --   -0.08572  -0.01844  -0.00544   0.00934   0.01459
 Alpha virt. eigenvalues --    0.01555   0.02923   0.03435   0.04834   0.05062
 Alpha virt. eigenvalues --    0.06038   0.06415   0.07192   0.07850   0.08428

 Mulliken charges:
               1
     1  Mg   0.444556
     2  C   -0.055395
     3  C   -0.093601
     4  C   -0.083099
     5  C   -0.087204
     6  N   -0.287786
     7  C    0.114143
     8  C    0.003410
     9  C   -0.002145
    10  C    0.134426
    11  C   -0.044750
    12  C   -0.017368
    13  C    0.008397
    14  C    0.465248
    15  O   -0.507739
    16  O   -0.289805
    17  N   -0.293323
    18  C    0.103604
    19  C    0.002060
    20  C   -0.052230
    21  C    0.129334
    22  C   -0.052206
    23  C    0.339270
    24  O   -0.515811
    25  C   -0.028478
    26  N   -0.257011
    27  C    0.148382
    28  C    0.002237
    29  C    0.006501
    30  C    0.125170
    31  C   -0.051527
    32  C   -0.028468
    33  C   -0.057733
    34  N   -0.305191
    35  C    0.090009
    36  C    0.039326
    37  C   -0.055283
    38  C    0.129908
    39  C   -0.037097
    40  C    0.336030
    41  O   -0.530258
    42  C    0.055930
    43  C    0.484448
    44  O   -0.525924
    45  O   -0.263859
    46  C    0.079846
    47  C    0.114108
    48  C   -0.067804
    49  C   -0.004079
    50  C   -0.047288
    51  C   -0.026681
    52  C   -0.036371
    53  C   -0.038076
    54  C   -0.010285
    55  C   -0.058456
    56  C   -0.036169
    57  C   -0.036050
    58  C   -0.038298
    59  C   -0.011221
    60  C   -0.059428
    61  C   -0.039503
    62  C   -0.042569
    63  C   -0.035619
    64  C   -0.016790
    65  C   -0.056560
    66  C   -0.063803
    67  H    0.018082
    68  H    0.045274
    69  H    0.036024
    70  H    0.038724
    71  H    0.027518
    72  H    0.020991
    73  H    0.038243
    74  H    0.024739
    75  H    0.021052
    76  H    0.033342
    77  H    0.032771
    78  H    0.048813
    79  H    0.026145
    80  H    0.022201
    81  H    0.033887
    82  H    0.040622
    83  H    0.031732
    84  H    0.026097
    85  H    0.023224
    86  H    0.030096
    87  H    0.019642
    88  H    0.030833
    89  H    0.023788
    90  H    0.019861
    91  H    0.017639
    92  H    0.025161
    93  H    0.021532
    94  H    0.017883
    95  H    0.020528
    96  H    0.039822
    97  H    0.029759
    98  H    0.058641
    99  H    0.027445
   100  H    0.049560
   101  H    0.040257
   102  H    0.050033
   103  H    0.041363
   104  H    0.021223
   105  H    0.027808
   106  H    0.033793
   107  H    0.029720
   108  H    0.023144
   109  H    0.009111
   110  H    0.024558
   111  H    0.017398
   112  H    0.013027
   113  H    0.021689
   114  H    0.027249
   115  H    0.009742
   116  H    0.021538
   117  H    0.019582
   118  H    0.021243
   119  H    0.015680
   120  H    0.014201
   121  H    0.023681
   122  H    0.025757
   123  H    0.008116
   124  H    0.020038
   125  H    0.025725
   126  H    0.013883
   127  H    0.020662
   128  H    0.013537
   129  H    0.018018
   130  H    0.016383
   131  H    0.023664
   132  H    0.021375
   133  H    0.022910
   134  H    0.007272
   135  H    0.023244
   136  H    0.010130
   137  H    0.022460
   138  H    0.027177
   139  H    0.018458
   140  H    0.025473
 Sum of Mulliken charges =  -0.00000

 Dipole moment (field-independent basis, Debye):
    X=             -3.3422    Y=              6.5313    Z=              0.5484  Tot=              7.3572
 N-N= 4.274619118760D+03 E-N= 0.000000000000D+00  KE=-9.223819650788D+03
 Leave Link  601 at Thu May  5 11:14:26 2022, MaxMem=  6710886400 cpu:               0.7 elap:               0.0
 (Enter /sw/apps/gaussian-16.0/g16/l9999.exe)
 1\1\GINC-BP1-COMPUTE069\SP\RZINDO CIS\STO-3G\C55H74Mg1N4O6\OF15641\05-
 May-2022\0\\#p ZINDO=(nstates=5)\\step_801_chromophore_4 ZINDO\\0,1\Mg
 ,0,9.443,3.866,28.157\C,0,10.641,2.44,31.145\C,0,7.851,6.228,30.042\C,
 0,7.888,4.746,25.391\C,0,10.666,1.017,26.466\N,0,8.976,4.086,30.497\C,
 0,9.82,3.617,31.449\C,0,9.648,4.411,32.767\C,0,8.62,5.551,32.352\C,0,8
 .505,5.296,30.833\C,0,7.269,5.474,33.095\C,0,10.99,4.825,33.435\C,0,10
 .83,5.734,34.639\C,0,11.314,5.078,35.964\O,0,12.475,5.066,36.358\O,0,1

 Normal termination of Gaussian 16 at Thu May  5 11:14:26 2022.
