 Gaussian 16, Revision A.03,
 Gaussian 16:  ES64L-G16RevA.03 25-Dec-2016

 ------------------------------
 #p blyp/Def2SVP td=(nstates=5)
 ------------------------------

 ---------------------------------------------------
 step_1451_chromophore_21 TDDFT with blyp functional
 ---------------------------------------------------
 Symbolic Z-matrix:
 Charge =  0 Multiplicity = 1

                         Standard orientation:
 ---------------------------------------------------------------------
 Center     Atomic      Atomic             Coordinates (Angstroms)
 Number     Number       Type             X           Y           Z
 ---------------------------------------------------------------------
      1         12           0       -5.177248    1.259856   -0.274261
      2          6           0       -4.779677   -2.268974   -0.411994
      3          6           0       -1.781303    1.521745    0.079831
      4          6           0       -5.496243    4.653882    0.166080
      5          6           0       -8.531071    0.828718   -0.059661
      6          7           0       -3.498520   -0.357829   -0.058230
      7          6           0       -3.532337   -1.645496   -0.362759
      8          6           0       -2.176530   -2.253374   -0.458386
      9          6           0       -1.193094   -1.041897   -0.312050
     10          6           0       -2.176257    0.115282   -0.059956
     11          6           0        0.010077   -1.172637    0.702885
     12          6           0       -2.063528   -3.104557   -1.758583
     13          6           0       -1.441594   -4.545036   -1.583182
     14          6           0       -0.500334   -4.753055   -0.365566
     15          8           0       -0.639931   -5.685376    0.419094
     16          8           0        0.694449   -4.024025   -0.418788
     17          7           0       -3.832899    2.878424   -0.031387
     18          6           0       -2.520267    2.734488    0.083935
     19          6           0       -1.875406    4.124157    0.194198
     20          6           0       -2.935919    5.068048    0.113199
     21          6           0       -4.169423    4.222164    0.082355
     22          6           0       -0.393264    4.259728    0.441670
     23          6           0       -2.911980    6.602758    0.171382
     24          8           0       -3.934555    7.244657    0.278530
     25          6           0       -1.620117    7.315580    0.005010
     26          7           0       -6.801932    2.625762    0.071003
     27          6           0       -6.716244    3.944873    0.255938
     28          6           0       -8.100882    4.599132    0.218046
     29          6           0       -9.066661    3.377834    0.112950
     30          6           0       -8.116236    2.199664    0.079620
     31          6           0       -8.416954    5.689919    1.296028
     32          6           0      -10.124758    3.404317   -1.038004
     33          6           0      -11.556366    2.821341   -0.887619
     34          7           0       -6.465768   -0.342951   -0.307171
     35          6           0       -7.786394   -0.368969   -0.109522
     36          6           0       -8.296809   -1.706168   -0.280275
     37          6           0       -7.129648   -2.518069   -0.324950
     38          6           0       -6.076697   -1.631975   -0.325363
     39          6           0       -9.623987   -2.213595   -0.049046
     40          6           0       -6.698232   -3.906133   -0.197857
     41          8           0       -7.372378   -4.932341    0.064831
     42          6           0       -5.099333   -3.801437   -0.353795
     43          6           0       -4.476258   -4.596905    0.805457
     44          8           0       -4.357522   -4.187669    1.961350
     45          8           0       -4.008926   -5.819502    0.379351
     46          6           0       -3.387510   -6.690796    1.436146
     47          6           0        1.788682   -4.435358    0.426117
     48          6           0        2.883696   -3.340161    0.345706
     49          6           0        3.689898   -2.708040    1.216300
     50          6           0        3.441162   -2.911011    2.743725
     51          6           0        4.721468   -1.676456    0.823514
     52          6           0        6.114927   -2.170127    0.374684
     53          6           0        6.521998   -1.689782   -0.954240
     54          6           0        7.791222   -0.818878   -1.033045
     55          6           0        7.847037   -0.046781   -2.381186
     56          6           0        9.113274   -1.596065   -0.890914
     57          6           0       10.351218   -0.913790   -0.189544
     58          6           0       11.501627   -0.546136   -1.243349
     59          6           0       12.145414    0.855895   -0.900684
     60          6           0       12.425007    1.563866   -2.206053
     61          6           0       13.539981    0.691710   -0.126654
     62          6           0       13.806770    1.994757    0.839322
     63          6           0       15.070536    2.760270    0.579998
     64          6           0       16.414447    1.966017    0.972670
     65          6           0       16.876446    2.655215    2.247461
     66          6           0       17.422124    2.161657   -0.200317
     67          1           0       -0.708695    1.505031    0.286923
     68          1           0       -5.524195    5.730446    0.347561
     69          1           0       -9.619654    0.827640   -0.147517
     70          1           0       -2.144175   -2.892419    0.423921
     71          1           0       -0.745179   -0.792583   -1.274054
     72          1           0        0.924115   -1.115696    0.112124
     73          1           0        0.022546   -2.068652    1.323251
     74          1           0        0.030098   -0.365572    1.435116
     75          1           0       -1.426639   -2.535310   -2.435982
     76          1           0       -3.009577   -3.261993   -2.276971
     77          1           0       -0.907468   -4.714360   -2.517899
     78          1           0       -2.200263   -5.316512   -1.713480
     79          1           0        0.183404    4.140583   -0.476010
     80          1           0       -0.060148    3.449578    1.090226
     81          1           0       -0.082803    5.212267    0.870639
     82          1           0       -0.979877    6.610726   -0.525954
     83          1           0       -1.214598    7.510116    0.997365
     84          1           0       -1.693964    8.301534   -0.454518
     85          1           0       -8.159807    5.116888   -0.738194
     86          1           0       -9.557732    3.295984    1.083166
     87          1           0       -9.310256    5.483251    1.885198
     88          1           0       -8.443698    6.711293    0.918486
     89          1           0       -7.653952    5.542140    2.059797
     90          1           0       -9.648264    2.797792   -1.807908
     91          1           0      -10.236224    4.441045   -1.355684
     92          1           0      -11.659098    2.205628   -1.781326
     93          1           0      -12.235373    3.668946   -0.984984
     94          1           0      -11.799717    2.325818    0.052004
     95          1           0      -10.262870   -1.399899   -0.391256
     96          1           0       -9.861074   -2.449413    0.988658
     97          1           0       -9.755960   -3.139450   -0.608629
     98          1           0       -4.907227   -4.238212   -1.333552
     99          1           0       -2.781130   -6.129888    2.147574
    100          1           0       -2.684416   -7.349377    0.927142
    101          1           0       -4.185102   -7.173679    2.000033
    102          1           0        2.307762   -5.287858   -0.011750
    103          1           0        1.529979   -4.608977    1.469896
    104          1           0        3.065298   -3.008119   -0.675614
    105          1           0        4.117509   -3.656618    3.162103
    106          1           0        2.445472   -3.348981    2.821899
    107          1           0        3.409130   -2.031338    3.385517
    108          1           0        4.782204   -1.013188    1.685664
    109          1           0        4.274558   -1.113362    0.003621
    110          1           0        6.064097   -3.256725    0.307958
    111          1           0        6.818695   -1.914387    1.167037
    112          1           0        5.737412   -1.119780   -1.449663
    113          1           0        6.615784   -2.522431   -1.650191
    114          1           0        7.823326   -0.084038   -0.228789
    115          1           0        8.861997    0.260704   -2.634230
    116          1           0        7.247990    0.856000   -2.264974
    117          1           0        7.562072   -0.691291   -3.212166
    118          1           0        9.430678   -1.866870   -1.897646
    119          1           0        8.967114   -2.555863   -0.395921
    120          1           0       10.716715   -1.396488    0.717184
    121          1           0       10.088267    0.100550    0.112192
    122          1           0       11.162420   -0.618986   -2.276268
    123          1           0       12.318780   -1.264105   -1.175158
    124          1           0       11.478404    1.572617   -0.422528
    125          1           0       13.356375    1.277173   -2.693172
    126          1           0       12.517575    2.637090   -2.036936
    127          1           0       11.523959    1.347396   -2.778984
    128          1           0       14.464561    0.530806   -0.682220
    129          1           0       13.483806   -0.116114    0.602300
    130          1           0       13.851791    1.667195    1.877433
    131          1           0       12.961666    2.676484    0.734604
    132          1           0       14.992355    3.733257    1.066124
    133          1           0       15.052119    3.062091   -0.467631
    134          1           0       16.221854    0.908202    1.149633
    135          1           0       16.249298    3.391073    2.751032
    136          1           0       17.792580    3.179522    1.973257
    137          1           0       16.966630    1.894642    3.023110
    138          1           0       18.357569    2.687876   -0.009908
    139          1           0       17.084479    2.742832   -1.059340
    140          1           0       17.634220    1.140081   -0.514105
 ---------------------------------------------------------------------

 SCF Done:  E(RB-LYP) =  -3007.36713532     A.U. after   21 cycles

 Excitation energies and oscillator strengths:

 Excited State   1:      Singlet-A      1.7793 eV  696.80 nm  f=0.2797  <S**2>=0.000
     245 -> 248       -0.18990
     245 -> 249       -0.10446
     246 -> 247        0.68138
     246 <- 247       -0.13723
 This state for optimization and/or second-order correction.
 Total Energy, E(TD-HF/TD-DFT) =  -3007.30174573
 Copying the excited state density for this state as the 1-particle RhoCI density.

 Excited State   2:      Singlet-A      1.9615 eV  632.10 nm  f=0.0543  <S**2>=0.000
     244 -> 247        0.15155
     245 -> 247        0.63563
     246 -> 248        0.22602
     246 -> 249        0.11570

 Excited State   3:      Singlet-A      2.1161 eV  585.91 nm  f=0.0039  <S**2>=0.000
     244 -> 247        0.68804
     245 -> 247       -0.12307

 Excited State   4:      Singlet-A      2.3176 eV  534.97 nm  f=0.0004  <S**2>=0.000
     243 -> 247        0.70583

 Excited State   5:      Singlet-A      2.5702 eV  482.39 nm  f=0.0082  <S**2>=0.000
     242 -> 247       -0.27882
     246 -> 248       -0.38142
     246 -> 249        0.49146

 The electronic state is 1-A.
 Alpha  occ. eigenvalues --  -46.27987 -18.82879 -18.81087 -18.77959 -18.76154
 Alpha  occ. eigenvalues --  -18.75706 -18.75672 -14.02751 -14.02694 -14.01497
 Alpha  occ. eigenvalues --  -14.00487 -10.05527 -10.03265 -10.00480  -9.99699
 Alpha  occ. eigenvalues --   -9.99248  -9.96918  -9.96294  -9.96031  -9.96029
 Alpha  occ. eigenvalues --   -9.96009  -9.95982  -9.95686  -9.94818  -9.94721
 Alpha  occ. eigenvalues --   -9.94570  -9.94343  -9.94132  -9.94057  -9.94031
 Alpha  occ. eigenvalues --   -9.93974  -9.93684  -9.93625  -9.93502  -9.93452
 Alpha  occ. eigenvalues --   -9.93353  -9.93203  -9.93199  -9.92751  -9.92550
 Alpha  occ. eigenvalues --   -9.92490  -9.92416  -9.92414  -9.92375  -9.92349
 Alpha  occ. eigenvalues --   -9.92316  -9.92312  -9.92261  -9.92213  -9.92104
 Alpha  occ. eigenvalues --   -9.92025  -9.91879  -9.91830  -9.91705  -9.91478
 Alpha  occ. eigenvalues --   -9.91422  -9.91374  -9.91308  -9.91198  -9.91061
 Alpha  occ. eigenvalues --   -9.91026  -9.90872  -9.90642  -9.90521  -9.90491
 Alpha  occ. eigenvalues --   -9.90091  -2.92438  -1.72868  -1.72327  -1.72145
 Alpha  occ. eigenvalues --   -0.98167  -0.95651  -0.92797  -0.90583  -0.89254
 Alpha  occ. eigenvalues --   -0.87843  -0.86986  -0.85915  -0.85738  -0.85067
 Alpha  occ. eigenvalues --   -0.74216  -0.74146  -0.72758  -0.72447  -0.71979
 Alpha  occ. eigenvalues --   -0.71878  -0.70924  -0.70861  -0.70499  -0.70228
 Alpha  occ. eigenvalues --   -0.69785  -0.68974  -0.68171  -0.67101  -0.66632
 Alpha  occ. eigenvalues --   -0.66285  -0.66094  -0.65382  -0.64817  -0.64292
 Alpha  occ. eigenvalues --   -0.63622  -0.62497  -0.62366  -0.61748  -0.60974
 Alpha  occ. eigenvalues --   -0.60236  -0.60000  -0.59555  -0.59252  -0.58785
 Alpha  occ. eigenvalues --   -0.58482  -0.56889  -0.56707  -0.55888  -0.54387
 Alpha  occ. eigenvalues --   -0.53898  -0.53611  -0.52764  -0.52505  -0.51685
 Alpha  occ. eigenvalues --   -0.51598  -0.50950  -0.50768  -0.50320  -0.50207
 Alpha  occ. eigenvalues --   -0.49798  -0.49438  -0.48870  -0.47314  -0.46698
 Alpha  occ. eigenvalues --   -0.46398  -0.45458  -0.45260  -0.44862  -0.44128
 Alpha  occ. eigenvalues --   -0.43809  -0.43357  -0.42964  -0.42849  -0.41919
 Alpha  occ. eigenvalues --   -0.41819  -0.41802  -0.41371  -0.41125  -0.40814
 Alpha  occ. eigenvalues --   -0.40525  -0.40314  -0.40235  -0.40132  -0.40000
 Alpha  occ. eigenvalues --   -0.39704  -0.39426  -0.39284  -0.39171  -0.38966
 Alpha  occ. eigenvalues --   -0.38807  -0.38594  -0.38538  -0.38210  -0.38034
 Alpha  occ. eigenvalues --   -0.37917  -0.37850  -0.37731  -0.37586  -0.37470
 Alpha  occ. eigenvalues --   -0.37060  -0.36923  -0.36827  -0.36650  -0.36602
 Alpha  occ. eigenvalues --   -0.36195  -0.35934  -0.35824  -0.35576  -0.35481
 Alpha  occ. eigenvalues --   -0.35218  -0.35152  -0.35087  -0.35060  -0.34878
 Alpha  occ. eigenvalues --   -0.34681  -0.34361  -0.34210  -0.33916  -0.33812
 Alpha  occ. eigenvalues --   -0.33607  -0.33489  -0.33433  -0.32962  -0.32890
 Alpha  occ. eigenvalues --   -0.32685  -0.32662  -0.32268  -0.32246  -0.31984
 Alpha  occ. eigenvalues --   -0.31856  -0.31842  -0.31603  -0.31487  -0.31361
 Alpha  occ. eigenvalues --   -0.31174  -0.31025  -0.30824  -0.30622  -0.30443
 Alpha  occ. eigenvalues --   -0.30199  -0.30009  -0.29940  -0.29744  -0.29672
 Alpha  occ. eigenvalues --   -0.29584  -0.29326  -0.29176  -0.29098  -0.28947
 Alpha  occ. eigenvalues --   -0.28837  -0.28667  -0.28433  -0.28394  -0.27903
 Alpha  occ. eigenvalues --   -0.27740  -0.27562  -0.27166  -0.27017  -0.26323
 Alpha  occ. eigenvalues --   -0.26289  -0.25922  -0.25739  -0.25597  -0.25266
 Alpha  occ. eigenvalues --   -0.25237  -0.24498  -0.23937  -0.23650  -0.23622
 Alpha  occ. eigenvalues --   -0.23424  -0.22587  -0.21641  -0.21149  -0.20902
 Alpha  occ. eigenvalues --   -0.20676  -0.19906  -0.19307  -0.18534  -0.16603
 Alpha  occ. eigenvalues --   -0.15239
 Alpha virt. eigenvalues --   -0.10893  -0.06870  -0.06436  -0.05025  -0.04682
 Alpha virt. eigenvalues --   -0.02624  -0.02507  -0.01861  -0.01254   0.00330
 Alpha virt. eigenvalues --    0.01504   0.01858   0.02434   0.02595   0.02894

 Mulliken charges:
               1
     1  Mg   0.697103
     2  C   -0.023083
     3  C   -0.065011
     4  C   -0.044349
     5  C   -0.064458
     6  N   -0.183634
     7  C   -0.124947
     8  C    0.058170
     9  C    0.019491
    10  C   -0.048782
    11  C    0.128931
    12  C    0.111919
    13  C    0.123805
    14  C    0.120083
    15  O   -0.186655
    16  O   -0.292395
    17  N   -0.254020
    18  C    0.159477
    19  C   -0.146539
    20  C    0.027620
    21  C    0.053952
    22  C    0.167303
    23  C   -0.071971
    24  O   -0.145197
    25  C    0.139760
    26  N   -0.217056
    27  C    0.030141
    28  C   -0.021660
    29  C    0.094710
    30  C   -0.059754
    31  C    0.138605
    32  C    0.054073
    33  C    0.082435
    34  N   -0.245656
    35  C    0.162418
    36  C   -0.187425
    37  C    0.084073
    38  C    0.091981
    39  C    0.163181
    40  C   -0.028866
    41  O   -0.164786
    42  C    0.042629
    43  C    0.140155
    44  O   -0.199730
    45  O   -0.285273
    46  C    0.225089
    47  C    0.359801
    48  C   -0.124937
    49  C   -0.171104
    50  C    0.109635
    51  C    0.145461
    52  C    0.147965
    53  C    0.105325
    54  C   -0.060806
    55  C    0.097639
    56  C    0.095059
    57  C    0.080960
    58  C    0.085421
    59  C   -0.083637
    60  C    0.097755
    61  C    0.100719
    62  C    0.048227
    63  C    0.082408
    64  C   -0.094002
    65  C    0.116605
    66  C    0.094191
    67  H   -0.069977
    68  H   -0.044721
    69  H   -0.072314
    70  H    0.011328
    71  H   -0.017831
    72  H    0.000511
    73  H   -0.006051
    74  H   -0.015312
    75  H   -0.028677
    76  H   -0.009931
    77  H   -0.012321
    78  H    0.003597
    79  H   -0.000408
    80  H    0.005878
    81  H   -0.011955
    82  H    0.001015
    83  H    0.016259
    84  H    0.003558
    85  H   -0.017038
    86  H   -0.033516
    87  H   -0.021436
    88  H    0.008426
    89  H   -0.011991
    90  H   -0.013592
    91  H   -0.014406
    92  H   -0.002264
    93  H   -0.013407
    94  H    0.008096
    95  H   -0.017236
    96  H    0.014964
    97  H    0.004882
    98  H   -0.002752
    99  H    0.014268
   100  H    0.022293
   101  H    0.016334
   102  H    0.004168
   103  H   -0.002552
   104  H   -0.044837
   105  H    0.001622
   106  H   -0.022394
   107  H   -0.000740
   108  H   -0.039269
   109  H   -0.024372
   110  H   -0.031401
   111  H   -0.023762
   112  H   -0.046257
   113  H   -0.042519
   114  H   -0.045402
   115  H   -0.022377
   116  H   -0.012619
   117  H   -0.014215
   118  H   -0.040589
   119  H   -0.046173
   120  H   -0.018641
   121  H   -0.038493
   122  H   -0.027857
   123  H   -0.035035
   124  H   -0.020434
   125  H   -0.016268
   126  H   -0.024371
   127  H   -0.017018
   128  H   -0.019517
   129  H   -0.036934
   130  H   -0.040103
   131  H   -0.034802
   132  H   -0.037340
   133  H   -0.044874
   134  H   -0.018103
   135  H   -0.013691
   136  H   -0.018176
   137  H   -0.022371
   138  H   -0.018741
   139  H   -0.014880
   140  H   -0.011479
 Sum of Mulliken charges =  -0.00000

 Dipole moment (field-independent basis, Debye):
    X=              5.3558    Y=              3.3755    Z=             -2.4575  Tot=              6.7910
 Quadrupole moment (field-independent basis, Debye-Ang):
   XX=           -402.5257   YY=           -430.0767   ZZ=           -403.6102
   XY=            -34.2903   XZ=             16.3076   YZ=              7.0962

 Normal termination of Gaussian 16 at Wed May  4 07:46:39 2022.
