 Gaussian 16, Revision A.03,
 Gaussian 16:  ES64L-G16RevA.03 25-Dec-2016

 -----------------------------------
 #p cam-b3lyp/Def2SVP td=(nstates=5)
 -----------------------------------

 --------------------------------------------------------
 step_1451_chromophore_21 TDDFT with cam-b3lyp functional
 --------------------------------------------------------
 Symbolic Z-matrix:
 Charge =  0 Multiplicity = 1

                         Standard orientation:
 ---------------------------------------------------------------------
 Center     Atomic      Atomic             Coordinates (Angstroms)
 Number     Number       Type             X           Y           Z
 ---------------------------------------------------------------------
      1         12           0       -5.177248    1.259856   -0.274261
      2          6           0       -4.779677   -2.268974   -0.411994
      3          6           0       -1.781303    1.521745    0.079831
      4          6           0       -5.496243    4.653882    0.166080
      5          6           0       -8.531071    0.828718   -0.059661
      6          7           0       -3.498520   -0.357829   -0.058230
      7          6           0       -3.532337   -1.645496   -0.362759
      8          6           0       -2.176530   -2.253374   -0.458386
      9          6           0       -1.193094   -1.041897   -0.312050
     10          6           0       -2.176257    0.115282   -0.059956
     11          6           0        0.010077   -1.172637    0.702885
     12          6           0       -2.063528   -3.104557   -1.758583
     13          6           0       -1.441594   -4.545036   -1.583182
     14          6           0       -0.500334   -4.753055   -0.365566
     15          8           0       -0.639931   -5.685376    0.419094
     16          8           0        0.694449   -4.024025   -0.418788
     17          7           0       -3.832899    2.878424   -0.031387
     18          6           0       -2.520267    2.734488    0.083935
     19          6           0       -1.875406    4.124157    0.194198
     20          6           0       -2.935919    5.068048    0.113199
     21          6           0       -4.169423    4.222164    0.082355
     22          6           0       -0.393264    4.259728    0.441670
     23          6           0       -2.911980    6.602758    0.171382
     24          8           0       -3.934555    7.244657    0.278530
     25          6           0       -1.620117    7.315580    0.005010
     26          7           0       -6.801932    2.625762    0.071003
     27          6           0       -6.716244    3.944873    0.255938
     28          6           0       -8.100882    4.599132    0.218046
     29          6           0       -9.066661    3.377834    0.112950
     30          6           0       -8.116236    2.199664    0.079620
     31          6           0       -8.416954    5.689919    1.296028
     32          6           0      -10.124758    3.404317   -1.038004
     33          6           0      -11.556366    2.821341   -0.887619
     34          7           0       -6.465768   -0.342951   -0.307171
     35          6           0       -7.786394   -0.368969   -0.109522
     36          6           0       -8.296809   -1.706168   -0.280275
     37          6           0       -7.129648   -2.518069   -0.324950
     38          6           0       -6.076697   -1.631975   -0.325363
     39          6           0       -9.623987   -2.213595   -0.049046
     40          6           0       -6.698232   -3.906133   -0.197857
     41          8           0       -7.372378   -4.932341    0.064831
     42          6           0       -5.099333   -3.801437   -0.353795
     43          6           0       -4.476258   -4.596905    0.805457
     44          8           0       -4.357522   -4.187669    1.961350
     45          8           0       -4.008926   -5.819502    0.379351
     46          6           0       -3.387510   -6.690796    1.436146
     47          6           0        1.788682   -4.435358    0.426117
     48          6           0        2.883696   -3.340161    0.345706
     49          6           0        3.689898   -2.708040    1.216300
     50          6           0        3.441162   -2.911011    2.743725
     51          6           0        4.721468   -1.676456    0.823514
     52          6           0        6.114927   -2.170127    0.374684
     53          6           0        6.521998   -1.689782   -0.954240
     54          6           0        7.791222   -0.818878   -1.033045
     55          6           0        7.847037   -0.046781   -2.381186
     56          6           0        9.113274   -1.596065   -0.890914
     57          6           0       10.351218   -0.913790   -0.189544
     58          6           0       11.501627   -0.546136   -1.243349
     59          6           0       12.145414    0.855895   -0.900684
     60          6           0       12.425007    1.563866   -2.206053
     61          6           0       13.539981    0.691710   -0.126654
     62          6           0       13.806770    1.994757    0.839322
     63          6           0       15.070536    2.760270    0.579998
     64          6           0       16.414447    1.966017    0.972670
     65          6           0       16.876446    2.655215    2.247461
     66          6           0       17.422124    2.161657   -0.200317
     67          1           0       -0.708695    1.505031    0.286923
     68          1           0       -5.524195    5.730446    0.347561
     69          1           0       -9.619654    0.827640   -0.147517
     70          1           0       -2.144175   -2.892419    0.423921
     71          1           0       -0.745179   -0.792583   -1.274054
     72          1           0        0.924115   -1.115696    0.112124
     73          1           0        0.022546   -2.068652    1.323251
     74          1           0        0.030098   -0.365572    1.435116
     75          1           0       -1.426639   -2.535310   -2.435982
     76          1           0       -3.009577   -3.261993   -2.276971
     77          1           0       -0.907468   -4.714360   -2.517899
     78          1           0       -2.200263   -5.316512   -1.713480
     79          1           0        0.183404    4.140583   -0.476010
     80          1           0       -0.060148    3.449578    1.090226
     81          1           0       -0.082803    5.212267    0.870639
     82          1           0       -0.979877    6.610726   -0.525954
     83          1           0       -1.214598    7.510116    0.997365
     84          1           0       -1.693964    8.301534   -0.454518
     85          1           0       -8.159807    5.116888   -0.738194
     86          1           0       -9.557732    3.295984    1.083166
     87          1           0       -9.310256    5.483251    1.885198
     88          1           0       -8.443698    6.711293    0.918486
     89          1           0       -7.653952    5.542140    2.059797
     90          1           0       -9.648264    2.797792   -1.807908
     91          1           0      -10.236224    4.441045   -1.355684
     92          1           0      -11.659098    2.205628   -1.781326
     93          1           0      -12.235373    3.668946   -0.984984
     94          1           0      -11.799717    2.325818    0.052004
     95          1           0      -10.262870   -1.399899   -0.391256
     96          1           0       -9.861074   -2.449413    0.988658
     97          1           0       -9.755960   -3.139450   -0.608629
     98          1           0       -4.907227   -4.238212   -1.333552
     99          1           0       -2.781130   -6.129888    2.147574
    100          1           0       -2.684416   -7.349377    0.927142
    101          1           0       -4.185102   -7.173679    2.000033
    102          1           0        2.307762   -5.287858   -0.011750
    103          1           0        1.529979   -4.608977    1.469896
    104          1           0        3.065298   -3.008119   -0.675614
    105          1           0        4.117509   -3.656618    3.162103
    106          1           0        2.445472   -3.348981    2.821899
    107          1           0        3.409130   -2.031338    3.385517
    108          1           0        4.782204   -1.013188    1.685664
    109          1           0        4.274558   -1.113362    0.003621
    110          1           0        6.064097   -3.256725    0.307958
    111          1           0        6.818695   -1.914387    1.167037
    112          1           0        5.737412   -1.119780   -1.449663
    113          1           0        6.615784   -2.522431   -1.650191
    114          1           0        7.823326   -0.084038   -0.228789
    115          1           0        8.861997    0.260704   -2.634230
    116          1           0        7.247990    0.856000   -2.264974
    117          1           0        7.562072   -0.691291   -3.212166
    118          1           0        9.430678   -1.866870   -1.897646
    119          1           0        8.967114   -2.555863   -0.395921
    120          1           0       10.716715   -1.396488    0.717184
    121          1           0       10.088267    0.100550    0.112192
    122          1           0       11.162420   -0.618986   -2.276268
    123          1           0       12.318780   -1.264105   -1.175158
    124          1           0       11.478404    1.572617   -0.422528
    125          1           0       13.356375    1.277173   -2.693172
    126          1           0       12.517575    2.637090   -2.036936
    127          1           0       11.523959    1.347396   -2.778984
    128          1           0       14.464561    0.530806   -0.682220
    129          1           0       13.483806   -0.116114    0.602300
    130          1           0       13.851791    1.667195    1.877433
    131          1           0       12.961666    2.676484    0.734604
    132          1           0       14.992355    3.733257    1.066124
    133          1           0       15.052119    3.062091   -0.467631
    134          1           0       16.221854    0.908202    1.149633
    135          1           0       16.249298    3.391073    2.751032
    136          1           0       17.792580    3.179522    1.973257
    137          1           0       16.966630    1.894642    3.023110
    138          1           0       18.357569    2.687876   -0.009908
    139          1           0       17.084479    2.742832   -1.059340
    140          1           0       17.634220    1.140081   -0.514105
 ---------------------------------------------------------------------

 SCF Done:  E(RCAM-B3LYP) =  -3007.15079734     A.U. after   19 cycles

 Excitation energies and oscillator strengths:

 Excited State   1:      Singlet-A      1.7595 eV  704.64 nm  f=0.3521  <S**2>=0.000
     245 -> 248       -0.19499
     246 -> 247        0.68063
     245 <- 248       -0.10751
 This state for optimization and/or second-order correction.
 Total Energy, E(TD-HF/TD-DFT) =  -3007.08613527
 Copying the excited state density for this state as the 1-particle RhoCI density.

 Excited State   2:      Singlet-A      2.2249 eV  557.26 nm  f=0.0763  <S**2>=0.000
     245 -> 247        0.62211
     246 -> 248        0.32440

 Excited State   3:      Singlet-A      3.4246 eV  362.04 nm  f=0.7503  <S**2>=0.000
     245 -> 247       -0.31614
     246 -> 248        0.61218
     245 <- 247        0.10884

 Excited State   4:      Singlet-A      3.5825 eV  346.08 nm  f=0.0498  <S**2>=0.000
     242 -> 250        0.10505
     243 -> 247       -0.23597
     244 -> 247        0.61668

 Excited State   5:      Singlet-A      3.6627 eV  338.51 nm  f=0.0027  <S**2>=0.000
     242 -> 247        0.48904
     242 -> 249       -0.26239
     242 -> 250        0.27289
     244 -> 247       -0.21803

 The electronic state is 1-A.
 Alpha  occ. eigenvalues --  -46.89588 -19.25756 -19.23841 -19.20996 -19.19792
 Alpha  occ. eigenvalues --  -19.18582 -19.18519 -14.41710 -14.41484 -14.40210
 Alpha  occ. eigenvalues --  -14.38596 -10.40905 -10.38609 -10.36043 -10.34851
 Alpha  occ. eigenvalues --  -10.33303 -10.31904 -10.31283 -10.30878 -10.30786
 Alpha  occ. eigenvalues --  -10.30129 -10.30067 -10.29920 -10.29838 -10.28677
 Alpha  occ. eigenvalues --  -10.28508 -10.28414 -10.28336 -10.28305 -10.28018
 Alpha  occ. eigenvalues --  -10.27917 -10.27893 -10.27838 -10.27740 -10.27629
 Alpha  occ. eigenvalues --  -10.27395 -10.27230 -10.27135 -10.26747 -10.26540
 Alpha  occ. eigenvalues --  -10.26376 -10.26358 -10.26313 -10.26141 -10.26118
 Alpha  occ. eigenvalues --  -10.26086 -10.26084 -10.26067 -10.26047 -10.25785
 Alpha  occ. eigenvalues --  -10.25710 -10.25639 -10.25583 -10.25527 -10.25493
 Alpha  occ. eigenvalues --  -10.25257 -10.25028 -10.24970 -10.24909 -10.24805
 Alpha  occ. eigenvalues --  -10.24499 -10.24348 -10.24310 -10.24113 -10.24106
 Alpha  occ. eigenvalues --  -10.23646  -3.17936  -1.92845  -1.92387  -1.92235
 Alpha  occ. eigenvalues --   -1.16584  -1.13977  -1.11643  -1.08427  -1.07226
 Alpha  occ. eigenvalues --   -1.05551  -1.04416  -1.03701  -1.03408  -1.02756
 Alpha  occ. eigenvalues --   -0.91070  -0.91024  -0.89513  -0.89206  -0.88706
 Alpha  occ. eigenvalues --   -0.88528  -0.87734  -0.87526  -0.87470  -0.86774
 Alpha  occ. eigenvalues --   -0.86081  -0.85273  -0.84497  -0.83227  -0.82886
 Alpha  occ. eigenvalues --   -0.82611  -0.82180  -0.81289  -0.80712  -0.80088
 Alpha  occ. eigenvalues --   -0.79293  -0.78448  -0.77885  -0.77219  -0.76382
 Alpha  occ. eigenvalues --   -0.75624  -0.75244  -0.74807  -0.74556  -0.73950
 Alpha  occ. eigenvalues --   -0.73594  -0.71785  -0.71605  -0.70727  -0.68945
 Alpha  occ. eigenvalues --   -0.68451  -0.68202  -0.67427  -0.66902  -0.65954
 Alpha  occ. eigenvalues --   -0.65901  -0.64966  -0.64634  -0.64333  -0.64152
 Alpha  occ. eigenvalues --   -0.63706  -0.63425  -0.62785  -0.60863  -0.60299
 Alpha  occ. eigenvalues --   -0.60245  -0.58896  -0.58604  -0.58158  -0.57515
 Alpha  occ. eigenvalues --   -0.57025  -0.56726  -0.56373  -0.56111  -0.55012
 Alpha  occ. eigenvalues --   -0.54822  -0.54685  -0.54477  -0.54165  -0.53634
 Alpha  occ. eigenvalues --   -0.53300  -0.53164  -0.52902  -0.52836  -0.52820
 Alpha  occ. eigenvalues --   -0.52576  -0.52342  -0.51867  -0.51829  -0.51701
 Alpha  occ. eigenvalues --   -0.51381  -0.51334  -0.50957  -0.50818  -0.50513
 Alpha  occ. eigenvalues --   -0.50262  -0.50180  -0.50114  -0.49987  -0.49886
 Alpha  occ. eigenvalues --   -0.49482  -0.49193  -0.49146  -0.48988  -0.48679
 Alpha  occ. eigenvalues --   -0.48641  -0.48133  -0.47860  -0.47793  -0.47636
 Alpha  occ. eigenvalues --   -0.47501  -0.47311  -0.47017  -0.46937  -0.46910
 Alpha  occ. eigenvalues --   -0.46658  -0.46192  -0.46075  -0.45782  -0.45672
 Alpha  occ. eigenvalues --   -0.45391  -0.45229  -0.45118  -0.44912  -0.44653
 Alpha  occ. eigenvalues --   -0.44544  -0.44236  -0.44058  -0.43875  -0.43587
 Alpha  occ. eigenvalues --   -0.43507  -0.43456  -0.43073  -0.43002  -0.42813
 Alpha  occ. eigenvalues --   -0.42778  -0.42748  -0.42627  -0.42147  -0.41881
 Alpha  occ. eigenvalues --   -0.41381  -0.41175  -0.41134  -0.40959  -0.40808
 Alpha  occ. eigenvalues --   -0.40803  -0.40652  -0.40451  -0.40338  -0.40181
 Alpha  occ. eigenvalues --   -0.40088  -0.39743  -0.39620  -0.39384  -0.38957
 Alpha  occ. eigenvalues --   -0.38631  -0.38439  -0.37940  -0.37883  -0.37611
 Alpha  occ. eigenvalues --   -0.37392  -0.36972  -0.36367  -0.36343  -0.36064
 Alpha  occ. eigenvalues --   -0.35911  -0.35299  -0.34964  -0.34718  -0.34416
 Alpha  occ. eigenvalues --   -0.34027  -0.33357  -0.32771  -0.31970  -0.31162
 Alpha  occ. eigenvalues --   -0.30838  -0.30204  -0.29931  -0.28774  -0.23316
 Alpha  occ. eigenvalues --   -0.20536
 Alpha virt. eigenvalues --   -0.07760  -0.01785  -0.00078   0.02171   0.02457
 Alpha virt. eigenvalues --    0.02903   0.04807   0.05962   0.06107   0.06806
 Alpha virt. eigenvalues --    0.07925   0.08475   0.08704   0.09059   0.09428

 Mulliken charges:
               1
     1  Mg   0.828191
     2  C   -0.038149
     3  C   -0.090185
     4  C   -0.063541
     5  C   -0.067769
     6  N   -0.253051
     7  C   -0.081609
     8  C   -0.004124
     9  C   -0.032259
    10  C   -0.015016
    11  C    0.074652
    12  C    0.065437
    13  C    0.057377
    14  C    0.191583
    15  O   -0.226254
    16  O   -0.355332
    17  N   -0.344171
    18  C    0.177212
    19  C   -0.147928
    20  C   -0.037782
    21  C    0.080877
    22  C    0.103651
    23  C    0.013991
    24  O   -0.184572
    25  C    0.054702
    26  N   -0.288271
    27  C    0.055975
    28  C   -0.075076
    29  C    0.038054
    30  C   -0.040626
    31  C    0.075691
    32  C   -0.001069
    33  C    0.015973
    34  N   -0.335201
    35  C    0.158396
    36  C   -0.177570
    37  C    0.001900
    38  C    0.124013
    39  C    0.108258
    40  C    0.070152
    41  O   -0.206312
    42  C   -0.027117
    43  C    0.221014
    44  O   -0.237042
    45  O   -0.349352
    46  C    0.186540
    47  C    0.328606
    48  C   -0.148544
    49  C   -0.194166
    50  C    0.053021
    51  C    0.090614
    52  C    0.084982
    53  C    0.049493
    54  C   -0.115426
    55  C    0.042158
    56  C    0.037873
    57  C    0.031300
    58  C    0.031523
    59  C   -0.140829
    60  C    0.045580
    61  C    0.045935
    62  C    0.000497
    63  C    0.033974
    64  C   -0.159250
    65  C    0.058810
    66  C    0.036943
    67  H   -0.036978
    68  H   -0.003922
    69  H   -0.038870
    70  H    0.042245
    71  H    0.017348
    72  H    0.023478
    73  H    0.016151
    74  H    0.009471
    75  H    0.002343
    76  H    0.021198
    77  H    0.022467
    78  H    0.037100
    79  H    0.030370
    80  H    0.034298
    81  H    0.017456
    82  H    0.028359
    83  H    0.045335
    84  H    0.039042
    85  H    0.018145
    86  H    0.001168
    87  H    0.006037
    88  H    0.032688
    89  H    0.013558
    90  H    0.015479
    91  H    0.012078
    92  H    0.021607
    93  H    0.011200
    94  H    0.029757
    95  H    0.003479
    96  H    0.039577
    97  H    0.030057
    98  H    0.036952
    99  H    0.038585
   100  H    0.045091
   101  H    0.039428
   102  H    0.031812
   103  H    0.025870
   104  H   -0.013077
   105  H    0.025863
   106  H   -0.001053
   107  H    0.023025
   108  H   -0.009070
   109  H    0.003715
   110  H    0.000433
   111  H    0.005204
   112  H   -0.015811
   113  H   -0.012525
   114  H   -0.014024
   115  H   -0.002069
   116  H    0.011835
   117  H    0.009675
   118  H   -0.011969
   119  H   -0.015472
   120  H    0.009380
   121  H   -0.011939
   122  H   -0.000653
   123  H   -0.004939
   124  H    0.009467
   125  H    0.007402
   126  H   -0.000463
   127  H    0.004510
   128  H    0.006312
   129  H   -0.007961
   130  H   -0.012830
   131  H   -0.007762
   132  H   -0.008010
   133  H   -0.019358
   134  H    0.012229
   135  H    0.009936
   136  H    0.005437
   137  H    0.001866
   138  H    0.005481
   139  H    0.009025
   140  H    0.011381
 Sum of Mulliken charges =  -0.00000

 Dipole moment (field-independent basis, Debye):
    X=              6.3810    Y=              4.5893    Z=             -2.5531  Tot=              8.2642
 Quadrupole moment (field-independent basis, Debye-Ang):
   XX=           -409.2930   YY=           -424.9621   ZZ=           -403.3830
   XY=            -37.5375   XZ=             16.5735   YZ=              7.9539

 Normal termination of Gaussian 16 at Wed May  4 06:40:22 2022.
