 Gaussian 16, Revision A.03,
 Gaussian 16:  ES64L-G16RevA.03 25-Dec-2016

 ---------------------------------
 #p PBE1PBE/Def2SVP td=(nstates=5)
 ---------------------------------

 ------------------------------------------------------
 step_1451_chromophore_21 TDDFT with PBE1PBE functional
 ------------------------------------------------------
 Symbolic Z-matrix:
 Charge =  0 Multiplicity = 1

                         Standard orientation:
 ---------------------------------------------------------------------
 Center     Atomic      Atomic             Coordinates (Angstroms)
 Number     Number       Type             X           Y           Z
 ---------------------------------------------------------------------
      1         12           0       -5.177248    1.259856   -0.274261
      2          6           0       -4.779677   -2.268974   -0.411994
      3          6           0       -1.781303    1.521745    0.079831
      4          6           0       -5.496243    4.653882    0.166080
      5          6           0       -8.531071    0.828718   -0.059661
      6          7           0       -3.498520   -0.357829   -0.058230
      7          6           0       -3.532337   -1.645496   -0.362759
      8          6           0       -2.176530   -2.253374   -0.458386
      9          6           0       -1.193094   -1.041897   -0.312050
     10          6           0       -2.176257    0.115282   -0.059956
     11          6           0        0.010077   -1.172637    0.702885
     12          6           0       -2.063528   -3.104557   -1.758583
     13          6           0       -1.441594   -4.545036   -1.583182
     14          6           0       -0.500334   -4.753055   -0.365566
     15          8           0       -0.639931   -5.685376    0.419094
     16          8           0        0.694449   -4.024025   -0.418788
     17          7           0       -3.832899    2.878424   -0.031387
     18          6           0       -2.520267    2.734488    0.083935
     19          6           0       -1.875406    4.124157    0.194198
     20          6           0       -2.935919    5.068048    0.113199
     21          6           0       -4.169423    4.222164    0.082355
     22          6           0       -0.393264    4.259728    0.441670
     23          6           0       -2.911980    6.602758    0.171382
     24          8           0       -3.934555    7.244657    0.278530
     25          6           0       -1.620117    7.315580    0.005010
     26          7           0       -6.801932    2.625762    0.071003
     27          6           0       -6.716244    3.944873    0.255938
     28          6           0       -8.100882    4.599132    0.218046
     29          6           0       -9.066661    3.377834    0.112950
     30          6           0       -8.116236    2.199664    0.079620
     31          6           0       -8.416954    5.689919    1.296028
     32          6           0      -10.124758    3.404317   -1.038004
     33          6           0      -11.556366    2.821341   -0.887619
     34          7           0       -6.465768   -0.342951   -0.307171
     35          6           0       -7.786394   -0.368969   -0.109522
     36          6           0       -8.296809   -1.706168   -0.280275
     37          6           0       -7.129648   -2.518069   -0.324950
     38          6           0       -6.076697   -1.631975   -0.325363
     39          6           0       -9.623987   -2.213595   -0.049046
     40          6           0       -6.698232   -3.906133   -0.197857
     41          8           0       -7.372378   -4.932341    0.064831
     42          6           0       -5.099333   -3.801437   -0.353795
     43          6           0       -4.476258   -4.596905    0.805457
     44          8           0       -4.357522   -4.187669    1.961350
     45          8           0       -4.008926   -5.819502    0.379351
     46          6           0       -3.387510   -6.690796    1.436146
     47          6           0        1.788682   -4.435358    0.426117
     48          6           0        2.883696   -3.340161    0.345706
     49          6           0        3.689898   -2.708040    1.216300
     50          6           0        3.441162   -2.911011    2.743725
     51          6           0        4.721468   -1.676456    0.823514
     52          6           0        6.114927   -2.170127    0.374684
     53          6           0        6.521998   -1.689782   -0.954240
     54          6           0        7.791222   -0.818878   -1.033045
     55          6           0        7.847037   -0.046781   -2.381186
     56          6           0        9.113274   -1.596065   -0.890914
     57          6           0       10.351218   -0.913790   -0.189544
     58          6           0       11.501627   -0.546136   -1.243349
     59          6           0       12.145414    0.855895   -0.900684
     60          6           0       12.425007    1.563866   -2.206053
     61          6           0       13.539981    0.691710   -0.126654
     62          6           0       13.806770    1.994757    0.839322
     63          6           0       15.070536    2.760270    0.579998
     64          6           0       16.414447    1.966017    0.972670
     65          6           0       16.876446    2.655215    2.247461
     66          6           0       17.422124    2.161657   -0.200317
     67          1           0       -0.708695    1.505031    0.286923
     68          1           0       -5.524195    5.730446    0.347561
     69          1           0       -9.619654    0.827640   -0.147517
     70          1           0       -2.144175   -2.892419    0.423921
     71          1           0       -0.745179   -0.792583   -1.274054
     72          1           0        0.924115   -1.115696    0.112124
     73          1           0        0.022546   -2.068652    1.323251
     74          1           0        0.030098   -0.365572    1.435116
     75          1           0       -1.426639   -2.535310   -2.435982
     76          1           0       -3.009577   -3.261993   -2.276971
     77          1           0       -0.907468   -4.714360   -2.517899
     78          1           0       -2.200263   -5.316512   -1.713480
     79          1           0        0.183404    4.140583   -0.476010
     80          1           0       -0.060148    3.449578    1.090226
     81          1           0       -0.082803    5.212267    0.870639
     82          1           0       -0.979877    6.610726   -0.525954
     83          1           0       -1.214598    7.510116    0.997365
     84          1           0       -1.693964    8.301534   -0.454518
     85          1           0       -8.159807    5.116888   -0.738194
     86          1           0       -9.557732    3.295984    1.083166
     87          1           0       -9.310256    5.483251    1.885198
     88          1           0       -8.443698    6.711293    0.918486
     89          1           0       -7.653952    5.542140    2.059797
     90          1           0       -9.648264    2.797792   -1.807908
     91          1           0      -10.236224    4.441045   -1.355684
     92          1           0      -11.659098    2.205628   -1.781326
     93          1           0      -12.235373    3.668946   -0.984984
     94          1           0      -11.799717    2.325818    0.052004
     95          1           0      -10.262870   -1.399899   -0.391256
     96          1           0       -9.861074   -2.449413    0.988658
     97          1           0       -9.755960   -3.139450   -0.608629
     98          1           0       -4.907227   -4.238212   -1.333552
     99          1           0       -2.781130   -6.129888    2.147574
    100          1           0       -2.684416   -7.349377    0.927142
    101          1           0       -4.185102   -7.173679    2.000033
    102          1           0        2.307762   -5.287858   -0.011750
    103          1           0        1.529979   -4.608977    1.469896
    104          1           0        3.065298   -3.008119   -0.675614
    105          1           0        4.117509   -3.656618    3.162103
    106          1           0        2.445472   -3.348981    2.821899
    107          1           0        3.409130   -2.031338    3.385517
    108          1           0        4.782204   -1.013188    1.685664
    109          1           0        4.274558   -1.113362    0.003621
    110          1           0        6.064097   -3.256725    0.307958
    111          1           0        6.818695   -1.914387    1.167037
    112          1           0        5.737412   -1.119780   -1.449663
    113          1           0        6.615784   -2.522431   -1.650191
    114          1           0        7.823326   -0.084038   -0.228789
    115          1           0        8.861997    0.260704   -2.634230
    116          1           0        7.247990    0.856000   -2.264974
    117          1           0        7.562072   -0.691291   -3.212166
    118          1           0        9.430678   -1.866870   -1.897646
    119          1           0        8.967114   -2.555863   -0.395921
    120          1           0       10.716715   -1.396488    0.717184
    121          1           0       10.088267    0.100550    0.112192
    122          1           0       11.162420   -0.618986   -2.276268
    123          1           0       12.318780   -1.264105   -1.175158
    124          1           0       11.478404    1.572617   -0.422528
    125          1           0       13.356375    1.277173   -2.693172
    126          1           0       12.517575    2.637090   -2.036936
    127          1           0       11.523959    1.347396   -2.778984
    128          1           0       14.464561    0.530806   -0.682220
    129          1           0       13.483806   -0.116114    0.602300
    130          1           0       13.851791    1.667195    1.877433
    131          1           0       12.961666    2.676484    0.734604
    132          1           0       14.992355    3.733257    1.066124
    133          1           0       15.052119    3.062091   -0.467631
    134          1           0       16.221854    0.908202    1.149633
    135          1           0       16.249298    3.391073    2.751032
    136          1           0       17.792580    3.179522    1.973257
    137          1           0       16.966630    1.894642    3.023110
    138          1           0       18.357569    2.687876   -0.009908
    139          1           0       17.084479    2.742832   -1.059340
    140          1           0       17.634220    1.140081   -0.514105
 ---------------------------------------------------------------------

 SCF Done:  E(RPBE1PBE) =  -3005.33826335     A.U. after   16 cycles

 Excitation energies and oscillator strengths:

 Excited State   1:      Singlet-A      1.8616 eV  666.03 nm  f=0.3426  <S**2>=0.000
     245 -> 248       -0.19052
     246 -> 247        0.68650
 This state for optimization and/or second-order correction.
 Total Energy, E(TD-HF/TD-DFT) =  -3005.26985251
 Copying the excited state density for this state as the 1-particle RhoCI density.

 Excited State   2:      Singlet-A      2.2143 eV  559.92 nm  f=0.0791  <S**2>=0.000
     245 -> 247        0.64033
     246 -> 248        0.29020

 Excited State   3:      Singlet-A      3.1282 eV  396.35 nm  f=0.0353  <S**2>=0.000
     243 -> 247        0.43623
     243 -> 249       -0.13261
     243 -> 250        0.10350
     244 -> 247        0.45802
     246 -> 248       -0.22947

 Excited State   4:      Singlet-A      3.1957 eV  387.97 nm  f=0.2335  <S**2>=0.000
     244 -> 247        0.30597
     245 -> 247       -0.18944
     246 -> 248        0.44778
     246 -> 249       -0.37508

 Excited State   5:      Singlet-A      3.2135 eV  385.82 nm  f=0.0307  <S**2>=0.000
     242 -> 247        0.15741
     243 -> 247        0.48096
     243 -> 249       -0.11629
     244 -> 247       -0.38703
     246 -> 248        0.21212

 The electronic state is 1-A.
 Alpha  occ. eigenvalues --  -46.92982 -19.26419 -19.24582 -19.21244 -19.19742
 Alpha  occ. eigenvalues --  -19.19035 -19.18913 -14.41152 -14.41024 -14.39690
 Alpha  occ. eigenvalues --  -14.38398 -10.37980 -10.35727 -10.32915 -10.32253
 Alpha  occ. eigenvalues --  -10.30713 -10.29411 -10.28583 -10.28275 -10.28264
 Alpha  occ. eigenvalues --  -10.28074 -10.27692 -10.27448 -10.27233 -10.26413
 Alpha  occ. eigenvalues --  -10.26388 -10.26208 -10.25882 -10.25876 -10.25874
 Alpha  occ. eigenvalues --  -10.25849 -10.25561 -10.25529 -10.25388 -10.25238
 Alpha  occ. eigenvalues --  -10.25068 -10.25026 -10.24924 -10.24234 -10.24089
 Alpha  occ. eigenvalues --  -10.24077 -10.24005 -10.23937 -10.23840 -10.23819
 Alpha  occ. eigenvalues --  -10.23748 -10.23701 -10.23492 -10.23488 -10.23216
 Alpha  occ. eigenvalues --  -10.23206 -10.23146 -10.23145 -10.23122 -10.23012
 Alpha  occ. eigenvalues --  -10.22858 -10.22564 -10.22471 -10.22362 -10.22339
 Alpha  occ. eigenvalues --  -10.21949 -10.21916 -10.21912 -10.21716 -10.21494
 Alpha  occ. eigenvalues --  -10.21490  -3.14916  -1.87764  -1.87284  -1.87137
 Alpha  occ. eigenvalues --   -1.11379  -1.08821  -1.06132  -1.03288  -1.02191
 Alpha  occ. eigenvalues --   -1.00467  -0.99271  -0.98263  -0.98024  -0.97339
 Alpha  occ. eigenvalues --   -0.85570  -0.85155  -0.83685  -0.83350  -0.82820
 Alpha  occ. eigenvalues --   -0.82803  -0.81840  -0.81632  -0.81605  -0.81110
 Alpha  occ. eigenvalues --   -0.80552  -0.79481  -0.78683  -0.77474  -0.77015
 Alpha  occ. eigenvalues --   -0.76801  -0.76347  -0.75532  -0.74995  -0.74266
 Alpha  occ. eigenvalues --   -0.73645  -0.72603  -0.72225  -0.71557  -0.70530
 Alpha  occ. eigenvalues --   -0.69714  -0.69655  -0.69179  -0.68675  -0.68148
 Alpha  occ. eigenvalues --   -0.67850  -0.66254  -0.66031  -0.65098  -0.63317
 Alpha  occ. eigenvalues --   -0.62790  -0.62579  -0.61797  -0.61104  -0.60341
 Alpha  occ. eigenvalues --   -0.60117  -0.59390  -0.59185  -0.58760  -0.58422
 Alpha  occ. eigenvalues --   -0.58305  -0.57605  -0.56955  -0.55529  -0.54667
 Alpha  occ. eigenvalues --   -0.54650  -0.53466  -0.53253  -0.52805  -0.52148
 Alpha  occ. eigenvalues --   -0.51452  -0.51161  -0.50846  -0.50647  -0.49585
 Alpha  occ. eigenvalues --   -0.49385  -0.49280  -0.48994  -0.48586  -0.48128
 Alpha  occ. eigenvalues --   -0.47820  -0.47689  -0.47360  -0.47227  -0.47017
 Alpha  occ. eigenvalues --   -0.46976  -0.46855  -0.46605  -0.46391  -0.46284
 Alpha  occ. eigenvalues --   -0.45879  -0.45823  -0.45557  -0.45397  -0.45166
 Alpha  occ. eigenvalues --   -0.44796  -0.44717  -0.44671  -0.44614  -0.44537
 Alpha  occ. eigenvalues --   -0.43938  -0.43793  -0.43659  -0.43554  -0.43324
 Alpha  occ. eigenvalues --   -0.43242  -0.42909  -0.42508  -0.42389  -0.42304
 Alpha  occ. eigenvalues --   -0.42048  -0.41889  -0.41616  -0.41564  -0.41532
 Alpha  occ. eigenvalues --   -0.41291  -0.40995  -0.40771  -0.40482  -0.40380
 Alpha  occ. eigenvalues --   -0.40124  -0.40013  -0.39840  -0.39583  -0.39378
 Alpha  occ. eigenvalues --   -0.39315  -0.38911  -0.38841  -0.38658  -0.38420
 Alpha  occ. eigenvalues --   -0.38324  -0.38116  -0.37902  -0.37823  -0.37602
 Alpha  occ. eigenvalues --   -0.37469  -0.37385  -0.37317  -0.37011  -0.36776
 Alpha  occ. eigenvalues --   -0.36143  -0.36050  -0.35936  -0.35881  -0.35688
 Alpha  occ. eigenvalues --   -0.35555  -0.35507  -0.35364  -0.35220  -0.35144
 Alpha  occ. eigenvalues --   -0.34819  -0.34707  -0.34569  -0.34144  -0.33931
 Alpha  occ. eigenvalues --   -0.33431  -0.33257  -0.32794  -0.32664  -0.32628
 Alpha  occ. eigenvalues --   -0.32333  -0.31821  -0.31344  -0.31212  -0.31157
 Alpha  occ. eigenvalues --   -0.30759  -0.30310  -0.29920  -0.29625  -0.29505
 Alpha  occ. eigenvalues --   -0.28986  -0.28734  -0.27836  -0.26758  -0.26343
 Alpha  occ. eigenvalues --   -0.26140  -0.25599  -0.25306  -0.24665  -0.20243
 Alpha  occ. eigenvalues --   -0.18131
 Alpha virt. eigenvalues --   -0.10353  -0.05219  -0.04222  -0.02280  -0.01702
 Alpha virt. eigenvalues --   -0.00276   0.00375   0.01271   0.01652   0.03242
 Alpha virt. eigenvalues --    0.04227   0.04808   0.05341   0.05494   0.05857

 Mulliken charges:
               1
     1  Mg   0.972693
     2  C   -0.035214
     3  C   -0.079828
     4  C   -0.056311
     5  C   -0.073412
     6  N   -0.350425
     7  C   -0.013339
     8  C   -0.083669
     9  C   -0.106870
    10  C    0.024724
    11  C    0.015045
    12  C    0.018406
    13  C   -0.012417
    14  C    0.248707
    15  O   -0.259588
    16  O   -0.384070
    17  N   -0.459597
    18  C    0.194126
    19  C   -0.177328
    20  C   -0.081923
    21  C    0.103447
    22  C    0.040287
    23  C    0.068711
    24  O   -0.225004
    25  C   -0.020359
    26  N   -0.394829
    27  C    0.094167
    28  C   -0.149184
    29  C   -0.038049
    30  C    0.004941
    31  C    0.015592
    32  C   -0.065157
    33  C   -0.057893
    34  N   -0.460776
    35  C    0.181451
    36  C   -0.189767
    37  C   -0.038735
    38  C    0.168450
    39  C    0.049441
    40  C    0.157596
    41  O   -0.248580
    42  C   -0.119886
    43  C    0.304334
    44  O   -0.270820
    45  O   -0.380486
    46  C    0.131698
    47  C    0.285510
    48  C   -0.162866
    49  C   -0.234164
    50  C   -0.009578
    51  C    0.028166
    52  C    0.020767
    53  C   -0.002639
    54  C   -0.205304
    55  C   -0.024394
    56  C   -0.015726
    57  C   -0.030162
    58  C   -0.019205
    59  C   -0.230936
    60  C   -0.012940
    61  C   -0.006326
    62  C   -0.061098
    63  C   -0.022466
    64  C   -0.254415
    65  C    0.003379
    66  C   -0.018206
    67  H   -0.003834
    68  H    0.028538
    69  H   -0.000859
    70  H    0.084482
    71  H    0.054000
    72  H    0.051539
    73  H    0.044072
    74  H    0.036344
    75  H    0.034700
    76  H    0.053171
    77  H    0.055153
    78  H    0.067706
    79  H    0.057484
    80  H    0.059968
    81  H    0.045290
    82  H    0.056580
    83  H    0.071500
    84  H    0.065161
    85  H    0.056569
    86  H    0.041418
    87  H    0.033011
    88  H    0.058743
    89  H    0.042341
    90  H    0.048979
    91  H    0.045359
    92  H    0.049134
    93  H    0.040260
    94  H    0.054907
    95  H    0.033247
    96  H    0.068481
    97  H    0.058967
    98  H    0.074896
    99  H    0.060144
   100  H    0.066454
   101  H    0.062158
   102  H    0.059859
   103  H    0.051062
   104  H    0.017754
   105  H    0.054254
   106  H    0.026856
   107  H    0.049372
   108  H    0.023810
   109  H    0.035674
   110  H    0.034263
   111  H    0.037256
   112  H    0.016549
   113  H    0.019662
   114  H    0.024425
   115  H    0.030626
   116  H    0.040407
   117  H    0.037092
   118  H    0.021766
   119  H    0.018103
   120  H    0.039860
   121  H    0.022589
   122  H    0.027806
   123  H    0.028787
   124  H    0.043926
   125  H    0.034800
   126  H    0.028051
   127  H    0.034121
   128  H    0.037989
   129  H    0.025576
   130  H    0.021173
   131  H    0.024796
   132  H    0.024284
   133  H    0.014153
   134  H    0.047415
   135  H    0.035954
   136  H    0.032286
   137  H    0.029456
   138  H    0.031370
   139  H    0.034691
   140  H    0.038370
 Sum of Mulliken charges =  -0.00000

 Dipole moment (field-independent basis, Debye):
    X=              5.9554    Y=              4.0550    Z=             -2.5923  Tot=              7.6570
 Quadrupole moment (field-independent basis, Debye-Ang):
   XX=           -399.1899   YY=           -423.3710   ZZ=           -400.8766
   XY=            -36.0097   XZ=             16.7137   YZ=              7.8761

 Normal termination of Gaussian 16 at Wed May  4 07:00:29 2022.
