 Gaussian 16, Revision A.03,
 Gaussian 16:  ES64L-G16RevA.03 25-Dec-2016

 --------------------------------
 #p wB97XD/Def2SVP td=(nstates=5)
 --------------------------------

 -----------------------------------------------------
 step_1451_chromophore_21 TDDFT with wB97XD functional
 -----------------------------------------------------
 Symbolic Z-matrix:
 Charge =  0 Multiplicity = 1

                         Standard orientation:
 ---------------------------------------------------------------------
 Center     Atomic      Atomic             Coordinates (Angstroms)
 Number     Number       Type             X           Y           Z
 ---------------------------------------------------------------------
      1         12           0       -5.177248    1.259856   -0.274261
      2          6           0       -4.779677   -2.268974   -0.411994
      3          6           0       -1.781303    1.521745    0.079831
      4          6           0       -5.496243    4.653882    0.166080
      5          6           0       -8.531071    0.828718   -0.059661
      6          7           0       -3.498520   -0.357829   -0.058230
      7          6           0       -3.532337   -1.645496   -0.362759
      8          6           0       -2.176530   -2.253374   -0.458386
      9          6           0       -1.193094   -1.041897   -0.312050
     10          6           0       -2.176257    0.115282   -0.059956
     11          6           0        0.010077   -1.172637    0.702885
     12          6           0       -2.063528   -3.104557   -1.758583
     13          6           0       -1.441594   -4.545036   -1.583182
     14          6           0       -0.500334   -4.753055   -0.365566
     15          8           0       -0.639931   -5.685376    0.419094
     16          8           0        0.694449   -4.024025   -0.418788
     17          7           0       -3.832899    2.878424   -0.031387
     18          6           0       -2.520267    2.734488    0.083935
     19          6           0       -1.875406    4.124157    0.194198
     20          6           0       -2.935919    5.068048    0.113199
     21          6           0       -4.169423    4.222164    0.082355
     22          6           0       -0.393264    4.259728    0.441670
     23          6           0       -2.911980    6.602758    0.171382
     24          8           0       -3.934555    7.244657    0.278530
     25          6           0       -1.620117    7.315580    0.005010
     26          7           0       -6.801932    2.625762    0.071003
     27          6           0       -6.716244    3.944873    0.255938
     28          6           0       -8.100882    4.599132    0.218046
     29          6           0       -9.066661    3.377834    0.112950
     30          6           0       -8.116236    2.199664    0.079620
     31          6           0       -8.416954    5.689919    1.296028
     32          6           0      -10.124758    3.404317   -1.038004
     33          6           0      -11.556366    2.821341   -0.887619
     34          7           0       -6.465768   -0.342951   -0.307171
     35          6           0       -7.786394   -0.368969   -0.109522
     36          6           0       -8.296809   -1.706168   -0.280275
     37          6           0       -7.129648   -2.518069   -0.324950
     38          6           0       -6.076697   -1.631975   -0.325363
     39          6           0       -9.623987   -2.213595   -0.049046
     40          6           0       -6.698232   -3.906133   -0.197857
     41          8           0       -7.372378   -4.932341    0.064831
     42          6           0       -5.099333   -3.801437   -0.353795
     43          6           0       -4.476258   -4.596905    0.805457
     44          8           0       -4.357522   -4.187669    1.961350
     45          8           0       -4.008926   -5.819502    0.379351
     46          6           0       -3.387510   -6.690796    1.436146
     47          6           0        1.788682   -4.435358    0.426117
     48          6           0        2.883696   -3.340161    0.345706
     49          6           0        3.689898   -2.708040    1.216300
     50          6           0        3.441162   -2.911011    2.743725
     51          6           0        4.721468   -1.676456    0.823514
     52          6           0        6.114927   -2.170127    0.374684
     53          6           0        6.521998   -1.689782   -0.954240
     54          6           0        7.791222   -0.818878   -1.033045
     55          6           0        7.847037   -0.046781   -2.381186
     56          6           0        9.113274   -1.596065   -0.890914
     57          6           0       10.351218   -0.913790   -0.189544
     58          6           0       11.501627   -0.546136   -1.243349
     59          6           0       12.145414    0.855895   -0.900684
     60          6           0       12.425007    1.563866   -2.206053
     61          6           0       13.539981    0.691710   -0.126654
     62          6           0       13.806770    1.994757    0.839322
     63          6           0       15.070536    2.760270    0.579998
     64          6           0       16.414447    1.966017    0.972670
     65          6           0       16.876446    2.655215    2.247461
     66          6           0       17.422124    2.161657   -0.200317
     67          1           0       -0.708695    1.505031    0.286923
     68          1           0       -5.524195    5.730446    0.347561
     69          1           0       -9.619654    0.827640   -0.147517
     70          1           0       -2.144175   -2.892419    0.423921
     71          1           0       -0.745179   -0.792583   -1.274054
     72          1           0        0.924115   -1.115696    0.112124
     73          1           0        0.022546   -2.068652    1.323251
     74          1           0        0.030098   -0.365572    1.435116
     75          1           0       -1.426639   -2.535310   -2.435982
     76          1           0       -3.009577   -3.261993   -2.276971
     77          1           0       -0.907468   -4.714360   -2.517899
     78          1           0       -2.200263   -5.316512   -1.713480
     79          1           0        0.183404    4.140583   -0.476010
     80          1           0       -0.060148    3.449578    1.090226
     81          1           0       -0.082803    5.212267    0.870639
     82          1           0       -0.979877    6.610726   -0.525954
     83          1           0       -1.214598    7.510116    0.997365
     84          1           0       -1.693964    8.301534   -0.454518
     85          1           0       -8.159807    5.116888   -0.738194
     86          1           0       -9.557732    3.295984    1.083166
     87          1           0       -9.310256    5.483251    1.885198
     88          1           0       -8.443698    6.711293    0.918486
     89          1           0       -7.653952    5.542140    2.059797
     90          1           0       -9.648264    2.797792   -1.807908
     91          1           0      -10.236224    4.441045   -1.355684
     92          1           0      -11.659098    2.205628   -1.781326
     93          1           0      -12.235373    3.668946   -0.984984
     94          1           0      -11.799717    2.325818    0.052004
     95          1           0      -10.262870   -1.399899   -0.391256
     96          1           0       -9.861074   -2.449413    0.988658
     97          1           0       -9.755960   -3.139450   -0.608629
     98          1           0       -4.907227   -4.238212   -1.333552
     99          1           0       -2.781130   -6.129888    2.147574
    100          1           0       -2.684416   -7.349377    0.927142
    101          1           0       -4.185102   -7.173679    2.000033
    102          1           0        2.307762   -5.287858   -0.011750
    103          1           0        1.529979   -4.608977    1.469896
    104          1           0        3.065298   -3.008119   -0.675614
    105          1           0        4.117509   -3.656618    3.162103
    106          1           0        2.445472   -3.348981    2.821899
    107          1           0        3.409130   -2.031338    3.385517
    108          1           0        4.782204   -1.013188    1.685664
    109          1           0        4.274558   -1.113362    0.003621
    110          1           0        6.064097   -3.256725    0.307958
    111          1           0        6.818695   -1.914387    1.167037
    112          1           0        5.737412   -1.119780   -1.449663
    113          1           0        6.615784   -2.522431   -1.650191
    114          1           0        7.823326   -0.084038   -0.228789
    115          1           0        8.861997    0.260704   -2.634230
    116          1           0        7.247990    0.856000   -2.264974
    117          1           0        7.562072   -0.691291   -3.212166
    118          1           0        9.430678   -1.866870   -1.897646
    119          1           0        8.967114   -2.555863   -0.395921
    120          1           0       10.716715   -1.396488    0.717184
    121          1           0       10.088267    0.100550    0.112192
    122          1           0       11.162420   -0.618986   -2.276268
    123          1           0       12.318780   -1.264105   -1.175158
    124          1           0       11.478404    1.572617   -0.422528
    125          1           0       13.356375    1.277173   -2.693172
    126          1           0       12.517575    2.637090   -2.036936
    127          1           0       11.523959    1.347396   -2.778984
    128          1           0       14.464561    0.530806   -0.682220
    129          1           0       13.483806   -0.116114    0.602300
    130          1           0       13.851791    1.667195    1.877433
    131          1           0       12.961666    2.676484    0.734604
    132          1           0       14.992355    3.733257    1.066124
    133          1           0       15.052119    3.062091   -0.467631
    134          1           0       16.221854    0.908202    1.149633
    135          1           0       16.249298    3.391073    2.751032
    136          1           0       17.792580    3.179522    1.973257
    137          1           0       16.966630    1.894642    3.023110
    138          1           0       18.357569    2.687876   -0.009908
    139          1           0       17.084479    2.742832   -1.059340
    140          1           0       17.634220    1.140081   -0.514105
 ---------------------------------------------------------------------

 SCF Done:  E(RwB97XD) =  -3007.85116580     A.U. after   19 cycles

 Excitation energies and oscillator strengths:

 Excited State   1:      Singlet-A      1.7224 eV  719.81 nm  f=0.3504  <S**2>=0.000
     245 -> 248       -0.19795
     246 -> 247        0.67880
     245 <- 248       -0.11563
 This state for optimization and/or second-order correction.
 Total Energy, E(TD-HF/TD-DFT) =  -3007.78786695
 Copying the excited state density for this state as the 1-particle RhoCI density.

 Excited State   2:      Singlet-A      2.1765 eV  569.66 nm  f=0.0748  <S**2>=0.000
     245 -> 247        0.61989
     246 -> 248        0.32591

 Excited State   3:      Singlet-A      3.4478 eV  359.60 nm  f=0.7640  <S**2>=0.000
     240 -> 247       -0.10473
     245 -> 247       -0.31443
     246 -> 248        0.60978
     245 <- 247        0.11326

 Excited State   4:      Singlet-A      3.6317 eV  341.40 nm  f=0.0420  <S**2>=0.000
     242 -> 247       -0.13655
     243 -> 247        0.24520
     244 -> 247        0.58982
     244 -> 249       -0.11213

 Excited State   5:      Singlet-A      3.7103 eV  334.16 nm  f=0.0024  <S**2>=0.000
     242 -> 247        0.30530
     242 -> 249       -0.14967
     242 -> 250        0.15513
     243 -> 247        0.36856
     243 -> 249       -0.24551
     243 -> 250        0.27282
     244 -> 247       -0.21450

 The electronic state is 1-A.
 Alpha  occ. eigenvalues --  -46.95913 -19.30975 -19.29034 -19.25890 -19.24864
 Alpha  occ. eigenvalues --  -19.23535 -19.23491 -14.46313 -14.46051 -14.44826
 Alpha  occ. eigenvalues --  -14.43137 -10.44739 -10.42440 -10.40049 -10.38848
 Alpha  occ. eigenvalues --  -10.37204 -10.36034 -10.35432 -10.35031 -10.34867
 Alpha  occ. eigenvalues --  -10.34391 -10.34040 -10.33786 -10.33679 -10.32749
 Alpha  occ. eigenvalues --  -10.32696 -10.32439 -10.32256 -10.32217 -10.32056
 Alpha  occ. eigenvalues --  -10.31864 -10.31858 -10.31844 -10.31737 -10.31686
 Alpha  occ. eigenvalues --  -10.31501 -10.31323 -10.31161 -10.30644 -10.30579
 Alpha  occ. eigenvalues --  -10.30315 -10.30308 -10.30281 -10.30125 -10.30090
 Alpha  occ. eigenvalues --  -10.30058 -10.30057 -10.30000 -10.29935 -10.29803
 Alpha  occ. eigenvalues --  -10.29658 -10.29523 -10.29494 -10.29461 -10.29413
 Alpha  occ. eigenvalues --  -10.29227 -10.28961 -10.28851 -10.28823 -10.28723
 Alpha  occ. eigenvalues --  -10.28330 -10.28276 -10.28107 -10.27944 -10.27923
 Alpha  occ. eigenvalues --  -10.27609  -3.21731  -1.95324  -1.94844  -1.94694
 Alpha  occ. eigenvalues --   -1.18737  -1.16107  -1.13908  -1.10606  -1.09409
 Alpha  occ. eigenvalues --   -1.07715  -1.06405  -1.05757  -1.05411  -1.04802
 Alpha  occ. eigenvalues --   -0.92986  -0.92831  -0.91325  -0.91008  -0.90491
 Alpha  occ. eigenvalues --   -0.90408  -0.89711  -0.89447  -0.89305  -0.88687
 Alpha  occ. eigenvalues --   -0.87973  -0.87144  -0.86367  -0.85125  -0.84819
 Alpha  occ. eigenvalues --   -0.84524  -0.84022  -0.83190  -0.82613  -0.81940
 Alpha  occ. eigenvalues --   -0.81236  -0.80449  -0.79770  -0.79126  -0.78225
 Alpha  occ. eigenvalues --   -0.77416  -0.77165  -0.76758  -0.76382  -0.75810
 Alpha  occ. eigenvalues --   -0.75491  -0.73747  -0.73562  -0.72681  -0.70871
 Alpha  occ. eigenvalues --   -0.70386  -0.70163  -0.69463  -0.68767  -0.67881
 Alpha  occ. eigenvalues --   -0.67784  -0.66881  -0.66613  -0.66205  -0.66083
 Alpha  occ. eigenvalues --   -0.65709  -0.65266  -0.64618  -0.62844  -0.62345
 Alpha  occ. eigenvalues --   -0.62152  -0.60835  -0.60583  -0.60141  -0.59490
 Alpha  occ. eigenvalues --   -0.58903  -0.58613  -0.58368  -0.58057  -0.56944
 Alpha  occ. eigenvalues --   -0.56759  -0.56635  -0.56409  -0.56042  -0.55514
 Alpha  occ. eigenvalues --   -0.55209  -0.55127  -0.54815  -0.54768  -0.54671
 Alpha  occ. eigenvalues --   -0.54448  -0.54269  -0.53828  -0.53727  -0.53604
 Alpha  occ. eigenvalues --   -0.53347  -0.53242  -0.52859  -0.52729  -0.52448
 Alpha  occ. eigenvalues --   -0.52257  -0.52079  -0.51997  -0.51902  -0.51788
 Alpha  occ. eigenvalues --   -0.51439  -0.51098  -0.51051  -0.50876  -0.50569
 Alpha  occ. eigenvalues --   -0.50544  -0.50085  -0.49793  -0.49683  -0.49530
 Alpha  occ. eigenvalues --   -0.49488  -0.49216  -0.48858  -0.48821  -0.48796
 Alpha  occ. eigenvalues --   -0.48546  -0.48089  -0.47971  -0.47752  -0.47557
 Alpha  occ. eigenvalues --   -0.47305  -0.47145  -0.47017  -0.46852  -0.46635
 Alpha  occ. eigenvalues --   -0.46464  -0.46106  -0.45981  -0.45810  -0.45511
 Alpha  occ. eigenvalues --   -0.45412  -0.45303  -0.44961  -0.44919  -0.44811
 Alpha  occ. eigenvalues --   -0.44699  -0.44653  -0.44520  -0.44027  -0.43803
 Alpha  occ. eigenvalues --   -0.43264  -0.43091  -0.43014  -0.42918  -0.42720
 Alpha  occ. eigenvalues --   -0.42643  -0.42574  -0.42348  -0.42243  -0.42076
 Alpha  occ. eigenvalues --   -0.41934  -0.41634  -0.41510  -0.41244  -0.40852
 Alpha  occ. eigenvalues --   -0.40488  -0.40292  -0.39789  -0.39742  -0.39532
 Alpha  occ. eigenvalues --   -0.39363  -0.38828  -0.38271  -0.38235  -0.38219
 Alpha  occ. eigenvalues --   -0.37760  -0.37281  -0.36826  -0.36592  -0.36392
 Alpha  occ. eigenvalues --   -0.35877  -0.35467  -0.34798  -0.33984  -0.33381
 Alpha  occ. eigenvalues --   -0.32878  -0.32231  -0.32076  -0.30893  -0.25254
 Alpha  occ. eigenvalues --   -0.22355
 Alpha virt. eigenvalues --   -0.06086   0.00129   0.01966   0.04287   0.05139
 Alpha virt. eigenvalues --    0.05599   0.07043   0.08178   0.08446   0.09577
 Alpha virt. eigenvalues --    0.10561   0.11680   0.12091   0.12157   0.12604

 Mulliken charges:
               1
     1  Mg   0.964817
     2  C   -0.044013
     3  C   -0.100574
     4  C   -0.072716
     5  C   -0.076179
     6  N   -0.319027
     7  C   -0.037876
     8  C   -0.056330
     9  C   -0.080531
    10  C    0.015390
    11  C    0.028316
    12  C    0.028229
    13  C    0.002041
    14  C    0.236370
    15  O   -0.254597
    16  O   -0.381221
    17  N   -0.428499
    18  C    0.193749
    19  C   -0.165631
    20  C   -0.075582
    21  C    0.101652
    22  C    0.052448
    23  C    0.063751
    24  O   -0.217345
    25  C   -0.009775
    26  N   -0.360515
    27  C    0.082059
    28  C   -0.126005
    29  C   -0.012323
    30  C   -0.014280
    31  C    0.025885
    32  C   -0.046521
    33  C   -0.044463
    34  N   -0.424837
    35  C    0.168449
    36  C   -0.186926
    37  C   -0.039162
    38  C    0.152730
    39  C    0.062291
    40  C    0.139668
    41  O   -0.240912
    42  C   -0.085921
    43  C    0.280340
    44  O   -0.265179
    45  O   -0.377740
    46  C    0.142587
    47  C    0.298610
    48  C   -0.170584
    49  C   -0.222661
    50  C    0.006202
    51  C    0.048767
    52  C    0.032219
    53  C    0.012883
    54  C   -0.175044
    55  C   -0.006274
    56  C   -0.000896
    57  C   -0.011319
    58  C   -0.006846
    59  C   -0.195858
    60  C   -0.000417
    61  C    0.003723
    62  C   -0.043286
    63  C   -0.002240
    64  C   -0.227721
    65  C    0.014090
    66  C   -0.007252
    67  H   -0.014451
    68  H    0.023154
    69  H   -0.014299
    70  H    0.067254
    71  H    0.043667
    72  H    0.043618
    73  H    0.036702
    74  H    0.031014
    75  H    0.027349
    76  H    0.044662
    77  H    0.050146
    78  H    0.062280
    79  H    0.055088
    80  H    0.056577
    81  H    0.041040
    82  H    0.049376
    83  H    0.068661
    84  H    0.065418
    85  H    0.045506
    86  H    0.028490
    87  H    0.028606
    88  H    0.054964
    89  H    0.034987
    90  H    0.038564
    91  H    0.036372
    92  H    0.043898
    93  H    0.034586
    94  H    0.050303
    95  H    0.024518
    96  H    0.062475
    97  H    0.053585
    98  H    0.065608
    99  H    0.056710
   100  H    0.064363
   101  H    0.059415
   102  H    0.055359
   103  H    0.045886
   104  H    0.012670
   105  H    0.048685
   106  H    0.018149
   107  H    0.044680
   108  H    0.016690
   109  H    0.025163
   110  H    0.025891
   111  H    0.030128
   112  H    0.005793
   113  H    0.011778
   114  H    0.011688
   115  H    0.018428
   116  H    0.034914
   117  H    0.030795
   118  H    0.009777
   119  H    0.010387
   120  H    0.034865
   121  H    0.008013
   122  H    0.017111
   123  H    0.020684
   124  H    0.031256
   125  H    0.028704
   126  H    0.021965
   127  H    0.025599
   128  H    0.027584
   129  H    0.016608
   130  H    0.011813
   131  H    0.015589
   132  H    0.015579
   133  H    0.001453
   134  H    0.038020
   135  H    0.029385
   136  H    0.025382
   137  H    0.024255
   138  H    0.025621
   139  H    0.028484
   140  H    0.032771
 Sum of Mulliken charges =  -0.00000

 Dipole moment (field-independent basis, Debye):
    X=              6.5572    Y=              4.8053    Z=             -2.5778  Tot=              8.5284
 Quadrupole moment (field-independent basis, Debye-Ang):
   XX=           -405.2255   YY=           -420.4101   ZZ=           -400.5162
   XY=            -38.0679   XZ=             16.7277   YZ=              8.0363

 Normal termination of Gaussian 16 at Wed May  4 07:33:44 2022.
