 Gaussian 16, Revision A.03,
 Gaussian 16:  ES64L-G16RevA.03 25-Dec-2016

 --------------------
 #p ZINDO=(nstates=5)
 --------------------

 ------------------------------
 step_1451_chromophore_21 ZINDO
 ------------------------------
 Symbolic Z-matrix:
 Charge =  0 Multiplicity = 1

                         Standard orientation:
 ---------------------------------------------------------------------
 Center     Atomic      Atomic             Coordinates (Angstroms)
 Number     Number       Type             X           Y           Z
 ---------------------------------------------------------------------
      1         12           0       -5.177248    1.259856   -0.274261
      2          6           0       -4.779677   -2.268974   -0.411994
      3          6           0       -1.781303    1.521745    0.079831
      4          6           0       -5.496243    4.653882    0.166080
      5          6           0       -8.531071    0.828718   -0.059661
      6          7           0       -3.498520   -0.357829   -0.058230
      7          6           0       -3.532337   -1.645496   -0.362759
      8          6           0       -2.176530   -2.253374   -0.458386
      9          6           0       -1.193094   -1.041897   -0.312050
     10          6           0       -2.176257    0.115282   -0.059956
     11          6           0        0.010077   -1.172637    0.702885
     12          6           0       -2.063528   -3.104557   -1.758583
     13          6           0       -1.441594   -4.545036   -1.583182
     14          6           0       -0.500334   -4.753055   -0.365566
     15          8           0       -0.639931   -5.685376    0.419094
     16          8           0        0.694449   -4.024025   -0.418788
     17          7           0       -3.832899    2.878424   -0.031387
     18          6           0       -2.520267    2.734488    0.083935
     19          6           0       -1.875406    4.124157    0.194198
     20          6           0       -2.935919    5.068048    0.113199
     21          6           0       -4.169423    4.222164    0.082355
     22          6           0       -0.393264    4.259728    0.441670
     23          6           0       -2.911980    6.602758    0.171382
     24          8           0       -3.934555    7.244657    0.278530
     25          6           0       -1.620117    7.315580    0.005010
     26          7           0       -6.801932    2.625762    0.071003
     27          6           0       -6.716244    3.944873    0.255938
     28          6           0       -8.100882    4.599132    0.218046
     29          6           0       -9.066661    3.377834    0.112950
     30          6           0       -8.116236    2.199664    0.079620
     31          6           0       -8.416954    5.689919    1.296028
     32          6           0      -10.124758    3.404317   -1.038004
     33          6           0      -11.556366    2.821341   -0.887619
     34          7           0       -6.465768   -0.342951   -0.307171
     35          6           0       -7.786394   -0.368969   -0.109522
     36          6           0       -8.296809   -1.706168   -0.280275
     37          6           0       -7.129648   -2.518069   -0.324950
     38          6           0       -6.076697   -1.631975   -0.325363
     39          6           0       -9.623987   -2.213595   -0.049046
     40          6           0       -6.698232   -3.906133   -0.197857
     41          8           0       -7.372378   -4.932341    0.064831
     42          6           0       -5.099333   -3.801437   -0.353795
     43          6           0       -4.476258   -4.596905    0.805457
     44          8           0       -4.357522   -4.187669    1.961350
     45          8           0       -4.008926   -5.819502    0.379351
     46          6           0       -3.387510   -6.690796    1.436146
     47          6           0        1.788682   -4.435358    0.426117
     48          6           0        2.883696   -3.340161    0.345706
     49          6           0        3.689898   -2.708040    1.216300
     50          6           0        3.441162   -2.911011    2.743725
     51          6           0        4.721468   -1.676456    0.823514
     52          6           0        6.114927   -2.170127    0.374684
     53          6           0        6.521998   -1.689782   -0.954240
     54          6           0        7.791222   -0.818878   -1.033045
     55          6           0        7.847037   -0.046781   -2.381186
     56          6           0        9.113274   -1.596065   -0.890914
     57          6           0       10.351218   -0.913790   -0.189544
     58          6           0       11.501627   -0.546136   -1.243349
     59          6           0       12.145414    0.855895   -0.900684
     60          6           0       12.425007    1.563866   -2.206053
     61          6           0       13.539981    0.691710   -0.126654
     62          6           0       13.806770    1.994757    0.839322
     63          6           0       15.070536    2.760270    0.579998
     64          6           0       16.414447    1.966017    0.972670
     65          6           0       16.876446    2.655215    2.247461
     66          6           0       17.422124    2.161657   -0.200317
     67          1           0       -0.708695    1.505031    0.286923
     68          1           0       -5.524195    5.730446    0.347561
     69          1           0       -9.619654    0.827640   -0.147517
     70          1           0       -2.144175   -2.892419    0.423921
     71          1           0       -0.745179   -0.792583   -1.274054
     72          1           0        0.924115   -1.115696    0.112124
     73          1           0        0.022546   -2.068652    1.323251
     74          1           0        0.030098   -0.365572    1.435116
     75          1           0       -1.426639   -2.535310   -2.435982
     76          1           0       -3.009577   -3.261993   -2.276971
     77          1           0       -0.907468   -4.714360   -2.517899
     78          1           0       -2.200263   -5.316512   -1.713480
     79          1           0        0.183404    4.140583   -0.476010
     80          1           0       -0.060148    3.449578    1.090226
     81          1           0       -0.082803    5.212267    0.870639
     82          1           0       -0.979877    6.610726   -0.525954
     83          1           0       -1.214598    7.510116    0.997365
     84          1           0       -1.693964    8.301534   -0.454518
     85          1           0       -8.159807    5.116888   -0.738194
     86          1           0       -9.557732    3.295984    1.083166
     87          1           0       -9.310256    5.483251    1.885198
     88          1           0       -8.443698    6.711293    0.918486
     89          1           0       -7.653952    5.542140    2.059797
     90          1           0       -9.648264    2.797792   -1.807908
     91          1           0      -10.236224    4.441045   -1.355684
     92          1           0      -11.659098    2.205628   -1.781326
     93          1           0      -12.235373    3.668946   -0.984984
     94          1           0      -11.799717    2.325818    0.052004
     95          1           0      -10.262870   -1.399899   -0.391256
     96          1           0       -9.861074   -2.449413    0.988658
     97          1           0       -9.755960   -3.139450   -0.608629
     98          1           0       -4.907227   -4.238212   -1.333552
     99          1           0       -2.781130   -6.129888    2.147574
    100          1           0       -2.684416   -7.349377    0.927142
    101          1           0       -4.185102   -7.173679    2.000033
    102          1           0        2.307762   -5.287858   -0.011750
    103          1           0        1.529979   -4.608977    1.469896
    104          1           0        3.065298   -3.008119   -0.675614
    105          1           0        4.117509   -3.656618    3.162103
    106          1           0        2.445472   -3.348981    2.821899
    107          1           0        3.409130   -2.031338    3.385517
    108          1           0        4.782204   -1.013188    1.685664
    109          1           0        4.274558   -1.113362    0.003621
    110          1           0        6.064097   -3.256725    0.307958
    111          1           0        6.818695   -1.914387    1.167037
    112          1           0        5.737412   -1.119780   -1.449663
    113          1           0        6.615784   -2.522431   -1.650191
    114          1           0        7.823326   -0.084038   -0.228789
    115          1           0        8.861997    0.260704   -2.634230
    116          1           0        7.247990    0.856000   -2.264974
    117          1           0        7.562072   -0.691291   -3.212166
    118          1           0        9.430678   -1.866870   -1.897646
    119          1           0        8.967114   -2.555863   -0.395921
    120          1           0       10.716715   -1.396488    0.717184
    121          1           0       10.088267    0.100550    0.112192
    122          1           0       11.162420   -0.618986   -2.276268
    123          1           0       12.318780   -1.264105   -1.175158
    124          1           0       11.478404    1.572617   -0.422528
    125          1           0       13.356375    1.277173   -2.693172
    126          1           0       12.517575    2.637090   -2.036936
    127          1           0       11.523959    1.347396   -2.778984
    128          1           0       14.464561    0.530806   -0.682220
    129          1           0       13.483806   -0.116114    0.602300
    130          1           0       13.851791    1.667195    1.877433
    131          1           0       12.961666    2.676484    0.734604
    132          1           0       14.992355    3.733257    1.066124
    133          1           0       15.052119    3.062091   -0.467631
    134          1           0       16.221854    0.908202    1.149633
    135          1           0       16.249298    3.391073    2.751032
    136          1           0       17.792580    3.179522    1.973257
    137          1           0       16.966630    1.894642    3.023110
    138          1           0       18.357569    2.687876   -0.009908
    139          1           0       17.084479    2.742832   -1.059340
    140          1           0       17.634220    1.140081   -0.514105
 ---------------------------------------------------------------------

 SCF Done:  E(RZINDO/S) =  -473.964558353     A.U. after   19 cycles

 Excitation energies and oscillator strengths:

 Excited State   1:      Singlet-A      1.3516 eV  917.34 nm  f=0.5299  <S**2>=0.000
     175 ->178        -0.17797
     176 ->177         0.66640
 This state for optimization and/or second-order correction.
 Total Energy, E(CIS/TDA) =  -473.914889303
 Copying the excited state density for this state as the 1-particle RhoCI density.

 Excited State   2:      Singlet-A      1.8923 eV  655.20 nm  f=0.0199  <S**2>=0.000
     175 ->177         0.51968
     176 ->178         0.44615

 Excited State   3:      Singlet-A      2.9563 eV  419.39 nm  f=1.0802  <S**2>=0.000
     175 ->177        -0.41943
     176 ->178         0.50260

 Excited State   4:      Singlet-A      2.9788 eV  416.22 nm  f=0.0620  <S**2>=0.000
     167 ->179         0.13886
     168 ->177        -0.27750
     168 ->178         0.10386
     168 ->179         0.44745
     168 ->181        -0.18711
     168 ->183         0.11683
     168 ->186         0.21986
     168 ->188         0.10579
     176 ->178        -0.11087

 Excited State   5:      Singlet-A      2.9990 eV  413.42 nm  f=0.1827  <S**2>=0.000
     175 ->178         0.10472
     176 ->179         0.61625
     176 ->181         0.23646

 The electronic state is 1-A.
 Alpha  occ. eigenvalues --   -1.84499  -1.80377  -1.79052  -1.72284  -1.70254
 Alpha  occ. eigenvalues --   -1.68346  -1.64574  -1.61111  -1.60780  -1.55093
 Alpha  occ. eigenvalues --   -1.54655  -1.51148  -1.47323  -1.46265  -1.45383
 Alpha  occ. eigenvalues --   -1.44497  -1.41637  -1.39700  -1.38487  -1.38199
 Alpha  occ. eigenvalues --   -1.35674  -1.34140  -1.32891  -1.31564  -1.28079
 Alpha  occ. eigenvalues --   -1.27641  -1.24977  -1.22903  -1.19864  -1.17659
 Alpha  occ. eigenvalues --   -1.17200  -1.16098  -1.15038  -1.14094  -1.12846
 Alpha  occ. eigenvalues --   -1.12742  -1.11321  -1.09635  -1.04011  -1.03033
 Alpha  occ. eigenvalues --   -1.02608  -1.00459  -0.98379  -0.97139  -0.96587
 Alpha  occ. eigenvalues --   -0.95665  -0.95086  -0.93851  -0.93196  -0.93053
 Alpha  occ. eigenvalues --   -0.92305  -0.90098  -0.89422  -0.89328  -0.87342
 Alpha  occ. eigenvalues --   -0.86615  -0.84970  -0.83267  -0.81758  -0.80579
 Alpha  occ. eigenvalues --   -0.79845  -0.78254  -0.76822  -0.76057  -0.75894
 Alpha  occ. eigenvalues --   -0.75567  -0.74398  -0.74091  -0.73892  -0.73653
 Alpha  occ. eigenvalues --   -0.73220  -0.72329  -0.71985  -0.70979  -0.70746
 Alpha  occ. eigenvalues --   -0.70040  -0.69778  -0.69110  -0.68009  -0.67659
 Alpha  occ. eigenvalues --   -0.67154  -0.66620  -0.65909  -0.65787  -0.65667
 Alpha  occ. eigenvalues --   -0.65496  -0.64657  -0.64353  -0.64073  -0.63479
 Alpha  occ. eigenvalues --   -0.63128  -0.62785  -0.62574  -0.62319  -0.62022
 Alpha  occ. eigenvalues --   -0.61401  -0.61308  -0.61270  -0.61180  -0.60914
 Alpha  occ. eigenvalues --   -0.60863  -0.59940  -0.59587  -0.59141  -0.58555
 Alpha  occ. eigenvalues --   -0.58226  -0.57696  -0.57535  -0.57065  -0.56162
 Alpha  occ. eigenvalues --   -0.55994  -0.55206  -0.55073  -0.54993  -0.54694
 Alpha  occ. eigenvalues --   -0.54065  -0.53595  -0.53065  -0.52931  -0.52643
 Alpha  occ. eigenvalues --   -0.52143  -0.51947  -0.51660  -0.51518  -0.51313
 Alpha  occ. eigenvalues --   -0.50648  -0.50506  -0.50294  -0.50086  -0.50026
 Alpha  occ. eigenvalues --   -0.49684  -0.49524  -0.49259  -0.48889  -0.48620
 Alpha  occ. eigenvalues --   -0.48509  -0.48481  -0.48341  -0.48070  -0.47522
 Alpha  occ. eigenvalues --   -0.47309  -0.47096  -0.47043  -0.46939  -0.46577
 Alpha  occ. eigenvalues --   -0.46410  -0.46007  -0.45948  -0.45774  -0.45575
 Alpha  occ. eigenvalues --   -0.45310  -0.44794  -0.44556  -0.44286  -0.44147
 Alpha  occ. eigenvalues --   -0.43763  -0.43662  -0.43144  -0.42668  -0.42449
 Alpha  occ. eigenvalues --   -0.41829  -0.41423  -0.40499  -0.39254  -0.38396
 Alpha  occ. eigenvalues --   -0.37457  -0.37089  -0.36355  -0.34955  -0.33992
 Alpha  occ. eigenvalues --   -0.33829  -0.32915  -0.31854  -0.30927  -0.26159
 Alpha  occ. eigenvalues --   -0.21453
 Alpha virt. eigenvalues --   -0.07693  -0.02189  -0.00876   0.00650   0.01442
 Alpha virt. eigenvalues --    0.02241   0.03009   0.03641   0.04417   0.04567
 Alpha virt. eigenvalues --    0.05653   0.06100   0.06814   0.07494   0.07776

 Mulliken charges:
               1
     1  Mg   0.433102
     2  C   -0.070571
     3  C   -0.117322
     4  C   -0.072855
     5  C   -0.061746
     6  N   -0.294048
     7  C    0.126720
     8  C    0.013609
     9  C    0.013454
    10  C    0.149597
    11  C   -0.050557
    12  C   -0.024951
    13  C    0.000023
    14  C    0.463776
    15  O   -0.500136
    16  O   -0.276162
    17  N   -0.314994
    18  C    0.155805
    19  C    0.020612
    20  C   -0.036036
    21  C    0.138675
    22  C   -0.036472
    23  C    0.340337
    24  O   -0.507290
    25  C   -0.027681
    26  N   -0.257714
    27  C    0.167313
    28  C    0.007545
    29  C    0.006939
    30  C    0.068453
    31  C   -0.054930
    32  C   -0.032754
    33  C   -0.058255
    34  N   -0.306850
    35  C    0.078590
    36  C    0.004505
    37  C   -0.069003
    38  C    0.110568
    39  C   -0.035512
    40  C    0.324719
    41  O   -0.535384
    42  C    0.049895
    43  C    0.486541
    44  O   -0.522178
    45  O   -0.272333
    46  C    0.074796
    47  C    0.117260
    48  C   -0.089325
    49  C   -0.012750
    50  C   -0.054424
    51  C   -0.018395
    52  C   -0.017242
    53  C   -0.020805
    54  C   -0.007492
    55  C   -0.059028
    56  C   -0.034715
    57  C   -0.047963
    58  C   -0.040662
    59  C   -0.013918
    60  C   -0.060600
    61  C   -0.046175
    62  C   -0.046146
    63  C   -0.035756
    64  C   -0.006582
    65  C   -0.058209
    66  C   -0.061509
    67  H    0.022893
    68  H    0.042016
    69  H    0.022659
    70  H    0.050879
    71  H    0.032296
    72  H    0.021652
    73  H    0.034036
    74  H    0.020638
    75  H    0.019526
    76  H    0.030675
    77  H    0.032602
    78  H    0.047922
    79  H    0.032798
    80  H    0.031452
    81  H    0.026294
    82  H    0.028295
    83  H    0.044215
    84  H    0.046945
    85  H    0.029600
    86  H    0.025737
    87  H    0.020998
    88  H    0.033030
    89  H    0.019745
    90  H    0.021521
    91  H    0.018441
    92  H    0.024787
    93  H    0.014201
    94  H    0.031812
    95  H    0.014723
    96  H    0.038913
    97  H    0.032718
    98  H    0.048874
    99  H    0.047768
   100  H    0.039884
   101  H    0.048027
   102  H    0.049581
   103  H    0.059566
   104  H    0.013830
   105  H    0.028381
   106  H    0.015919
   107  H    0.029081
   108  H    0.018328
   109  H    0.021008
   110  H    0.018704
   111  H    0.022595
   112  H    0.011999
   113  H    0.015177
   114  H    0.019316
   115  H    0.014476
   116  H    0.016415
   117  H    0.022922
   118  H    0.015527
   119  H    0.009072
   120  H    0.032048
   121  H    0.014302
   122  H    0.028883
   123  H    0.014906
   124  H    0.035656
   125  H    0.022213
   126  H    0.009226
   127  H    0.017040
   128  H    0.035072
   129  H    0.010669
   130  H    0.014502
   131  H    0.013825
   132  H    0.015533
   133  H    0.009257
   134  H    0.034602
   135  H    0.019578
   136  H    0.021631
   137  H    0.012206
   138  H    0.020356
   139  H    0.019970
   140  H    0.012650
 Sum of Mulliken charges =  -0.00000

 Dipole moment (field-independent basis, Debye):
    X=             10.2800    Y=              7.7830    Z=             -4.4501  Tot=             13.6403
 N-N= 4.280241905974D+03 E-N= 0.000000000000D+00  KE=-9.234670589465D+03
 Leave Link  601 at Wed May  4 07:46:48 2022, MaxMem=  6710886400 cpu:               1.0 elap:               0.1
 (Enter /sw/apps/gaussian-16.0/g16/l9999.exe)
 1\1\GINC-BP1-COMPUTE035\SP\RZINDO CIS\STO-3G\C55H74Mg1N4O6\OF15641\04-
 May-2022\0\\#p ZINDO=(nstates=5)\\step_1451_chromophore_21 ZINDO\\0,1\
 Mg,0,15.932,52.349,25.464\C,0,17.624,50.969,28.268\C,0,13.347,53.161,2
 7.558\C,0,14.102,53.436,22.765\C,0,18.283,50.994,23.435\N,0,15.566,51.
 918,27.736\C,0,16.435,51.576,28.674\C,0,15.907,51.774,30.052\C,0,14.52
 9,52.491,29.844\C,0,14.434,52.521,28.308\C,0,13.269,51.929,30.613\C,0,
 16.964,52.511,30.928\C,0,17.228,51.887,32.354\C,0,16.078,51.043,32.968

 Normal termination of Gaussian 16 at Wed May  4 07:46:49 2022.
