 Gaussian 16, Revision A.03,
 Gaussian 16:  ES64L-G16RevA.03 25-Dec-2016

 ------------------------------
 #p blyp/Def2SVP td=(nstates=5)
 ------------------------------

 --------------------------------------------------
 step_251_chromophore_20 TDDFT with blyp functional
 --------------------------------------------------
 Symbolic Z-matrix:
 Charge =  0 Multiplicity = 1

                         Standard orientation:
 ---------------------------------------------------------------------
 Center     Atomic      Atomic             Coordinates (Angstroms)
 Number     Number       Type             X           Y           Z
 ---------------------------------------------------------------------
      1         12           0        4.338497    1.032074   -0.587070
      2          6           0        4.022968   -2.453967   -1.007219
      3          6           0        1.741574    1.400913   -2.761262
      4          6           0        4.141507    4.301087    0.390788
      5          6           0        6.654404    0.289846    2.017865
      6          7           0        2.918118   -0.407562   -1.660283
      7          6           0        3.040568   -1.756600   -1.832201
      8          6           0        1.886853   -2.345713   -2.662122
      9          6           0        1.494607   -0.997291   -3.443417
     10          6           0        2.091338    0.077229   -2.568824
     11          6           0        2.011601   -0.889702   -4.903098
     12          6           0        0.661098   -2.892366   -1.800684
     13          6           0       -0.250273   -3.948765   -2.406101
     14          6           0       -1.709535   -3.644083   -2.806412
     15          8           0       -2.221178   -3.700351   -3.913332
     16          8           0       -2.454621   -3.278488   -1.717839
     17          7           0        3.133940    2.735891   -1.106340
     18          6           0        2.227764    2.664004   -2.124131
     19          6           0        1.761048    3.932733   -2.472007
     20          6           0        2.457856    4.840502   -1.588495
     21          6           0        3.279434    3.996994   -0.675011
     22          6           0        0.755722    4.223424   -3.579809
     23          6           0        2.276991    6.340106   -1.655923
     24          8           0        1.500608    6.833736   -2.513985
     25          6           0        3.092843    7.355744   -0.780944
     26          7           0        5.276257    2.062480    0.958387
     27          6           0        5.050979    3.453891    1.140144
     28          6           0        6.095280    4.026685    2.057553
     29          6           0        6.649128    2.803080    2.819330
     30          6           0        6.256029    1.639643    1.862911
     31          6           0        7.306723    4.783091    1.467091
     32          6           0        5.937959    2.601014    4.259294
     33          6           0        6.468088    3.388407    5.448083
     34          7           0        5.297988   -0.733774    0.184759
     35          6           0        6.209279   -0.872443    1.220876
     36          6           0        6.506054   -2.199906    1.466105
     37          6           0        5.694933   -2.900552    0.557046
     38          6           0        4.962255   -1.955574   -0.180840
     39          6           0        7.480642   -2.691934    2.489130
     40          6           0        5.420608   -4.141351    0.053471
     41          8           0        5.950251   -5.212157    0.276293
     42          6           0        4.148272   -3.920491   -0.791397
     43          6           0        3.043015   -4.545706    0.006284
     44          8           0        2.764175   -4.231802    1.121535
     45          8           0        2.455016   -5.585310   -0.716435
     46          6           0        1.515953   -6.318094    0.059556
     47          6           0       -3.903512   -3.391808   -1.961001
     48          6           0       -4.822081   -3.489634   -0.666763
     49          6           0       -5.124917   -4.635926   -0.013834
     50          6           0       -4.240156   -5.914988   -0.078364
     51          6           0       -6.135909   -4.618935    1.095118
     52          6           0       -5.558519   -4.260019    2.512739
     53          6           0       -6.672051   -3.504053    3.310897
     54          6           0       -6.645407   -1.903296    3.271348
     55          6           0       -6.074301   -1.188696    4.410457
     56          6           0       -7.981041   -1.295413    2.761502
     57          6           0       -7.698287   -0.128284    1.754778
     58          6           0       -8.200120    1.219797    2.258084
     59          6           0       -7.256334    2.368422    1.869382
     60          6           0       -6.326246    2.670896    2.989809
     61          6           0       -8.072010    3.667736    1.528756
     62          6           0       -7.932122    3.961661   -0.032672
     63          6           0       -8.927632    3.302148   -0.937907
     64          6           0      -10.120763    4.206129   -1.272917
     65          6           0      -11.443448    3.664952   -0.748325
     66          6           0      -10.153202    4.722439   -2.710804
     67          1           0        1.062422    1.579278   -3.597845
     68          1           0        4.269095    5.364503    0.605799
     69          1           0        7.470638    0.152513    2.729840
     70          1           0        2.235814   -3.032935   -3.432146
     71          1           0        0.406838   -0.986161   -3.506387
     72          1           0        1.138374   -1.189471   -5.483188
     73          1           0        2.818540   -1.592818   -5.109100
     74          1           0        2.275855    0.136005   -5.160906
     75          1           0       -0.024559   -2.080286   -1.558631
     76          1           0        1.076085   -3.208573   -0.843411
     77          1           0       -0.252380   -4.747611   -1.663103
     78          1           0        0.257741   -4.344277   -3.285496
     79          1           0        0.860056    5.127444   -4.180716
     80          1           0       -0.150660    4.172596   -2.976945
     81          1           0        0.827221    3.460600   -4.355137
     82          1           0        4.152254    7.271569   -1.021634
     83          1           0        2.834661    7.045567    0.231404
     84          1           0        2.755983    8.391968   -0.807207
     85          1           0        5.562179    4.653237    2.771895
     86          1           0        7.727296    2.861748    2.968811
     87          1           0        8.269293    4.288206    1.594922
     88          1           0        7.199328    5.861088    1.589241
     89          1           0        7.160679    4.700901    0.390169
     90          1           0        6.093883    1.530681    4.392592
     91          1           0        4.869240    2.806599    4.195796
     92          1           0        5.641118    3.913059    5.925820
     93          1           0        7.202321    4.114851    5.098724
     94          1           0        6.888368    2.727783    6.206841
     95          1           0        6.957509   -3.464831    3.051467
     96          1           0        7.750012   -1.925256    3.216641
     97          1           0        8.372392   -3.136134    2.046561
     98          1           0        4.278073   -4.444786   -1.737537
     99          1           0        2.012851   -7.166794    0.528764
    100          1           0        0.761122   -6.828531   -0.539805
    101          1           0        1.053024   -5.710264    0.835073
    102          1           0       -4.082465   -4.323369   -2.498936
    103          1           0       -4.228842   -2.482111   -2.465146
    104          1           0       -5.454645   -2.626872   -0.457350
    105          1           0       -3.801189   -6.156871    0.889204
    106          1           0       -3.388648   -5.702835   -0.724402
    107          1           0       -4.934827   -6.712900   -0.342338
    108          1           0       -6.612366   -5.599292    1.087635
    109          1           0       -6.975374   -3.943264    0.928858
    110          1           0       -4.668835   -3.630595    2.517973
    111          1           0       -5.282411   -5.209489    2.971659
    112          1           0       -6.560420   -3.899237    4.320928
    113          1           0       -7.615487   -3.869232    2.903820
    114          1           0       -5.942324   -1.691765    2.465452
    115          1           0       -6.766540   -0.414771    4.741656
    116          1           0       -5.143316   -0.692045    4.135908
    117          1           0       -5.817594   -1.869044    5.222879
    118          1           0       -8.613166   -1.104174    3.628994
    119          1           0       -8.542162   -1.997600    2.145489
    120          1           0       -8.155558   -0.361019    0.793077
    121          1           0       -6.627995   -0.073396    1.560952
    122          1           0       -8.371280    1.061746    3.322372
    123          1           0       -9.181690    1.359502    1.803177
    124          1           0       -6.546837    2.095476    1.088003
    125          1           0       -5.541725    3.362368    2.680996
    126          1           0       -5.836330    1.775334    3.372506
    127          1           0       -6.886735    3.158442    3.787508
    128          1           0       -7.733021    4.535150    2.094776
    129          1           0       -9.113439    3.439475    1.753540
    130          1           0       -6.913606    3.715327   -0.333403
    131          1           0       -7.824149    5.044727   -0.099565
    132          1           0       -9.368856    2.412366   -0.490368
    133          1           0       -8.480381    2.928542   -1.858594
    134          1           0       -9.913913    5.079161   -0.655120
    135          1           0      -11.383657    2.632855   -0.402842
    136          1           0      -12.282484    3.645927   -1.443025
    137          1           0      -11.838761    4.266297    0.070768
    138          1           0      -11.146176    4.572455   -3.136649
    139          1           0       -9.485290    4.081390   -3.286549
    140          1           0       -9.723334    5.720822   -2.791187
 ---------------------------------------------------------------------

 SCF Done:  E(RB-LYP) =  -3007.34693159     A.U. after   22 cycles

 Excitation energies and oscillator strengths:

 Excited State   1:      Singlet-A      1.4694 eV  843.78 nm  f=0.0003  <S**2>=0.000
     244 -> 247        0.15922
     245 -> 247        0.68790
 This state for optimization and/or second-order correction.
 Total Energy, E(TD-HF/TD-DFT) =  -3007.29293246
 Copying the excited state density for this state as the 1-particle RhoCI density.

 Excited State   2:      Singlet-A      1.7071 eV  726.27 nm  f=0.0192  <S**2>=0.000
     243 -> 247        0.65439
     244 -> 247       -0.19270
     246 -> 247        0.17633

 Excited State   3:      Singlet-A      1.8184 eV  681.82 nm  f=0.2911  <S**2>=0.000
     243 -> 247       -0.14225
     244 -> 247        0.12485
     244 -> 248       -0.19922
     246 -> 247        0.65799
     246 <- 247       -0.14269

 Excited State   4:      Singlet-A      1.9666 eV  630.44 nm  f=0.0807  <S**2>=0.000
     243 -> 247        0.21705
     244 -> 247        0.59530
     245 -> 247       -0.13501
     246 -> 248        0.24553

 Excited State   5:      Singlet-A      2.2310 eV  555.72 nm  f=0.0003  <S**2>=0.000
     241 -> 247        0.70605

 The electronic state is 1-A.
 Alpha  occ. eigenvalues --  -46.28688 -18.82609 -18.81799 -18.77855 -18.76954
 Alpha  occ. eigenvalues --  -18.75074 -18.74753 -14.04101 -14.03913 -14.01383
 Alpha  occ. eigenvalues --  -14.00846 -10.04329 -10.04327  -9.99807  -9.98233
 Alpha  occ. eigenvalues --   -9.98053  -9.97770  -9.97731  -9.97278  -9.97226
 Alpha  occ. eigenvalues --   -9.96451  -9.96355  -9.95923  -9.95763  -9.95274
 Alpha  occ. eigenvalues --   -9.94385  -9.94064  -9.94013  -9.93990  -9.93938
 Alpha  occ. eigenvalues --   -9.93928  -9.93875  -9.93849  -9.93700  -9.93612
 Alpha  occ. eigenvalues --   -9.93559  -9.93328  -9.93291  -9.93185  -9.93143
 Alpha  occ. eigenvalues --   -9.92832  -9.92831  -9.92791  -9.92738  -9.92479
 Alpha  occ. eigenvalues --   -9.92253  -9.92142  -9.92139  -9.92123  -9.92049
 Alpha  occ. eigenvalues --   -9.92010  -9.91582  -9.91463  -9.91103  -9.91070
 Alpha  occ. eigenvalues --   -9.91008  -9.91006  -9.90961  -9.90821  -9.90675
 Alpha  occ. eigenvalues --   -9.90578  -9.90513  -9.90437  -9.90368  -9.90233
 Alpha  occ. eigenvalues --   -9.90203  -2.93089  -1.73507  -1.72963  -1.72809
 Alpha  occ. eigenvalues --   -0.99130  -0.98086  -0.92074  -0.91314  -0.89520
 Alpha  occ. eigenvalues --   -0.89076  -0.87930  -0.87032  -0.86311  -0.84433
 Alpha  occ. eigenvalues --   -0.77142  -0.73649  -0.73128  -0.72848  -0.72175
 Alpha  occ. eigenvalues --   -0.72159  -0.72084  -0.71154  -0.71034  -0.70706
 Alpha  occ. eigenvalues --   -0.69625  -0.69005  -0.67876  -0.67645  -0.67349
 Alpha  occ. eigenvalues --   -0.66385  -0.66066  -0.64923  -0.64873  -0.64468
 Alpha  occ. eigenvalues --   -0.64316  -0.62855  -0.62126  -0.61604  -0.60669
 Alpha  occ. eigenvalues --   -0.60623  -0.60450  -0.60241  -0.59589  -0.59002
 Alpha  occ. eigenvalues --   -0.58678  -0.57911  -0.57330  -0.55809  -0.54748
 Alpha  occ. eigenvalues --   -0.54063  -0.53865  -0.52975  -0.52394  -0.52307
 Alpha  occ. eigenvalues --   -0.51273  -0.50940  -0.50894  -0.50313  -0.49982
 Alpha  occ. eigenvalues --   -0.49454  -0.49119  -0.49118  -0.48570  -0.46909
 Alpha  occ. eigenvalues --   -0.46556  -0.46174  -0.45732  -0.45717  -0.45470
 Alpha  occ. eigenvalues --   -0.44708  -0.43939  -0.43554  -0.43388  -0.42404
 Alpha  occ. eigenvalues --   -0.42007  -0.41873  -0.41650  -0.41184  -0.41148
 Alpha  occ. eigenvalues --   -0.40932  -0.40777  -0.40631  -0.40284  -0.40011
 Alpha  occ. eigenvalues --   -0.39763  -0.39735  -0.39563  -0.39270  -0.39168
 Alpha  occ. eigenvalues --   -0.39075  -0.38782  -0.38646  -0.38483  -0.38304
 Alpha  occ. eigenvalues --   -0.38245  -0.37973  -0.37869  -0.37722  -0.37497
 Alpha  occ. eigenvalues --   -0.37433  -0.37356  -0.36972  -0.36880  -0.36796
 Alpha  occ. eigenvalues --   -0.36365  -0.36231  -0.36127  -0.35757  -0.35421
 Alpha  occ. eigenvalues --   -0.35199  -0.35126  -0.35025  -0.34901  -0.34614
 Alpha  occ. eigenvalues --   -0.34539  -0.34408  -0.34312  -0.34135  -0.34078
 Alpha  occ. eigenvalues --   -0.34065  -0.33652  -0.33629  -0.33478  -0.33352
 Alpha  occ. eigenvalues --   -0.33130  -0.32987  -0.32756  -0.32569  -0.32311
 Alpha  occ. eigenvalues --   -0.32190  -0.32081  -0.31783  -0.31469  -0.31442
 Alpha  occ. eigenvalues --   -0.31322  -0.31153  -0.30843  -0.30597  -0.30539
 Alpha  occ. eigenvalues --   -0.30412  -0.30181  -0.29938  -0.29773  -0.29718
 Alpha  occ. eigenvalues --   -0.29609  -0.29585  -0.29518  -0.29444  -0.29295
 Alpha  occ. eigenvalues --   -0.29241  -0.28934  -0.28421  -0.27886  -0.27825
 Alpha  occ. eigenvalues --   -0.27526  -0.27395  -0.27057  -0.26856  -0.26462
 Alpha  occ. eigenvalues --   -0.26314  -0.26167  -0.25762  -0.25511  -0.25423
 Alpha  occ. eigenvalues --   -0.25249  -0.24912  -0.24740  -0.24400  -0.24106
 Alpha  occ. eigenvalues --   -0.23384  -0.23044  -0.22269  -0.22120  -0.20779
 Alpha  occ. eigenvalues --   -0.20525  -0.20282  -0.18527  -0.17690  -0.17658
 Alpha  occ. eigenvalues --   -0.16628
 Alpha virt. eigenvalues --   -0.12327  -0.07624  -0.06552  -0.04475  -0.03734
 Alpha virt. eigenvalues --   -0.03491  -0.02925  -0.02670  -0.02158  -0.00050
 Alpha virt. eigenvalues --    0.00751   0.01490   0.01992   0.02458   0.02697

 Mulliken charges:
               1
     1  Mg   0.686283
     2  C    0.043629
     3  C   -0.062839
     4  C   -0.054947
     5  C   -0.060412
     6  N   -0.171518
     7  C   -0.120742
     8  C    0.050229
     9  C   -0.057000
    10  C    0.060594
    11  C    0.132189
    12  C    0.112167
    13  C    0.175768
    14  C    0.058531
    15  O   -0.183587
    16  O   -0.279675
    17  N   -0.255800
    18  C    0.100448
    19  C   -0.137375
    20  C    0.029993
    21  C    0.116267
    22  C    0.189461
    23  C   -0.084663
    24  O   -0.200939
    25  C    0.122377
    26  N   -0.284648
    27  C    0.036473
    28  C    0.024391
    29  C   -0.011138
    30  C    0.035796
    31  C    0.167758
    32  C    0.058243
    33  C    0.098283
    34  N   -0.209543
    35  C    0.097333
    36  C   -0.158862
    37  C    0.153393
    38  C    0.055834
    39  C    0.184932
    40  C   -0.139821
    41  O   -0.127298
    42  C    0.079566
    43  C    0.098816
    44  O   -0.145488
    45  O   -0.268131
    46  C    0.209132
    47  C    0.283388
    48  C   -0.091122
    49  C   -0.138233
    50  C    0.128946
    51  C    0.114130
    52  C    0.067847
    53  C    0.099427
    54  C   -0.084606
    55  C    0.148871
    56  C    0.086514
    57  C    0.034478
    58  C    0.130847
    59  C   -0.058410
    60  C    0.097162
    61  C    0.112314
    62  C    0.058033
    63  C    0.149143
    64  C   -0.106065
    65  C    0.097657
    66  C    0.138113
    67  H   -0.062282
    68  H   -0.074357
    69  H   -0.048173
    70  H   -0.030586
    71  H   -0.015805
    72  H   -0.001553
    73  H   -0.002715
    74  H   -0.002963
    75  H   -0.014684
    76  H   -0.010276
    77  H   -0.005742
    78  H   -0.016912
    79  H    0.014750
    80  H    0.014327
    81  H   -0.013900
    82  H    0.020674
    83  H    0.005971
    84  H   -0.010521
    85  H   -0.031349
    86  H   -0.032057
    87  H    0.001517
    88  H   -0.003693
    89  H   -0.033028
    90  H   -0.028393
    91  H   -0.014670
    92  H   -0.010086
    93  H   -0.009371
    94  H   -0.003395
    95  H    0.006316
    96  H   -0.022179
    97  H    0.014579
    98  H   -0.032247
    99  H    0.005581
   100  H    0.007926
   101  H    0.018829
   102  H    0.010431
   103  H   -0.002446
   104  H   -0.032830
   105  H    0.002678
   106  H   -0.007346
   107  H    0.002953
   108  H   -0.034647
   109  H   -0.025900
   110  H   -0.016091
   111  H   -0.028751
   112  H   -0.042663
   113  H   -0.035601
   114  H   -0.035977
   115  H   -0.015323
   116  H   -0.009116
   117  H   -0.025645
   118  H   -0.024083
   119  H   -0.045793
   120  H   -0.028136
   121  H   -0.023558
   122  H   -0.035940
   123  H   -0.036731
   124  H   -0.030181
   125  H   -0.023535
   126  H   -0.030119
   127  H   -0.023608
   128  H   -0.036532
   129  H   -0.031900
   130  H   -0.048650
   131  H   -0.043170
   132  H   -0.045445
   133  H   -0.042433
   134  H   -0.035236
   135  H   -0.023863
   136  H   -0.031029
   137  H   -0.015266
   138  H   -0.017690
   139  H   -0.034238
   140  H   -0.008018
 Sum of Mulliken charges =  -0.00000

 Dipole moment (field-independent basis, Debye):
    X=              0.6683    Y=              0.7818    Z=              2.4246  Tot=              2.6338
 Quadrupole moment (field-independent basis, Debye-Ang):
   XX=           -382.8405   YY=           -427.0885   ZZ=           -408.0167
   XY=             42.4781   XZ=             -0.8453   YZ=             13.4342

 Normal termination of Gaussian 16 at Wed May  4 18:51:39 2022.
