 Gaussian 16, Revision A.03,
 Gaussian 16:  ES64L-G16RevA.03 25-Dec-2016

 -----------------------------------
 #p cam-b3lyp/Def2SVP td=(nstates=5)
 -----------------------------------

 -------------------------------------------------------
 step_251_chromophore_20 TDDFT with cam-b3lyp functional
 -------------------------------------------------------
 Symbolic Z-matrix:
 Charge =  0 Multiplicity = 1

                         Standard orientation:
 ---------------------------------------------------------------------
 Center     Atomic      Atomic             Coordinates (Angstroms)
 Number     Number       Type             X           Y           Z
 ---------------------------------------------------------------------
      1         12           0        4.338497    1.032074   -0.587070
      2          6           0        4.022968   -2.453967   -1.007219
      3          6           0        1.741574    1.400913   -2.761262
      4          6           0        4.141507    4.301087    0.390788
      5          6           0        6.654404    0.289846    2.017865
      6          7           0        2.918118   -0.407562   -1.660283
      7          6           0        3.040568   -1.756600   -1.832201
      8          6           0        1.886853   -2.345713   -2.662122
      9          6           0        1.494607   -0.997291   -3.443417
     10          6           0        2.091338    0.077229   -2.568824
     11          6           0        2.011601   -0.889702   -4.903098
     12          6           0        0.661098   -2.892366   -1.800684
     13          6           0       -0.250273   -3.948765   -2.406101
     14          6           0       -1.709535   -3.644083   -2.806412
     15          8           0       -2.221178   -3.700351   -3.913332
     16          8           0       -2.454621   -3.278488   -1.717839
     17          7           0        3.133940    2.735891   -1.106340
     18          6           0        2.227764    2.664004   -2.124131
     19          6           0        1.761048    3.932733   -2.472007
     20          6           0        2.457856    4.840502   -1.588495
     21          6           0        3.279434    3.996994   -0.675011
     22          6           0        0.755722    4.223424   -3.579809
     23          6           0        2.276991    6.340106   -1.655923
     24          8           0        1.500608    6.833736   -2.513985
     25          6           0        3.092843    7.355744   -0.780944
     26          7           0        5.276257    2.062480    0.958387
     27          6           0        5.050979    3.453891    1.140144
     28          6           0        6.095280    4.026685    2.057553
     29          6           0        6.649128    2.803080    2.819330
     30          6           0        6.256029    1.639643    1.862911
     31          6           0        7.306723    4.783091    1.467091
     32          6           0        5.937959    2.601014    4.259294
     33          6           0        6.468088    3.388407    5.448083
     34          7           0        5.297988   -0.733774    0.184759
     35          6           0        6.209279   -0.872443    1.220876
     36          6           0        6.506054   -2.199906    1.466105
     37          6           0        5.694933   -2.900552    0.557046
     38          6           0        4.962255   -1.955574   -0.180840
     39          6           0        7.480642   -2.691934    2.489130
     40          6           0        5.420608   -4.141351    0.053471
     41          8           0        5.950251   -5.212157    0.276293
     42          6           0        4.148272   -3.920491   -0.791397
     43          6           0        3.043015   -4.545706    0.006284
     44          8           0        2.764175   -4.231802    1.121535
     45          8           0        2.455016   -5.585310   -0.716435
     46          6           0        1.515953   -6.318094    0.059556
     47          6           0       -3.903512   -3.391808   -1.961001
     48          6           0       -4.822081   -3.489634   -0.666763
     49          6           0       -5.124917   -4.635926   -0.013834
     50          6           0       -4.240156   -5.914988   -0.078364
     51          6           0       -6.135909   -4.618935    1.095118
     52          6           0       -5.558519   -4.260019    2.512739
     53          6           0       -6.672051   -3.504053    3.310897
     54          6           0       -6.645407   -1.903296    3.271348
     55          6           0       -6.074301   -1.188696    4.410457
     56          6           0       -7.981041   -1.295413    2.761502
     57          6           0       -7.698287   -0.128284    1.754778
     58          6           0       -8.200120    1.219797    2.258084
     59          6           0       -7.256334    2.368422    1.869382
     60          6           0       -6.326246    2.670896    2.989809
     61          6           0       -8.072010    3.667736    1.528756
     62          6           0       -7.932122    3.961661   -0.032672
     63          6           0       -8.927632    3.302148   -0.937907
     64          6           0      -10.120763    4.206129   -1.272917
     65          6           0      -11.443448    3.664952   -0.748325
     66          6           0      -10.153202    4.722439   -2.710804
     67          1           0        1.062422    1.579278   -3.597845
     68          1           0        4.269095    5.364503    0.605799
     69          1           0        7.470638    0.152513    2.729840
     70          1           0        2.235814   -3.032935   -3.432146
     71          1           0        0.406838   -0.986161   -3.506387
     72          1           0        1.138374   -1.189471   -5.483188
     73          1           0        2.818540   -1.592818   -5.109100
     74          1           0        2.275855    0.136005   -5.160906
     75          1           0       -0.024559   -2.080286   -1.558631
     76          1           0        1.076085   -3.208573   -0.843411
     77          1           0       -0.252380   -4.747611   -1.663103
     78          1           0        0.257741   -4.344277   -3.285496
     79          1           0        0.860056    5.127444   -4.180716
     80          1           0       -0.150660    4.172596   -2.976945
     81          1           0        0.827221    3.460600   -4.355137
     82          1           0        4.152254    7.271569   -1.021634
     83          1           0        2.834661    7.045567    0.231404
     84          1           0        2.755983    8.391968   -0.807207
     85          1           0        5.562179    4.653237    2.771895
     86          1           0        7.727296    2.861748    2.968811
     87          1           0        8.269293    4.288206    1.594922
     88          1           0        7.199328    5.861088    1.589241
     89          1           0        7.160679    4.700901    0.390169
     90          1           0        6.093883    1.530681    4.392592
     91          1           0        4.869240    2.806599    4.195796
     92          1           0        5.641118    3.913059    5.925820
     93          1           0        7.202321    4.114851    5.098724
     94          1           0        6.888368    2.727783    6.206841
     95          1           0        6.957509   -3.464831    3.051467
     96          1           0        7.750012   -1.925256    3.216641
     97          1           0        8.372392   -3.136134    2.046561
     98          1           0        4.278073   -4.444786   -1.737537
     99          1           0        2.012851   -7.166794    0.528764
    100          1           0        0.761122   -6.828531   -0.539805
    101          1           0        1.053024   -5.710264    0.835073
    102          1           0       -4.082465   -4.323369   -2.498936
    103          1           0       -4.228842   -2.482111   -2.465146
    104          1           0       -5.454645   -2.626872   -0.457350
    105          1           0       -3.801189   -6.156871    0.889204
    106          1           0       -3.388648   -5.702835   -0.724402
    107          1           0       -4.934827   -6.712900   -0.342338
    108          1           0       -6.612366   -5.599292    1.087635
    109          1           0       -6.975374   -3.943264    0.928858
    110          1           0       -4.668835   -3.630595    2.517973
    111          1           0       -5.282411   -5.209489    2.971659
    112          1           0       -6.560420   -3.899237    4.320928
    113          1           0       -7.615487   -3.869232    2.903820
    114          1           0       -5.942324   -1.691765    2.465452
    115          1           0       -6.766540   -0.414771    4.741656
    116          1           0       -5.143316   -0.692045    4.135908
    117          1           0       -5.817594   -1.869044    5.222879
    118          1           0       -8.613166   -1.104174    3.628994
    119          1           0       -8.542162   -1.997600    2.145489
    120          1           0       -8.155558   -0.361019    0.793077
    121          1           0       -6.627995   -0.073396    1.560952
    122          1           0       -8.371280    1.061746    3.322372
    123          1           0       -9.181690    1.359502    1.803177
    124          1           0       -6.546837    2.095476    1.088003
    125          1           0       -5.541725    3.362368    2.680996
    126          1           0       -5.836330    1.775334    3.372506
    127          1           0       -6.886735    3.158442    3.787508
    128          1           0       -7.733021    4.535150    2.094776
    129          1           0       -9.113439    3.439475    1.753540
    130          1           0       -6.913606    3.715327   -0.333403
    131          1           0       -7.824149    5.044727   -0.099565
    132          1           0       -9.368856    2.412366   -0.490368
    133          1           0       -8.480381    2.928542   -1.858594
    134          1           0       -9.913913    5.079161   -0.655120
    135          1           0      -11.383657    2.632855   -0.402842
    136          1           0      -12.282484    3.645927   -1.443025
    137          1           0      -11.838761    4.266297    0.070768
    138          1           0      -11.146176    4.572455   -3.136649
    139          1           0       -9.485290    4.081390   -3.286549
    140          1           0       -9.723334    5.720822   -2.791187
 ---------------------------------------------------------------------

 SCF Done:  E(RCAM-B3LYP) =  -3007.14033144     A.U. after   17 cycles

 Excitation energies and oscillator strengths:

 Excited State   1:      Singlet-A      1.7082 eV  725.83 nm  f=0.3896  <S**2>=0.000
     245 -> 248       -0.18581
     246 -> 247        0.68234
     245 <- 248       -0.10816
 This state for optimization and/or second-order correction.
 Total Energy, E(TD-HF/TD-DFT) =  -3007.07755727
 Copying the excited state density for this state as the 1-particle RhoCI density.

 Excited State   2:      Singlet-A      2.1430 eV  578.55 nm  f=0.1308  <S**2>=0.000
     245 -> 247        0.65046
     246 -> 248        0.25998

 Excited State   3:      Singlet-A      3.1331 eV  395.72 nm  f=0.0099  <S**2>=0.000
     244 -> 247        0.67063

 Excited State   4:      Singlet-A      3.2583 eV  380.52 nm  f=0.0002  <S**2>=0.000
     240 -> 247        0.30049
     240 -> 249       -0.13385
     242 -> 247        0.31560
     242 -> 249        0.16316
     242 -> 251        0.13018
     243 -> 247        0.39792
     243 -> 249        0.13324
     244 -> 249       -0.10034

 Excited State   5:      Singlet-A      3.2710 eV  379.04 nm  f=0.0005  <S**2>=0.000
     239 -> 247        0.14576
     240 -> 247        0.47723
     240 -> 249       -0.19746
     240 -> 251        0.13121
     242 -> 249       -0.12623
     243 -> 247       -0.36548

 The electronic state is 1-A.
 Alpha  occ. eigenvalues --  -46.90378 -19.25617 -19.24704 -19.21095 -19.20041
 Alpha  occ. eigenvalues --  -19.18169 -19.17937 -14.43257 -14.42734 -14.39883
 Alpha  occ. eigenvalues --  -14.39273 -10.39866 -10.39684 -10.35077 -10.33437
 Alpha  occ. eigenvalues --  -10.32475 -10.32412 -10.32243 -10.31690 -10.31250
 Alpha  occ. eigenvalues --  -10.31015 -10.30789 -10.30301 -10.29999 -10.29477
 Alpha  occ. eigenvalues --  -10.28413 -10.28358 -10.28276 -10.28133 -10.28127
 Alpha  occ. eigenvalues --  -10.28074 -10.28015 -10.27955 -10.27929 -10.27897
 Alpha  occ. eigenvalues --  -10.27727 -10.27604 -10.27561 -10.27505 -10.27476
 Alpha  occ. eigenvalues --  -10.26546 -10.26531 -10.26498 -10.26496 -10.26415
 Alpha  occ. eigenvalues --  -10.26139 -10.26051 -10.25860 -10.25849 -10.25779
 Alpha  occ. eigenvalues --  -10.25711 -10.25265 -10.25160 -10.24764 -10.24742
 Alpha  occ. eigenvalues --  -10.24713 -10.24624 -10.24623 -10.24455 -10.24228
 Alpha  occ. eigenvalues --  -10.24191 -10.24176 -10.24153 -10.23989 -10.23939
 Alpha  occ. eigenvalues --  -10.23755  -3.18670  -1.93568  -1.93118  -1.92967
 Alpha  occ. eigenvalues --   -1.17837  -1.16626  -1.10209  -1.09620  -1.07420
 Alpha  occ. eigenvalues --   -1.07371  -1.05839  -1.04718  -1.03991  -1.01979
 Alpha  occ. eigenvalues --   -0.94430  -0.90510  -0.89965  -0.89667  -0.88894
 Alpha  occ. eigenvalues --   -0.88858  -0.88747  -0.87740  -0.87663  -0.87247
 Alpha  occ. eigenvalues --   -0.86118  -0.85501  -0.84125  -0.83824  -0.83557
 Alpha  occ. eigenvalues --   -0.82428  -0.82104  -0.80832  -0.80776  -0.80469
 Alpha  occ. eigenvalues --   -0.80120  -0.78536  -0.77655  -0.77249  -0.76101
 Alpha  occ. eigenvalues --   -0.75984  -0.75806  -0.75614  -0.74877  -0.74248
 Alpha  occ. eigenvalues --   -0.73794  -0.72940  -0.72317  -0.70687  -0.69505
 Alpha  occ. eigenvalues --   -0.68545  -0.68452  -0.67489  -0.66680  -0.66629
 Alpha  occ. eigenvalues --   -0.65479  -0.65083  -0.64829  -0.64337  -0.64044
 Alpha  occ. eigenvalues --   -0.63245  -0.63045  -0.62978  -0.62437  -0.60666
 Alpha  occ. eigenvalues --   -0.60233  -0.59767  -0.59307  -0.59269  -0.59131
 Alpha  occ. eigenvalues --   -0.58152  -0.57269  -0.56832  -0.56553  -0.55762
 Alpha  occ. eigenvalues --   -0.55501  -0.55170  -0.54552  -0.54194  -0.54062
 Alpha  occ. eigenvalues --   -0.53658  -0.53409  -0.53244  -0.52951  -0.52819
 Alpha  occ. eigenvalues --   -0.52651  -0.52462  -0.52331  -0.51909  -0.51828
 Alpha  occ. eigenvalues --   -0.51634  -0.51267  -0.50977  -0.50930  -0.50727
 Alpha  occ. eigenvalues --   -0.50597  -0.50373  -0.50217  -0.50071  -0.49859
 Alpha  occ. eigenvalues --   -0.49825  -0.49479  -0.49399  -0.49045  -0.48954
 Alpha  occ. eigenvalues --   -0.48860  -0.48550  -0.48365  -0.48120  -0.47500
 Alpha  occ. eigenvalues --   -0.47336  -0.47140  -0.46994  -0.46812  -0.46521
 Alpha  occ. eigenvalues --   -0.46448  -0.46421  -0.46278  -0.46069  -0.46052
 Alpha  occ. eigenvalues --   -0.45766  -0.45627  -0.45343  -0.45133  -0.45102
 Alpha  occ. eigenvalues --   -0.44950  -0.44768  -0.44595  -0.44196  -0.43901
 Alpha  occ. eigenvalues --   -0.43761  -0.43711  -0.43455  -0.43222  -0.43071
 Alpha  occ. eigenvalues --   -0.42919  -0.42693  -0.42590  -0.42316  -0.42083
 Alpha  occ. eigenvalues --   -0.41824  -0.41502  -0.41345  -0.41240  -0.41139
 Alpha  occ. eigenvalues --   -0.41007  -0.40695  -0.40584  -0.40563  -0.40367
 Alpha  occ. eigenvalues --   -0.40356  -0.40012  -0.39403  -0.38953  -0.38805
 Alpha  occ. eigenvalues --   -0.38360  -0.38335  -0.37977  -0.37834  -0.37656
 Alpha  occ. eigenvalues --   -0.37287  -0.37199  -0.36708  -0.36447  -0.36317
 Alpha  occ. eigenvalues --   -0.36090  -0.35849  -0.35654  -0.35294  -0.35162
 Alpha  occ. eigenvalues --   -0.34421  -0.33480  -0.33348  -0.31524  -0.30526
 Alpha  occ. eigenvalues --   -0.30288  -0.30087  -0.29984  -0.29575  -0.24384
 Alpha  occ. eigenvalues --   -0.22114
 Alpha virt. eigenvalues --   -0.09652  -0.02560  -0.00155   0.01370   0.02533
 Alpha virt. eigenvalues --    0.03907   0.04510   0.04783   0.05162   0.07222
 Alpha virt. eigenvalues --    0.07649   0.07940   0.08212   0.08747   0.09010

 Mulliken charges:
               1
     1  Mg   0.815969
     2  C    0.014278
     3  C   -0.064899
     4  C   -0.076243
     5  C   -0.071822
     6  N   -0.233134
     7  C   -0.075056
     8  C    0.002963
     9  C   -0.106552
    10  C    0.064909
    11  C    0.075653
    12  C    0.058157
    13  C    0.111544
    14  C    0.135480
    15  O   -0.224983
    16  O   -0.340948
    17  N   -0.343610
    18  C    0.106569
    19  C   -0.141601
    20  C   -0.040910
    21  C    0.144218
    22  C    0.134048
    23  C   -0.011025
    24  O   -0.242612
    25  C    0.048389
    26  N   -0.357455
    27  C    0.064407
    28  C   -0.039393
    29  C   -0.064000
    30  C    0.055406
    31  C    0.104205
    32  C    0.008802
    33  C    0.034442
    34  N   -0.298832
    35  C    0.103865
    36  C   -0.160022
    37  C    0.083315
    38  C    0.089074
    39  C    0.137653
    40  C   -0.048408
    41  O   -0.168364
    42  C   -0.002085
    43  C    0.187671
    44  O   -0.179836
    45  O   -0.329419
    46  C    0.162061
    47  C    0.249630
    48  C   -0.108441
    49  C   -0.158229
    50  C    0.072926
    51  C    0.054835
    52  C    0.016771
    53  C    0.047183
    54  C   -0.140835
    55  C    0.086572
    56  C    0.030592
    57  C   -0.010135
    58  C    0.076473
    59  C   -0.116858
    60  C    0.045144
    61  C    0.058816
    62  C   -0.002090
    63  C    0.093959
    64  C   -0.167712
    65  C    0.039233
    66  C    0.078679
    67  H   -0.025557
    68  H   -0.039700
    69  H   -0.014938
    70  H    0.005253
    71  H    0.017995
    72  H    0.023355
    73  H    0.021292
    74  H    0.022109
    75  H    0.018546
    76  H    0.017906
    77  H    0.023954
    78  H    0.016723
    79  H    0.045943
    80  H    0.041374
    81  H    0.009738
    82  H    0.046472
    83  H    0.030857
    84  H    0.024961
    85  H    0.004715
    86  H    0.002958
    87  H    0.027729
    88  H    0.021518
    89  H   -0.005704
    90  H    0.000801
    91  H    0.012664
    92  H    0.013760
    93  H    0.012364
    94  H    0.020673
    95  H    0.032553
    96  H    0.002712
    97  H    0.040657
    98  H    0.015748
    99  H    0.030323
   100  H    0.029382
   101  H    0.045447
   102  H    0.038758
   103  H    0.026436
   104  H   -0.003223
   105  H    0.025983
   106  H    0.013866
   107  H    0.026338
   108  H   -0.004929
   109  H    0.001686
   110  H    0.011691
   111  H   -0.000155
   112  H   -0.012841
   113  H   -0.007186
   114  H   -0.006152
   115  H    0.006764
   116  H    0.013958
   117  H    0.001217
   118  H    0.004080
   119  H   -0.015402
   120  H   -0.001015
   121  H    0.001048
   122  H   -0.007894
   123  H   -0.009358
   124  H    0.000051
   125  H    0.001742
   126  H   -0.008081
   127  H   -0.000059
   128  H   -0.005020
   129  H   -0.004767
   130  H   -0.018336
   131  H   -0.013089
   132  H   -0.019527
   133  H   -0.011558
   134  H   -0.001938
   135  H   -0.000729
   136  H   -0.005618
   137  H    0.008661
   138  H    0.006515
   139  H   -0.010542
   140  H    0.015658
 Sum of Mulliken charges =  -0.00000

 Dipole moment (field-independent basis, Debye):
    X=              0.6703    Y=              1.0549    Z=              2.2848  Tot=              2.6043
 Quadrupole moment (field-independent basis, Debye-Ang):
   XX=           -383.0167   YY=           -423.6255   ZZ=           -407.3490
   XY=             45.1582   XZ=             -0.7580   YZ=             14.2391

 Normal termination of Gaussian 16 at Wed May  4 17:06:35 2022.
