 Gaussian 16, Revision A.03,
 Gaussian 16:  ES64L-G16RevA.03 25-Dec-2016

 ---------------------------------
 #p PBE1PBE/Def2SVP td=(nstates=5)
 ---------------------------------

 -----------------------------------------------------
 step_251_chromophore_20 TDDFT with PBE1PBE functional
 -----------------------------------------------------
 Symbolic Z-matrix:
 Charge =  0 Multiplicity = 1

                         Standard orientation:
 ---------------------------------------------------------------------
 Center     Atomic      Atomic             Coordinates (Angstroms)
 Number     Number       Type             X           Y           Z
 ---------------------------------------------------------------------
      1         12           0        4.338497    1.032074   -0.587070
      2          6           0        4.022968   -2.453967   -1.007219
      3          6           0        1.741574    1.400913   -2.761262
      4          6           0        4.141507    4.301087    0.390788
      5          6           0        6.654404    0.289846    2.017865
      6          7           0        2.918118   -0.407562   -1.660283
      7          6           0        3.040568   -1.756600   -1.832201
      8          6           0        1.886853   -2.345713   -2.662122
      9          6           0        1.494607   -0.997291   -3.443417
     10          6           0        2.091338    0.077229   -2.568824
     11          6           0        2.011601   -0.889702   -4.903098
     12          6           0        0.661098   -2.892366   -1.800684
     13          6           0       -0.250273   -3.948765   -2.406101
     14          6           0       -1.709535   -3.644083   -2.806412
     15          8           0       -2.221178   -3.700351   -3.913332
     16          8           0       -2.454621   -3.278488   -1.717839
     17          7           0        3.133940    2.735891   -1.106340
     18          6           0        2.227764    2.664004   -2.124131
     19          6           0        1.761048    3.932733   -2.472007
     20          6           0        2.457856    4.840502   -1.588495
     21          6           0        3.279434    3.996994   -0.675011
     22          6           0        0.755722    4.223424   -3.579809
     23          6           0        2.276991    6.340106   -1.655923
     24          8           0        1.500608    6.833736   -2.513985
     25          6           0        3.092843    7.355744   -0.780944
     26          7           0        5.276257    2.062480    0.958387
     27          6           0        5.050979    3.453891    1.140144
     28          6           0        6.095280    4.026685    2.057553
     29          6           0        6.649128    2.803080    2.819330
     30          6           0        6.256029    1.639643    1.862911
     31          6           0        7.306723    4.783091    1.467091
     32          6           0        5.937959    2.601014    4.259294
     33          6           0        6.468088    3.388407    5.448083
     34          7           0        5.297988   -0.733774    0.184759
     35          6           0        6.209279   -0.872443    1.220876
     36          6           0        6.506054   -2.199906    1.466105
     37          6           0        5.694933   -2.900552    0.557046
     38          6           0        4.962255   -1.955574   -0.180840
     39          6           0        7.480642   -2.691934    2.489130
     40          6           0        5.420608   -4.141351    0.053471
     41          8           0        5.950251   -5.212157    0.276293
     42          6           0        4.148272   -3.920491   -0.791397
     43          6           0        3.043015   -4.545706    0.006284
     44          8           0        2.764175   -4.231802    1.121535
     45          8           0        2.455016   -5.585310   -0.716435
     46          6           0        1.515953   -6.318094    0.059556
     47          6           0       -3.903512   -3.391808   -1.961001
     48          6           0       -4.822081   -3.489634   -0.666763
     49          6           0       -5.124917   -4.635926   -0.013834
     50          6           0       -4.240156   -5.914988   -0.078364
     51          6           0       -6.135909   -4.618935    1.095118
     52          6           0       -5.558519   -4.260019    2.512739
     53          6           0       -6.672051   -3.504053    3.310897
     54          6           0       -6.645407   -1.903296    3.271348
     55          6           0       -6.074301   -1.188696    4.410457
     56          6           0       -7.981041   -1.295413    2.761502
     57          6           0       -7.698287   -0.128284    1.754778
     58          6           0       -8.200120    1.219797    2.258084
     59          6           0       -7.256334    2.368422    1.869382
     60          6           0       -6.326246    2.670896    2.989809
     61          6           0       -8.072010    3.667736    1.528756
     62          6           0       -7.932122    3.961661   -0.032672
     63          6           0       -8.927632    3.302148   -0.937907
     64          6           0      -10.120763    4.206129   -1.272917
     65          6           0      -11.443448    3.664952   -0.748325
     66          6           0      -10.153202    4.722439   -2.710804
     67          1           0        1.062422    1.579278   -3.597845
     68          1           0        4.269095    5.364503    0.605799
     69          1           0        7.470638    0.152513    2.729840
     70          1           0        2.235814   -3.032935   -3.432146
     71          1           0        0.406838   -0.986161   -3.506387
     72          1           0        1.138374   -1.189471   -5.483188
     73          1           0        2.818540   -1.592818   -5.109100
     74          1           0        2.275855    0.136005   -5.160906
     75          1           0       -0.024559   -2.080286   -1.558631
     76          1           0        1.076085   -3.208573   -0.843411
     77          1           0       -0.252380   -4.747611   -1.663103
     78          1           0        0.257741   -4.344277   -3.285496
     79          1           0        0.860056    5.127444   -4.180716
     80          1           0       -0.150660    4.172596   -2.976945
     81          1           0        0.827221    3.460600   -4.355137
     82          1           0        4.152254    7.271569   -1.021634
     83          1           0        2.834661    7.045567    0.231404
     84          1           0        2.755983    8.391968   -0.807207
     85          1           0        5.562179    4.653237    2.771895
     86          1           0        7.727296    2.861748    2.968811
     87          1           0        8.269293    4.288206    1.594922
     88          1           0        7.199328    5.861088    1.589241
     89          1           0        7.160679    4.700901    0.390169
     90          1           0        6.093883    1.530681    4.392592
     91          1           0        4.869240    2.806599    4.195796
     92          1           0        5.641118    3.913059    5.925820
     93          1           0        7.202321    4.114851    5.098724
     94          1           0        6.888368    2.727783    6.206841
     95          1           0        6.957509   -3.464831    3.051467
     96          1           0        7.750012   -1.925256    3.216641
     97          1           0        8.372392   -3.136134    2.046561
     98          1           0        4.278073   -4.444786   -1.737537
     99          1           0        2.012851   -7.166794    0.528764
    100          1           0        0.761122   -6.828531   -0.539805
    101          1           0        1.053024   -5.710264    0.835073
    102          1           0       -4.082465   -4.323369   -2.498936
    103          1           0       -4.228842   -2.482111   -2.465146
    104          1           0       -5.454645   -2.626872   -0.457350
    105          1           0       -3.801189   -6.156871    0.889204
    106          1           0       -3.388648   -5.702835   -0.724402
    107          1           0       -4.934827   -6.712900   -0.342338
    108          1           0       -6.612366   -5.599292    1.087635
    109          1           0       -6.975374   -3.943264    0.928858
    110          1           0       -4.668835   -3.630595    2.517973
    111          1           0       -5.282411   -5.209489    2.971659
    112          1           0       -6.560420   -3.899237    4.320928
    113          1           0       -7.615487   -3.869232    2.903820
    114          1           0       -5.942324   -1.691765    2.465452
    115          1           0       -6.766540   -0.414771    4.741656
    116          1           0       -5.143316   -0.692045    4.135908
    117          1           0       -5.817594   -1.869044    5.222879
    118          1           0       -8.613166   -1.104174    3.628994
    119          1           0       -8.542162   -1.997600    2.145489
    120          1           0       -8.155558   -0.361019    0.793077
    121          1           0       -6.627995   -0.073396    1.560952
    122          1           0       -8.371280    1.061746    3.322372
    123          1           0       -9.181690    1.359502    1.803177
    124          1           0       -6.546837    2.095476    1.088003
    125          1           0       -5.541725    3.362368    2.680996
    126          1           0       -5.836330    1.775334    3.372506
    127          1           0       -6.886735    3.158442    3.787508
    128          1           0       -7.733021    4.535150    2.094776
    129          1           0       -9.113439    3.439475    1.753540
    130          1           0       -6.913606    3.715327   -0.333403
    131          1           0       -7.824149    5.044727   -0.099565
    132          1           0       -9.368856    2.412366   -0.490368
    133          1           0       -8.480381    2.928542   -1.858594
    134          1           0       -9.913913    5.079161   -0.655120
    135          1           0      -11.383657    2.632855   -0.402842
    136          1           0      -12.282484    3.645927   -1.443025
    137          1           0      -11.838761    4.266297    0.070768
    138          1           0      -11.146176    4.572455   -3.136649
    139          1           0       -9.485290    4.081390   -3.286549
    140          1           0       -9.723334    5.720822   -2.791187
 ---------------------------------------------------------------------

 SCF Done:  E(RPBE1PBE) =  -3005.33095508     A.U. after   16 cycles

 Excitation energies and oscillator strengths:

 Excited State   1:      Singlet-A      1.8635 eV  665.34 nm  f=0.3738  <S**2>=0.000
     245 -> 248       -0.18219
     246 -> 247        0.68853
     246 <- 247       -0.10498
 This state for optimization and/or second-order correction.
 Total Energy, E(TD-HF/TD-DFT) =  -3005.26247379
 Copying the excited state density for this state as the 1-particle RhoCI density.

 Excited State   2:      Singlet-A      2.1539 eV  575.64 nm  f=0.1195  <S**2>=0.000
     245 -> 247        0.65704
     246 -> 248        0.24291

 Excited State   3:      Singlet-A      2.6235 eV  472.59 nm  f=0.0013  <S**2>=0.000
     244 -> 247        0.68078
     244 -> 249        0.13542

 Excited State   4:      Singlet-A      2.7251 eV  454.98 nm  f=0.0001  <S**2>=0.000
     240 -> 247        0.12910
     242 -> 247        0.54352
     242 -> 249       -0.12373
     243 -> 247        0.39006

 Excited State   5:      Singlet-A      2.8385 eV  436.80 nm  f=0.0070  <S**2>=0.000
     242 -> 247       -0.39971
     243 -> 247        0.57125

 The electronic state is 1-A.
 Alpha  occ. eigenvalues --  -46.93747 -19.26226 -19.25361 -19.21240 -19.20318
 Alpha  occ. eigenvalues --  -19.18426 -19.18196 -14.42570 -14.42389 -14.39489
 Alpha  occ. eigenvalues --  -14.38893 -10.36835 -10.36715 -10.32265 -10.30534
 Alpha  occ. eigenvalues --  -10.30177 -10.30167 -10.29642 -10.29499 -10.28592
 Alpha  occ. eigenvalues --  -10.28451 -10.28413 -10.27972 -10.27736 -10.27283
 Alpha  occ. eigenvalues --  -10.26260 -10.26046 -10.25899 -10.25877 -10.25757
 Alpha  occ. eigenvalues --  -10.25708 -10.25658 -10.25543 -10.25539 -10.25532
 Alpha  occ. eigenvalues --  -10.25511 -10.25303 -10.25259 -10.25166 -10.25115
 Alpha  occ. eigenvalues --  -10.24217 -10.24028 -10.23948 -10.23875 -10.23697
 Alpha  occ. eigenvalues --  -10.23634 -10.23602 -10.23410 -10.23365 -10.23283
 Alpha  occ. eigenvalues --  -10.23144 -10.22974 -10.22783 -10.22446 -10.22349
 Alpha  occ. eigenvalues --  -10.22294 -10.22273 -10.22182 -10.22012 -10.21932
 Alpha  occ. eigenvalues --  -10.21708 -10.21707 -10.21545 -10.21361 -10.21323
 Alpha  occ. eigenvalues --  -10.21109  -3.15626  -1.88464  -1.87993  -1.87844
 Alpha  occ. eigenvalues --   -1.12544  -1.11427  -1.04980  -1.04390  -1.02285
 Alpha  occ. eigenvalues --   -1.02092  -1.00403  -0.99405  -0.98648  -0.96574
 Alpha  occ. eigenvalues --   -0.88797  -0.84603  -0.84086  -0.83817  -0.83171
 Alpha  occ. eigenvalues --   -0.83070  -0.82992  -0.82013  -0.81864  -0.81557
 Alpha  occ. eigenvalues --   -0.80395  -0.79749  -0.78322  -0.78052  -0.77837
 Alpha  occ. eigenvalues --   -0.76598  -0.76353  -0.75094  -0.74964  -0.74662
 Alpha  occ. eigenvalues --   -0.74336  -0.72797  -0.71963  -0.71506  -0.70395
 Alpha  occ. eigenvalues --   -0.70256  -0.70037  -0.69697  -0.69031  -0.68402
 Alpha  occ. eigenvalues --   -0.68226  -0.67260  -0.66740  -0.64953  -0.63936
 Alpha  occ. eigenvalues --   -0.62970  -0.62648  -0.61932  -0.61085  -0.60891
 Alpha  occ. eigenvalues --   -0.59912  -0.59348  -0.59278  -0.58869  -0.58164
 Alpha  occ. eigenvalues --   -0.57752  -0.57503  -0.57232  -0.56628  -0.55140
 Alpha  occ. eigenvalues --   -0.54776  -0.54259  -0.53838  -0.53659  -0.53657
 Alpha  occ. eigenvalues --   -0.52781  -0.51663  -0.51221  -0.51099  -0.50213
 Alpha  occ. eigenvalues --   -0.50033  -0.49739  -0.49089  -0.48666  -0.48533
 Alpha  occ. eigenvalues --   -0.48246  -0.47830  -0.47809  -0.47475  -0.47327
 Alpha  occ. eigenvalues --   -0.47245  -0.46939  -0.46732  -0.46496  -0.46346
 Alpha  occ. eigenvalues --   -0.46143  -0.45841  -0.45577  -0.45466  -0.45260
 Alpha  occ. eigenvalues --   -0.45161  -0.44927  -0.44755  -0.44640  -0.44469
 Alpha  occ. eigenvalues --   -0.44412  -0.44041  -0.43988  -0.43676  -0.43584
 Alpha  occ. eigenvalues --   -0.43476  -0.43180  -0.43013  -0.42788  -0.42145
 Alpha  occ. eigenvalues --   -0.42029  -0.41804  -0.41616  -0.41412  -0.41222
 Alpha  occ. eigenvalues --   -0.41165  -0.41097  -0.40945  -0.40812  -0.40760
 Alpha  occ. eigenvalues --   -0.40443  -0.40332  -0.39898  -0.39880  -0.39739
 Alpha  occ. eigenvalues --   -0.39675  -0.39552  -0.39380  -0.38923  -0.38663
 Alpha  occ. eigenvalues --   -0.38555  -0.38421  -0.38242  -0.37958  -0.37851
 Alpha  occ. eigenvalues --   -0.37738  -0.37482  -0.37326  -0.37193  -0.36927
 Alpha  occ. eigenvalues --   -0.36638  -0.36287  -0.36171  -0.36027  -0.35885
 Alpha  occ. eigenvalues --   -0.35818  -0.35452  -0.35428  -0.35326  -0.35262
 Alpha  occ. eigenvalues --   -0.35143  -0.34785  -0.34194  -0.33867  -0.33588
 Alpha  occ. eigenvalues --   -0.33363  -0.33097  -0.32904  -0.32824  -0.32641
 Alpha  occ. eigenvalues --   -0.32169  -0.32006  -0.31732  -0.31336  -0.31194
 Alpha  occ. eigenvalues --   -0.30876  -0.30657  -0.30528  -0.30335  -0.30183
 Alpha  occ. eigenvalues --   -0.29204  -0.29074  -0.28328  -0.27148  -0.25753
 Alpha  occ. eigenvalues --   -0.25594  -0.25403  -0.25281  -0.24654  -0.21357
 Alpha  occ. eigenvalues --   -0.19691
 Alpha virt. eigenvalues --   -0.12039  -0.06048  -0.04340  -0.01912  -0.01443
 Alpha virt. eigenvalues --   -0.00533   0.00145   0.00374   0.00641   0.03058
 Alpha virt. eigenvalues --    0.03794   0.04056   0.04852   0.05284   0.05533

 Mulliken charges:
               1
     1  Mg   0.955325
     2  C   -0.003148
     3  C   -0.046448
     4  C   -0.072381
     5  C   -0.068222
     6  N   -0.334282
     7  C    0.011772
     8  C   -0.066533
     9  C   -0.180167
    10  C    0.094125
    11  C    0.020673
    12  C    0.005993
    13  C    0.033399
    14  C    0.196232
    15  O   -0.258932
    16  O   -0.367884
    17  N   -0.460204
    18  C    0.136791
    19  C   -0.169797
    20  C   -0.087413
    21  C    0.171439
    22  C    0.074343
    23  C    0.037261
    24  O   -0.274687
    25  C   -0.024596
    26  N   -0.452181
    27  C    0.098814
    28  C   -0.117382
    29  C   -0.143756
    30  C    0.097032
    31  C    0.046570
    32  C   -0.048276
    33  C   -0.037479
    34  N   -0.428592
    35  C    0.128714
    36  C   -0.177011
    37  C    0.035725
    38  C    0.138343
    39  C    0.087847
    40  C    0.039366
    41  O   -0.216258
    42  C   -0.115876
    43  C    0.278820
    44  O   -0.215053
    45  O   -0.360869
    46  C    0.105826
    47  C    0.201323
    48  C   -0.113704
    49  C   -0.199556
    50  C    0.006598
    51  C   -0.012139
    52  C   -0.043438
    53  C   -0.008783
    54  C   -0.229371
    55  C    0.030854
    56  C   -0.026596
    57  C   -0.067145
    58  C    0.021935
    59  C   -0.204603
    60  C   -0.017469
    61  C    0.004704
    62  C   -0.072043
    63  C    0.039806
    64  C   -0.259503
    65  C   -0.019024
    66  C    0.017504
    67  H    0.004043
    68  H   -0.004995
    69  H    0.016478
    70  H    0.041388
    71  H    0.054728
    72  H    0.051009
    73  H    0.048291
    74  H    0.049856
    75  H    0.051383
    76  H    0.056986
    77  H    0.062610
    78  H    0.048673
    79  H    0.071909
    80  H    0.070441
    81  H    0.035690
    82  H    0.072078
    83  H    0.056474
    84  H    0.052477
    85  H    0.042394
    86  H    0.038427
    87  H    0.054039
    88  H    0.048787
    89  H    0.024084
    90  H    0.035419
    91  H    0.045002
    92  H    0.041641
    93  H    0.040206
    94  H    0.048190
    95  H    0.060603
    96  H    0.029121
    97  H    0.067928
    98  H    0.052827
    99  H    0.053729
   100  H    0.050327
   101  H    0.066465
   102  H    0.065641
   103  H    0.053437
   104  H    0.026312
   105  H    0.053462
   106  H    0.043760
   107  H    0.054002
   108  H    0.028343
   109  H    0.035320
   110  H    0.043810
   111  H    0.032437
   112  H    0.020311
   113  H    0.025497
   114  H    0.035475
   115  H    0.033972
   116  H    0.039872
   117  H    0.028993
   118  H    0.035375
   119  H    0.017651
   120  H    0.031523
   121  H    0.031935
   122  H    0.024265
   123  H    0.023391
   124  H    0.035469
   125  H    0.031079
   126  H    0.024753
   127  H    0.028185
   128  H    0.026549
   129  H    0.029362
   130  H    0.015289
   131  H    0.019183
   132  H    0.016362
   133  H    0.020288
   134  H    0.038198
   135  H    0.025325
   136  H    0.021362
   137  H    0.035527
   138  H    0.033525
   139  H    0.017104
   140  H    0.042614
 Sum of Mulliken charges =  -0.00000

 Dipole moment (field-independent basis, Debye):
    X=              0.7589    Y=              1.0546    Z=              2.4658  Tot=              2.7871
 Quadrupole moment (field-independent basis, Debye-Ang):
   XX=           -378.7370   YY=           -420.6380   ZZ=           -403.5764
   XY=             45.6307   XZ=              0.5954   YZ=             14.4634

 Normal termination of Gaussian 16 at Wed May  4 17:39:28 2022.
