 Gaussian 16, Revision A.03,
 Gaussian 16:  ES64L-G16RevA.03 25-Dec-2016

 --------------------------------
 #p wB97XD/Def2SVP td=(nstates=5)
 --------------------------------

 ----------------------------------------------------
 step_251_chromophore_20 TDDFT with wB97XD functional
 ----------------------------------------------------
 Symbolic Z-matrix:
 Charge =  0 Multiplicity = 1

                         Standard orientation:
 ---------------------------------------------------------------------
 Center     Atomic      Atomic             Coordinates (Angstroms)
 Number     Number       Type             X           Y           Z
 ---------------------------------------------------------------------
      1         12           0        4.338497    1.032074   -0.587070
      2          6           0        4.022968   -2.453967   -1.007219
      3          6           0        1.741574    1.400913   -2.761262
      4          6           0        4.141507    4.301087    0.390788
      5          6           0        6.654404    0.289846    2.017865
      6          7           0        2.918118   -0.407562   -1.660283
      7          6           0        3.040568   -1.756600   -1.832201
      8          6           0        1.886853   -2.345713   -2.662122
      9          6           0        1.494607   -0.997291   -3.443417
     10          6           0        2.091338    0.077229   -2.568824
     11          6           0        2.011601   -0.889702   -4.903098
     12          6           0        0.661098   -2.892366   -1.800684
     13          6           0       -0.250273   -3.948765   -2.406101
     14          6           0       -1.709535   -3.644083   -2.806412
     15          8           0       -2.221178   -3.700351   -3.913332
     16          8           0       -2.454621   -3.278488   -1.717839
     17          7           0        3.133940    2.735891   -1.106340
     18          6           0        2.227764    2.664004   -2.124131
     19          6           0        1.761048    3.932733   -2.472007
     20          6           0        2.457856    4.840502   -1.588495
     21          6           0        3.279434    3.996994   -0.675011
     22          6           0        0.755722    4.223424   -3.579809
     23          6           0        2.276991    6.340106   -1.655923
     24          8           0        1.500608    6.833736   -2.513985
     25          6           0        3.092843    7.355744   -0.780944
     26          7           0        5.276257    2.062480    0.958387
     27          6           0        5.050979    3.453891    1.140144
     28          6           0        6.095280    4.026685    2.057553
     29          6           0        6.649128    2.803080    2.819330
     30          6           0        6.256029    1.639643    1.862911
     31          6           0        7.306723    4.783091    1.467091
     32          6           0        5.937959    2.601014    4.259294
     33          6           0        6.468088    3.388407    5.448083
     34          7           0        5.297988   -0.733774    0.184759
     35          6           0        6.209279   -0.872443    1.220876
     36          6           0        6.506054   -2.199906    1.466105
     37          6           0        5.694933   -2.900552    0.557046
     38          6           0        4.962255   -1.955574   -0.180840
     39          6           0        7.480642   -2.691934    2.489130
     40          6           0        5.420608   -4.141351    0.053471
     41          8           0        5.950251   -5.212157    0.276293
     42          6           0        4.148272   -3.920491   -0.791397
     43          6           0        3.043015   -4.545706    0.006284
     44          8           0        2.764175   -4.231802    1.121535
     45          8           0        2.455016   -5.585310   -0.716435
     46          6           0        1.515953   -6.318094    0.059556
     47          6           0       -3.903512   -3.391808   -1.961001
     48          6           0       -4.822081   -3.489634   -0.666763
     49          6           0       -5.124917   -4.635926   -0.013834
     50          6           0       -4.240156   -5.914988   -0.078364
     51          6           0       -6.135909   -4.618935    1.095118
     52          6           0       -5.558519   -4.260019    2.512739
     53          6           0       -6.672051   -3.504053    3.310897
     54          6           0       -6.645407   -1.903296    3.271348
     55          6           0       -6.074301   -1.188696    4.410457
     56          6           0       -7.981041   -1.295413    2.761502
     57          6           0       -7.698287   -0.128284    1.754778
     58          6           0       -8.200120    1.219797    2.258084
     59          6           0       -7.256334    2.368422    1.869382
     60          6           0       -6.326246    2.670896    2.989809
     61          6           0       -8.072010    3.667736    1.528756
     62          6           0       -7.932122    3.961661   -0.032672
     63          6           0       -8.927632    3.302148   -0.937907
     64          6           0      -10.120763    4.206129   -1.272917
     65          6           0      -11.443448    3.664952   -0.748325
     66          6           0      -10.153202    4.722439   -2.710804
     67          1           0        1.062422    1.579278   -3.597845
     68          1           0        4.269095    5.364503    0.605799
     69          1           0        7.470638    0.152513    2.729840
     70          1           0        2.235814   -3.032935   -3.432146
     71          1           0        0.406838   -0.986161   -3.506387
     72          1           0        1.138374   -1.189471   -5.483188
     73          1           0        2.818540   -1.592818   -5.109100
     74          1           0        2.275855    0.136005   -5.160906
     75          1           0       -0.024559   -2.080286   -1.558631
     76          1           0        1.076085   -3.208573   -0.843411
     77          1           0       -0.252380   -4.747611   -1.663103
     78          1           0        0.257741   -4.344277   -3.285496
     79          1           0        0.860056    5.127444   -4.180716
     80          1           0       -0.150660    4.172596   -2.976945
     81          1           0        0.827221    3.460600   -4.355137
     82          1           0        4.152254    7.271569   -1.021634
     83          1           0        2.834661    7.045567    0.231404
     84          1           0        2.755983    8.391968   -0.807207
     85          1           0        5.562179    4.653237    2.771895
     86          1           0        7.727296    2.861748    2.968811
     87          1           0        8.269293    4.288206    1.594922
     88          1           0        7.199328    5.861088    1.589241
     89          1           0        7.160679    4.700901    0.390169
     90          1           0        6.093883    1.530681    4.392592
     91          1           0        4.869240    2.806599    4.195796
     92          1           0        5.641118    3.913059    5.925820
     93          1           0        7.202321    4.114851    5.098724
     94          1           0        6.888368    2.727783    6.206841
     95          1           0        6.957509   -3.464831    3.051467
     96          1           0        7.750012   -1.925256    3.216641
     97          1           0        8.372392   -3.136134    2.046561
     98          1           0        4.278073   -4.444786   -1.737537
     99          1           0        2.012851   -7.166794    0.528764
    100          1           0        0.761122   -6.828531   -0.539805
    101          1           0        1.053024   -5.710264    0.835073
    102          1           0       -4.082465   -4.323369   -2.498936
    103          1           0       -4.228842   -2.482111   -2.465146
    104          1           0       -5.454645   -2.626872   -0.457350
    105          1           0       -3.801189   -6.156871    0.889204
    106          1           0       -3.388648   -5.702835   -0.724402
    107          1           0       -4.934827   -6.712900   -0.342338
    108          1           0       -6.612366   -5.599292    1.087635
    109          1           0       -6.975374   -3.943264    0.928858
    110          1           0       -4.668835   -3.630595    2.517973
    111          1           0       -5.282411   -5.209489    2.971659
    112          1           0       -6.560420   -3.899237    4.320928
    113          1           0       -7.615487   -3.869232    2.903820
    114          1           0       -5.942324   -1.691765    2.465452
    115          1           0       -6.766540   -0.414771    4.741656
    116          1           0       -5.143316   -0.692045    4.135908
    117          1           0       -5.817594   -1.869044    5.222879
    118          1           0       -8.613166   -1.104174    3.628994
    119          1           0       -8.542162   -1.997600    2.145489
    120          1           0       -8.155558   -0.361019    0.793077
    121          1           0       -6.627995   -0.073396    1.560952
    122          1           0       -8.371280    1.061746    3.322372
    123          1           0       -9.181690    1.359502    1.803177
    124          1           0       -6.546837    2.095476    1.088003
    125          1           0       -5.541725    3.362368    2.680996
    126          1           0       -5.836330    1.775334    3.372506
    127          1           0       -6.886735    3.158442    3.787508
    128          1           0       -7.733021    4.535150    2.094776
    129          1           0       -9.113439    3.439475    1.753540
    130          1           0       -6.913606    3.715327   -0.333403
    131          1           0       -7.824149    5.044727   -0.099565
    132          1           0       -9.368856    2.412366   -0.490368
    133          1           0       -8.480381    2.928542   -1.858594
    134          1           0       -9.913913    5.079161   -0.655120
    135          1           0      -11.383657    2.632855   -0.402842
    136          1           0      -12.282484    3.645927   -1.443025
    137          1           0      -11.838761    4.266297    0.070768
    138          1           0      -11.146176    4.572455   -3.136649
    139          1           0       -9.485290    4.081390   -3.286549
    140          1           0       -9.723334    5.720822   -2.791187
 ---------------------------------------------------------------------

 SCF Done:  E(RwB97XD) =  -3007.84038277     A.U. after   17 cycles

 Excitation energies and oscillator strengths:

 Excited State   1:      Singlet-A      1.6479 eV  752.37 nm  f=0.3881  <S**2>=0.000
     245 -> 248       -0.19162
     246 -> 247        0.68050
     245 <- 248       -0.11791
 This state for optimization and/or second-order correction.
 Total Energy, E(TD-HF/TD-DFT) =  -3007.77982319
 Copying the excited state density for this state as the 1-particle RhoCI density.

 Excited State   2:      Singlet-A      2.0910 eV  592.93 nm  f=0.1266  <S**2>=0.000
     245 -> 247        0.64866
     246 -> 248        0.26285

 Excited State   3:      Singlet-A      3.1666 eV  391.53 nm  f=0.0099  <S**2>=0.000
     243 -> 247       -0.26432
     244 -> 247        0.60962
     244 -> 249        0.13950

 Excited State   4:      Singlet-A      3.2917 eV  376.66 nm  f=0.0003  <S**2>=0.000
     240 -> 247        0.23465
     240 -> 249       -0.12001
     243 -> 247        0.50023
     243 -> 249        0.18506
     243 -> 251        0.12636
     244 -> 247        0.16094
     244 -> 249        0.18168
     244 -> 251        0.13348

 Excited State   5:      Singlet-A      3.3063 eV  375.00 nm  f=0.0006  <S**2>=0.000
     239 -> 247        0.12070
     240 -> 247        0.47472
     240 -> 249       -0.22995
     240 -> 251        0.14652
     242 -> 247        0.27842
     242 -> 249       -0.11250
     243 -> 247       -0.23592

 The electronic state is 1-A.
 Alpha  occ. eigenvalues --  -46.96712 -19.30852 -19.29951 -19.26012 -19.25004
 Alpha  occ. eigenvalues --  -19.23234 -19.22974 -14.47854 -14.47333 -14.44464
 Alpha  occ. eigenvalues --  -14.43878 -10.43721 -10.43516 -10.39070 -10.37429
 Alpha  occ. eigenvalues --  -10.36542 -10.36445 -10.36166 -10.35736 -10.35066
 Alpha  occ. eigenvalues --  -10.35002 -10.34797 -10.34358 -10.34022 -10.33566
 Alpha  occ. eigenvalues --  -10.32558 -10.32432 -10.32423 -10.32182 -10.32144
 Alpha  occ. eigenvalues --  -10.32093 -10.31994 -10.31961 -10.31942 -10.31919
 Alpha  occ. eigenvalues --  -10.31764 -10.31695 -10.31602 -10.31592 -10.31503
 Alpha  occ. eigenvalues --  -10.30479 -10.30394 -10.30372 -10.30335 -10.30276
 Alpha  occ. eigenvalues --  -10.30012 -10.30005 -10.29805 -10.29785 -10.29712
 Alpha  occ. eigenvalues --  -10.29509 -10.29241 -10.29116 -10.28730 -10.28686
 Alpha  occ. eigenvalues --  -10.28645 -10.28551 -10.28538 -10.28368 -10.28249
 Alpha  occ. eigenvalues --  -10.28080 -10.28076 -10.27993 -10.27789 -10.27744
 Alpha  occ. eigenvalues --  -10.27568  -3.22482  -1.96063  -1.95591  -1.95441
 Alpha  occ. eigenvalues --   -1.19993  -1.18817  -1.12417  -1.11851  -1.09646
 Alpha  occ. eigenvalues --   -1.09577  -1.07856  -1.06775  -1.06045  -1.03964
 Alpha  occ. eigenvalues --   -0.96455  -0.92274  -0.91764  -0.91491  -0.90826
 Alpha  occ. eigenvalues --   -0.90647  -0.90612  -0.89621  -0.89508  -0.89168
 Alpha  occ. eigenvalues --   -0.88044  -0.87434  -0.85978  -0.85683  -0.85489
 Alpha  occ. eigenvalues --   -0.84257  -0.84012  -0.82750  -0.82637  -0.82394
 Alpha  occ. eigenvalues --   -0.82004  -0.80456  -0.79574  -0.79189  -0.78038
 Alpha  occ. eigenvalues --   -0.77884  -0.77700  -0.77390  -0.76700  -0.76068
 Alpha  occ. eigenvalues --   -0.75777  -0.74877  -0.74296  -0.72608  -0.71493
 Alpha  occ. eigenvalues --   -0.70480  -0.70302  -0.69484  -0.68613  -0.68523
 Alpha  occ. eigenvalues --   -0.67442  -0.66923  -0.66783  -0.66347  -0.65842
 Alpha  occ. eigenvalues --   -0.65239  -0.64962  -0.64866  -0.64259  -0.62636
 Alpha  occ. eigenvalues --   -0.62228  -0.61727  -0.61265  -0.61199  -0.61131
 Alpha  occ. eigenvalues --   -0.60166  -0.59171  -0.58711  -0.58522  -0.57685
 Alpha  occ. eigenvalues --   -0.57467  -0.57162  -0.56492  -0.56090  -0.55977
 Alpha  occ. eigenvalues --   -0.55586  -0.55250  -0.55154  -0.54868  -0.54744
 Alpha  occ. eigenvalues --   -0.54581  -0.54344  -0.54255  -0.53848  -0.53738
 Alpha  occ. eigenvalues --   -0.53508  -0.53171  -0.52899  -0.52803  -0.52643
 Alpha  occ. eigenvalues --   -0.52532  -0.52268  -0.52122  -0.51971  -0.51777
 Alpha  occ. eigenvalues --   -0.51738  -0.51386  -0.51332  -0.50974  -0.50808
 Alpha  occ. eigenvalues --   -0.50779  -0.50495  -0.50288  -0.50034  -0.49422
 Alpha  occ. eigenvalues --   -0.49275  -0.49077  -0.48875  -0.48674  -0.48442
 Alpha  occ. eigenvalues --   -0.48364  -0.48335  -0.48168  -0.47995  -0.47971
 Alpha  occ. eigenvalues --   -0.47636  -0.47555  -0.47165  -0.47049  -0.46956
 Alpha  occ. eigenvalues --   -0.46875  -0.46701  -0.46511  -0.46074  -0.45851
 Alpha  occ. eigenvalues --   -0.45684  -0.45613  -0.45375  -0.45133  -0.45014
 Alpha  occ. eigenvalues --   -0.44831  -0.44661  -0.44471  -0.44295  -0.44008
 Alpha  occ. eigenvalues --   -0.43746  -0.43386  -0.43277  -0.43237  -0.43008
 Alpha  occ. eigenvalues --   -0.42893  -0.42549  -0.42447  -0.42421  -0.42258
 Alpha  occ. eigenvalues --   -0.42220  -0.41852  -0.41236  -0.40872  -0.40648
 Alpha  occ. eigenvalues --   -0.40291  -0.40181  -0.39907  -0.39814  -0.39593
 Alpha  occ. eigenvalues --   -0.39259  -0.39036  -0.38749  -0.38392  -0.38200
 Alpha  occ. eigenvalues --   -0.37929  -0.37685  -0.37644  -0.37167  -0.37131
 Alpha  occ. eigenvalues --   -0.36347  -0.35737  -0.35182  -0.33731  -0.32534
 Alpha  occ. eigenvalues --   -0.32317  -0.32215  -0.32033  -0.31690  -0.26294
 Alpha  occ. eigenvalues --   -0.23912
 Alpha virt. eigenvalues --   -0.08010  -0.00659   0.01932   0.04516   0.04635
 Alpha virt. eigenvalues --    0.06153   0.06859   0.07094   0.07335   0.09861
 Alpha virt. eigenvalues --    0.10256   0.10637   0.11536   0.11922   0.12212

 Mulliken charges:
               1
     1  Mg   0.949137
     2  C    0.000430
     3  C   -0.064426
     4  C   -0.087442
     5  C   -0.085567
     6  N   -0.298001
     7  C   -0.032260
     8  C   -0.040542
     9  C   -0.154457
    10  C    0.082058
    11  C    0.028851
    12  C    0.018813
    13  C    0.054231
    14  C    0.187416
    15  O   -0.256523
    16  O   -0.367694
    17  N   -0.426026
    18  C    0.122860
    19  C   -0.157648
    20  C   -0.085059
    21  C    0.169299
    22  C    0.086374
    23  C    0.032047
    24  O   -0.271269
    25  C   -0.011398
    26  N   -0.428220
    27  C    0.087539
    28  C   -0.092181
    29  C   -0.113361
    30  C    0.082465
    31  C    0.055251
    32  C   -0.033204
    33  C   -0.022711
    34  N   -0.388320
    35  C    0.120564
    36  C   -0.174877
    37  C    0.038837
    38  C    0.120838
    39  C    0.098405
    40  C    0.026053
    41  O   -0.206359
    42  C   -0.074573
    43  C    0.252274
    44  O   -0.209014
    45  O   -0.358561
    46  C    0.118431
    47  C    0.218472
    48  C   -0.125867
    49  C   -0.185277
    50  C    0.023602
    51  C    0.009863
    52  C   -0.030745
    53  C    0.009361
    54  C   -0.192170
    55  C    0.037478
    56  C   -0.011573
    57  C   -0.049303
    58  C    0.038822
    59  C   -0.173524
    60  C   -0.001176
    61  C    0.018740
    62  C   -0.049849
    63  C    0.056214
    64  C   -0.230944
    65  C   -0.006067
    66  C    0.031292
    67  H   -0.002386
    68  H   -0.015760
    69  H    0.010044
    70  H    0.030946
    71  H    0.044166
    72  H    0.046143
    73  H    0.042960
    74  H    0.043172
    75  H    0.043516
    76  H    0.043881
    77  H    0.051118
    78  H    0.043234
    79  H    0.069915
    80  H    0.065565
    81  H    0.030194
    82  H    0.067839
    83  H    0.050245
    84  H    0.051571
    85  H    0.031834
    86  H    0.028033
    87  H    0.049293
    88  H    0.044501
    89  H    0.015933
    90  H    0.024873
    91  H    0.036939
    92  H    0.036021
    93  H    0.032930
    94  H    0.043105
    95  H    0.055518
    96  H    0.023788
    97  H    0.063826
    98  H    0.048349
    99  H    0.050541
   100  H    0.046978
   101  H    0.062815
   102  H    0.058816
   103  H    0.049886
   104  H    0.022660
   105  H    0.047902
   106  H    0.034903
   107  H    0.048264
   108  H    0.020732
   109  H    0.022754
   110  H    0.034727
   111  H    0.025423
   112  H    0.012649
   113  H    0.014288
   114  H    0.014567
   115  H    0.025722
   116  H    0.035246
   117  H    0.024204
   118  H    0.027127
   119  H    0.008927
   120  H    0.024435
   121  H    0.018835
   122  H    0.012549
   123  H    0.013018
   124  H    0.022135
   125  H    0.025043
   126  H    0.013616
   127  H    0.020652
   128  H    0.020226
   129  H    0.017117
   130  H    0.006187
   131  H    0.010841
   132  H   -0.000063
   133  H    0.012823
   134  H    0.023754
   135  H    0.018664
   136  H    0.015335
   137  H    0.030135
   138  H    0.027430
   139  H    0.009310
   140  H    0.037690
 Sum of Mulliken charges =  -0.00000

 Dipole moment (field-independent basis, Debye):
    X=              0.6904    Y=              1.0899    Z=              2.2976  Tot=              2.6351
 Quadrupole moment (field-independent basis, Debye-Ang):
   XX=           -379.5160   YY=           -419.2764   ZZ=           -403.5181
   XY=             45.5527   XZ=             -0.1966   YZ=             14.0872

 Normal termination of Gaussian 16 at Wed May  4 18:27:10 2022.
