 Gaussian 16, Revision A.03,
 Gaussian 16:  ES64L-G16RevA.03 25-Dec-2016

 --------------------
 #p ZINDO=(nstates=5)
 --------------------

 -----------------------------
 step_251_chromophore_20 ZINDO
 -----------------------------
 Symbolic Z-matrix:
 Charge =  0 Multiplicity = 1

                         Standard orientation:
 ---------------------------------------------------------------------
 Center     Atomic      Atomic             Coordinates (Angstroms)
 Number     Number       Type             X           Y           Z
 ---------------------------------------------------------------------
      1         12           0        4.338497    1.032074   -0.587070
      2          6           0        4.022968   -2.453967   -1.007219
      3          6           0        1.741574    1.400913   -2.761262
      4          6           0        4.141507    4.301087    0.390788
      5          6           0        6.654404    0.289846    2.017865
      6          7           0        2.918118   -0.407562   -1.660283
      7          6           0        3.040568   -1.756600   -1.832201
      8          6           0        1.886853   -2.345713   -2.662122
      9          6           0        1.494607   -0.997291   -3.443417
     10          6           0        2.091338    0.077229   -2.568824
     11          6           0        2.011601   -0.889702   -4.903098
     12          6           0        0.661098   -2.892366   -1.800684
     13          6           0       -0.250273   -3.948765   -2.406101
     14          6           0       -1.709535   -3.644083   -2.806412
     15          8           0       -2.221178   -3.700351   -3.913332
     16          8           0       -2.454621   -3.278488   -1.717839
     17          7           0        3.133940    2.735891   -1.106340
     18          6           0        2.227764    2.664004   -2.124131
     19          6           0        1.761048    3.932733   -2.472007
     20          6           0        2.457856    4.840502   -1.588495
     21          6           0        3.279434    3.996994   -0.675011
     22          6           0        0.755722    4.223424   -3.579809
     23          6           0        2.276991    6.340106   -1.655923
     24          8           0        1.500608    6.833736   -2.513985
     25          6           0        3.092843    7.355744   -0.780944
     26          7           0        5.276257    2.062480    0.958387
     27          6           0        5.050979    3.453891    1.140144
     28          6           0        6.095280    4.026685    2.057553
     29          6           0        6.649128    2.803080    2.819330
     30          6           0        6.256029    1.639643    1.862911
     31          6           0        7.306723    4.783091    1.467091
     32          6           0        5.937959    2.601014    4.259294
     33          6           0        6.468088    3.388407    5.448083
     34          7           0        5.297988   -0.733774    0.184759
     35          6           0        6.209279   -0.872443    1.220876
     36          6           0        6.506054   -2.199906    1.466105
     37          6           0        5.694933   -2.900552    0.557046
     38          6           0        4.962255   -1.955574   -0.180840
     39          6           0        7.480642   -2.691934    2.489130
     40          6           0        5.420608   -4.141351    0.053471
     41          8           0        5.950251   -5.212157    0.276293
     42          6           0        4.148272   -3.920491   -0.791397
     43          6           0        3.043015   -4.545706    0.006284
     44          8           0        2.764175   -4.231802    1.121535
     45          8           0        2.455016   -5.585310   -0.716435
     46          6           0        1.515953   -6.318094    0.059556
     47          6           0       -3.903512   -3.391808   -1.961001
     48          6           0       -4.822081   -3.489634   -0.666763
     49          6           0       -5.124917   -4.635926   -0.013834
     50          6           0       -4.240156   -5.914988   -0.078364
     51          6           0       -6.135909   -4.618935    1.095118
     52          6           0       -5.558519   -4.260019    2.512739
     53          6           0       -6.672051   -3.504053    3.310897
     54          6           0       -6.645407   -1.903296    3.271348
     55          6           0       -6.074301   -1.188696    4.410457
     56          6           0       -7.981041   -1.295413    2.761502
     57          6           0       -7.698287   -0.128284    1.754778
     58          6           0       -8.200120    1.219797    2.258084
     59          6           0       -7.256334    2.368422    1.869382
     60          6           0       -6.326246    2.670896    2.989809
     61          6           0       -8.072010    3.667736    1.528756
     62          6           0       -7.932122    3.961661   -0.032672
     63          6           0       -8.927632    3.302148   -0.937907
     64          6           0      -10.120763    4.206129   -1.272917
     65          6           0      -11.443448    3.664952   -0.748325
     66          6           0      -10.153202    4.722439   -2.710804
     67          1           0        1.062422    1.579278   -3.597845
     68          1           0        4.269095    5.364503    0.605799
     69          1           0        7.470638    0.152513    2.729840
     70          1           0        2.235814   -3.032935   -3.432146
     71          1           0        0.406838   -0.986161   -3.506387
     72          1           0        1.138374   -1.189471   -5.483188
     73          1           0        2.818540   -1.592818   -5.109100
     74          1           0        2.275855    0.136005   -5.160906
     75          1           0       -0.024559   -2.080286   -1.558631
     76          1           0        1.076085   -3.208573   -0.843411
     77          1           0       -0.252380   -4.747611   -1.663103
     78          1           0        0.257741   -4.344277   -3.285496
     79          1           0        0.860056    5.127444   -4.180716
     80          1           0       -0.150660    4.172596   -2.976945
     81          1           0        0.827221    3.460600   -4.355137
     82          1           0        4.152254    7.271569   -1.021634
     83          1           0        2.834661    7.045567    0.231404
     84          1           0        2.755983    8.391968   -0.807207
     85          1           0        5.562179    4.653237    2.771895
     86          1           0        7.727296    2.861748    2.968811
     87          1           0        8.269293    4.288206    1.594922
     88          1           0        7.199328    5.861088    1.589241
     89          1           0        7.160679    4.700901    0.390169
     90          1           0        6.093883    1.530681    4.392592
     91          1           0        4.869240    2.806599    4.195796
     92          1           0        5.641118    3.913059    5.925820
     93          1           0        7.202321    4.114851    5.098724
     94          1           0        6.888368    2.727783    6.206841
     95          1           0        6.957509   -3.464831    3.051467
     96          1           0        7.750012   -1.925256    3.216641
     97          1           0        8.372392   -3.136134    2.046561
     98          1           0        4.278073   -4.444786   -1.737537
     99          1           0        2.012851   -7.166794    0.528764
    100          1           0        0.761122   -6.828531   -0.539805
    101          1           0        1.053024   -5.710264    0.835073
    102          1           0       -4.082465   -4.323369   -2.498936
    103          1           0       -4.228842   -2.482111   -2.465146
    104          1           0       -5.454645   -2.626872   -0.457350
    105          1           0       -3.801189   -6.156871    0.889204
    106          1           0       -3.388648   -5.702835   -0.724402
    107          1           0       -4.934827   -6.712900   -0.342338
    108          1           0       -6.612366   -5.599292    1.087635
    109          1           0       -6.975374   -3.943264    0.928858
    110          1           0       -4.668835   -3.630595    2.517973
    111          1           0       -5.282411   -5.209489    2.971659
    112          1           0       -6.560420   -3.899237    4.320928
    113          1           0       -7.615487   -3.869232    2.903820
    114          1           0       -5.942324   -1.691765    2.465452
    115          1           0       -6.766540   -0.414771    4.741656
    116          1           0       -5.143316   -0.692045    4.135908
    117          1           0       -5.817594   -1.869044    5.222879
    118          1           0       -8.613166   -1.104174    3.628994
    119          1           0       -8.542162   -1.997600    2.145489
    120          1           0       -8.155558   -0.361019    0.793077
    121          1           0       -6.627995   -0.073396    1.560952
    122          1           0       -8.371280    1.061746    3.322372
    123          1           0       -9.181690    1.359502    1.803177
    124          1           0       -6.546837    2.095476    1.088003
    125          1           0       -5.541725    3.362368    2.680996
    126          1           0       -5.836330    1.775334    3.372506
    127          1           0       -6.886735    3.158442    3.787508
    128          1           0       -7.733021    4.535150    2.094776
    129          1           0       -9.113439    3.439475    1.753540
    130          1           0       -6.913606    3.715327   -0.333403
    131          1           0       -7.824149    5.044727   -0.099565
    132          1           0       -9.368856    2.412366   -0.490368
    133          1           0       -8.480381    2.928542   -1.858594
    134          1           0       -9.913913    5.079161   -0.655120
    135          1           0      -11.383657    2.632855   -0.402842
    136          1           0      -12.282484    3.645927   -1.443025
    137          1           0      -11.838761    4.266297    0.070768
    138          1           0      -11.146176    4.572455   -3.136649
    139          1           0       -9.485290    4.081390   -3.286549
    140          1           0       -9.723334    5.720822   -2.791187
 ---------------------------------------------------------------------

 SCF Done:  E(RZINDO/S) =  -474.379542677     A.U. after   19 cycles

 Excitation energies and oscillator strengths:

 Excited State   1:      Singlet-A      1.2320 eV 1006.34 nm  f=0.6195  <S**2>=0.000
     175 ->178        -0.19411
     176 ->177         0.66186
 This state for optimization and/or second-order correction.
 Total Energy, E(CIS/TDA) =  -474.334266219
 Copying the excited state density for this state as the 1-particle RhoCI density.

 Excited State   2:      Singlet-A      1.8480 eV  670.92 nm  f=0.0892  <S**2>=0.000
     175 ->177         0.57506
     176 ->178         0.38212

 Excited State   3:      Singlet-A      2.8311 eV  437.94 nm  f=0.0026  <S**2>=0.000
     170 ->177         0.39989
     170 ->178        -0.18278
     170 ->179        -0.31475
     170 ->181         0.23287
     170 ->185         0.16582
     170 ->187        -0.14334
     171 ->177         0.10134
     174 ->177         0.11993

 Excited State   4:      Singlet-A      2.8913 eV  428.82 nm  f=0.0013  <S**2>=0.000
     168 ->177         0.23012
     168 ->179         0.25484
     168 ->181         0.20293
     168 ->183         0.17015
     168 ->185        -0.14776
     169 ->177         0.21502
     169 ->179         0.23657
     169 ->181         0.18439
     169 ->183         0.15640
     169 ->185        -0.13646
     171 ->177        -0.12357

 Excited State   5:      Singlet-A      2.9579 eV  419.17 nm  f=0.7595  <S**2>=0.000
     172 ->177         0.16801
     175 ->177        -0.29657
     176 ->178         0.48832
     176 ->179         0.31891

 The electronic state is 1-A.
 Alpha  occ. eigenvalues --   -1.88021  -1.81626  -1.79728  -1.75358  -1.73893
 Alpha  occ. eigenvalues --   -1.72364  -1.66887  -1.61961  -1.61535  -1.55888
 Alpha  occ. eigenvalues --   -1.55596  -1.50726  -1.50128  -1.46898  -1.45777
 Alpha  occ. eigenvalues --   -1.44848  -1.44054  -1.39383  -1.39018  -1.37842
 Alpha  occ. eigenvalues --   -1.36593  -1.34570  -1.31868  -1.30628  -1.28445
 Alpha  occ. eigenvalues --   -1.28186  -1.25257  -1.22088  -1.19792  -1.18788
 Alpha  occ. eigenvalues --   -1.17652  -1.16790  -1.14525  -1.13567  -1.13228
 Alpha  occ. eigenvalues --   -1.12472  -1.10934  -1.09311  -1.06163  -1.03601
 Alpha  occ. eigenvalues --   -1.02087  -1.01471  -0.99439  -0.98237  -0.96862
 Alpha  occ. eigenvalues --   -0.94817  -0.93986  -0.93937  -0.93279  -0.92589
 Alpha  occ. eigenvalues --   -0.91457  -0.90726  -0.88723  -0.88261  -0.86802
 Alpha  occ. eigenvalues --   -0.86471  -0.84686  -0.83837  -0.82632  -0.81102
 Alpha  occ. eigenvalues --   -0.80068  -0.78772  -0.78136  -0.77500  -0.76608
 Alpha  occ. eigenvalues --   -0.76279  -0.75683  -0.75487  -0.75011  -0.74070
 Alpha  occ. eigenvalues --   -0.73638  -0.73045  -0.71182  -0.70861  -0.70559
 Alpha  occ. eigenvalues --   -0.70297  -0.69907  -0.69591  -0.68960  -0.68446
 Alpha  occ. eigenvalues --   -0.67407  -0.66970  -0.66520  -0.65828  -0.65172
 Alpha  occ. eigenvalues --   -0.65076  -0.64856  -0.64539  -0.63979  -0.63741
 Alpha  occ. eigenvalues --   -0.63150  -0.63051  -0.62692  -0.62464  -0.62041
 Alpha  occ. eigenvalues --   -0.61714  -0.61313  -0.60933  -0.60550  -0.59932
 Alpha  occ. eigenvalues --   -0.59520  -0.58722  -0.58487  -0.58339  -0.58083
 Alpha  occ. eigenvalues --   -0.58045  -0.57762  -0.57364  -0.57054  -0.56708
 Alpha  occ. eigenvalues --   -0.56616  -0.56181  -0.55632  -0.55541  -0.54681
 Alpha  occ. eigenvalues --   -0.54160  -0.53647  -0.53372  -0.53192  -0.52954
 Alpha  occ. eigenvalues --   -0.52704  -0.52596  -0.52228  -0.51353  -0.51137
 Alpha  occ. eigenvalues --   -0.50734  -0.50592  -0.50501  -0.50307  -0.49891
 Alpha  occ. eigenvalues --   -0.49788  -0.49539  -0.49273  -0.49196  -0.48975
 Alpha  occ. eigenvalues --   -0.48844  -0.48748  -0.48570  -0.48448  -0.48403
 Alpha  occ. eigenvalues --   -0.47223  -0.47129  -0.46784  -0.46470  -0.46352
 Alpha  occ. eigenvalues --   -0.45991  -0.45692  -0.45126  -0.45049  -0.44929
 Alpha  occ. eigenvalues --   -0.44808  -0.44678  -0.44477  -0.44206  -0.44039
 Alpha  occ. eigenvalues --   -0.43588  -0.43554  -0.42842  -0.42469  -0.42448
 Alpha  occ. eigenvalues --   -0.42237  -0.42058  -0.40613  -0.39432  -0.39297
 Alpha  occ. eigenvalues --   -0.38527  -0.37638  -0.35117  -0.34986  -0.34354
 Alpha  occ. eigenvalues --   -0.32941  -0.32842  -0.32697  -0.32289  -0.26817
 Alpha  occ. eigenvalues --   -0.22602
 Alpha virt. eigenvalues --   -0.09427  -0.02868  -0.01166   0.01017   0.01315
 Alpha virt. eigenvalues --    0.01559   0.02690   0.03027   0.04372   0.04377
 Alpha virt. eigenvalues --    0.05477   0.06721   0.06878   0.07558   0.08078

 Mulliken charges:
               1
     1  Mg   0.434046
     2  C   -0.023234
     3  C   -0.079538
     4  C   -0.089396
     5  C   -0.081236
     6  N   -0.255405
     7  C    0.095307
     8  C   -0.000807
     9  C   -0.005783
    10  C    0.149282
    11  C   -0.051113
    12  C   -0.016121
    13  C    0.008771
    14  C    0.471508
    15  O   -0.512183
    16  O   -0.270398
    17  N   -0.317522
    18  C    0.102754
    19  C    0.056423
    20  C   -0.063955
    21  C    0.147271
    22  C   -0.036187
    23  C    0.312625
    24  O   -0.543177
    25  C   -0.029455
    26  N   -0.290605
    27  C    0.148726
    28  C    0.013569
    29  C   -0.003285
    30  C    0.107413
    31  C   -0.056696
    32  C   -0.035827
    33  C   -0.054225
    34  N   -0.325713
    35  C    0.095715
    36  C    0.035534
    37  C   -0.044123
    38  C    0.125150
    39  C   -0.037461
    40  C    0.336991
    41  O   -0.540154
    42  C    0.056862
    43  C    0.495890
    44  O   -0.504294
    45  O   -0.273351
    46  C    0.073851
    47  C    0.099870
    48  C   -0.108896
    49  C    0.002754
    50  C   -0.046561
    51  C   -0.020583
    52  C   -0.030915
    53  C   -0.042452
    54  C   -0.009128
    55  C   -0.044159
    56  C   -0.037259
    57  C   -0.039026
    58  C   -0.032683
    59  C   -0.009252
    60  C   -0.051475
    61  C   -0.041115
    62  C   -0.035440
    63  C   -0.021430
    64  C   -0.009193
    65  C   -0.055383
    66  C   -0.056641
    67  H    0.030117
    68  H    0.022986
    69  H    0.029856
    70  H    0.035757
    71  H    0.032386
    72  H    0.019425
    73  H    0.026066
    74  H    0.028924
    75  H    0.027932
    76  H    0.034352
    77  H    0.042258
    78  H    0.030837
    79  H    0.049391
    80  H    0.045628
    81  H    0.018203
    82  H    0.041440
    83  H    0.028219
    84  H    0.041161
    85  H    0.023189
    86  H    0.032416
    87  H    0.040822
    88  H    0.030206
    89  H    0.008881
    90  H    0.019721
    91  H    0.025361
    92  H    0.018217
    93  H    0.020004
    94  H    0.023059
    95  H    0.032046
    96  H    0.021439
    97  H    0.038648
    98  H    0.038747
    99  H    0.036519
   100  H    0.025820
   101  H    0.050268
   102  H    0.052504
   103  H    0.046254
   104  H    0.029748
   105  H    0.027132
   106  H    0.029319
   107  H    0.034374
   108  H    0.016943
   109  H    0.020920
   110  H    0.027640
   111  H    0.017976
   112  H    0.012811
   113  H    0.019479
   114  H    0.012755
   115  H    0.019210
   116  H    0.015343
   117  H    0.017170
   118  H    0.025583
   119  H    0.008565
   120  H    0.015486
   121  H    0.021051
   122  H    0.024711
   123  H    0.013408
   124  H    0.028019
   125  H    0.010048
   126  H    0.012153
   127  H    0.013249
   128  H    0.024149
   129  H    0.022889
   130  H    0.008120
   131  H    0.014180
   132  H    0.017341
   133  H    0.016639
   134  H    0.012408
   135  H    0.016008
   136  H    0.013015
   137  H    0.013929
   138  H    0.024447
   139  H    0.011774
   140  H    0.025470
 Sum of Mulliken charges =  -0.00000

 Dipole moment (field-independent basis, Debye):
    X=              1.2686    Y=              1.6039    Z=              1.8198  Tot=              2.7375
 N-N= 4.475200114750D+03 E-N= 0.000000000000D+00  KE=-9.624487116724D+03
 Leave Link  601 at Wed May  4 18:51:47 2022, MaxMem=  6710886400 cpu:               0.7 elap:               0.0
 (Enter /sw/apps/gaussian-16.0/g16/l9999.exe)
 1\1\GINC-BP1-COMPUTE130\SP\RZINDO CIS\STO-3G\C55H74Mg1N4O6\OF15641\04-
 May-2022\0\\#p ZINDO=(nstates=5)\\step_251_chromophore_20 ZINDO\\0,1\M
 g,0,6.736,57.361,41.871\C,0,5.576,54.032,41.844\C,0,9.547,56.26,40.292
 \C,0,7.503,60.627,41.218\C,0,3.489,58.254,43.037\N,0,7.42,55.352,41.01
 2\C,0,6.899,54.109,41.231\C,0,7.688,53.009,40.5\C,0,9.083,53.8,40.396\
 C,0,8.663,55.237,40.581\C,0,10.168,53.391,41.428\C,0,7.125,52.637,39.0
 55\C,0,7.434,51.265,38.476\C,0,8.381,51.075,37.272\O,0,9.435,50.461,37

 Normal termination of Gaussian 16 at Wed May  4 18:51:48 2022.
