 Gaussian 16, Revision A.03,
 Gaussian 16:  ES64L-G16RevA.03 25-Dec-2016

 ------------------------------
 #p blyp/Def2SVP td=(nstates=5)
 ------------------------------

 -------------------------------------------------
 step_851_chromophore_8 TDDFT with blyp functional
 -------------------------------------------------
 Symbolic Z-matrix:
 Charge =  0 Multiplicity = 1

                         Standard orientation:
 ---------------------------------------------------------------------
 Center     Atomic      Atomic             Coordinates (Angstroms)
 Number     Number       Type             X           Y           Z
 ---------------------------------------------------------------------
      1         12           0        4.519148    1.000138    0.231989
      2          6           0        4.128337   -2.310842    0.730747
      3          6           0        4.430150    0.493064   -3.217736
      4          6           0        4.359777    4.315070   -0.364203
      5          6           0        3.726135    1.531729    3.687684
      6          7           0        4.119782   -0.733206   -1.014749
      7          6           0        4.061226   -1.976795   -0.607354
      8          6           0        3.690782   -2.905516   -1.794579
      9          6           0        4.258428   -2.069878   -2.993141
     10          6           0        4.258836   -0.607311   -2.386304
     11          6           0        5.726957   -2.476181   -3.408306
     12          6           0        2.094297   -3.193650   -1.987188
     13          6           0        1.545399   -4.590803   -1.665395
     14          6           0        0.196460   -4.696160   -0.914657
     15          8           0        0.054682   -5.204813    0.179091
     16          8           0       -0.823470   -4.192386   -1.691582
     17          7           0        4.648952    2.273382   -1.549662
     18          6           0        4.513760    1.857762   -2.831349
     19          6           0        4.609676    2.989823   -3.671329
     20          6           0        4.583332    4.169243   -2.906081
     21          6           0        4.560441    3.638041   -1.522129
     22          6           0        4.589475    2.790977   -5.148198
     23          6           0        4.528668    5.546173   -3.518117
     24          8           0        4.546923    5.701067   -4.731291
     25          6           0        4.644790    6.763242   -2.637496
     26          7           0        4.117024    2.652633    1.470573
     27          6           0        4.197167    3.926097    0.965493
     28          6           0        3.821780    4.976906    2.048831
     29          6           0        3.636163    4.097555    3.390056
     30          6           0        3.769868    2.679456    2.831319
     31          6           0        4.899888    6.027012    2.132259
     32          6           0        2.363158    4.339450    4.208731
     33          6           0        2.442707    4.840802    5.702855
     34          7           0        4.034109   -0.115991    1.870745
     35          6           0        3.864391    0.217657    3.179609
     36          6           0        4.061697   -1.011161    3.917776
     37          6           0        4.173687   -2.032270    2.982282
     38          6           0        4.146653   -1.424105    1.775321
     39          6           0        3.980209   -1.246713    5.324195
     40          6           0        4.198821   -3.483724    2.877580
     41          8           0        4.260818   -4.392729    3.675608
     42          6           0        4.231048   -3.694952    1.347683
     43          6           0        5.404498   -4.466957    0.916934
     44          8           0        6.550699   -4.027061    0.842640
     45          8           0        4.998882   -5.657829    0.423466
     46          6           0        6.081824   -6.520445   -0.065652
     47          6           0       -2.198693   -4.361705   -1.115601
     48          6           0       -2.831794   -3.051794   -1.081464
     49          6           0       -4.021810   -2.831857   -0.506228
     50          6           0       -4.971944   -3.907179    0.214018
     51          6           0       -4.521154   -1.410808   -0.341603
     52          6           0       -5.907479   -1.071416   -0.996162
     53          6           0       -5.844157   -0.104575   -2.157803
     54          6           0       -7.255426    0.486401   -2.373856
     55          6           0       -7.698767    0.447517   -3.879538
     56          6           0       -7.403812    1.931378   -1.868514
     57          6           0       -8.630078    2.189489   -1.117828
     58          6           0       -8.291774    2.143180    0.386005
     59          6           0       -9.521665    1.926542    1.216176
     60          6           0       -9.498456    2.984032    2.389499
     61          6           0       -9.669933    0.425055    1.813482
     62          6           0      -10.708308   -0.352170    1.044846
     63          6           0      -12.148584   -0.082506    1.510926
     64          6           0      -13.205725    0.382909    0.462279
     65          6           0      -13.404936   -0.761421   -0.580307
     66          6           0      -14.527882    0.815822    1.073027
     67          1           0        4.362927    0.139940   -4.248205
     68          1           0        4.456814    5.400487   -0.431329
     69          1           0        3.672820    1.653229    4.772091
     70          1           0        4.238552   -3.846852   -1.816840
     71          1           0        3.621780   -2.187724   -3.870142
     72          1           0        6.525513   -1.745099   -3.279003
     73          1           0        5.708970   -2.736306   -4.466083
     74          1           0        6.035577   -3.265277   -2.722175
     75          1           0        1.739338   -2.818400   -2.946972
     76          1           0        1.638899   -2.546437   -1.237213
     77          1           0        2.294518   -5.251911   -1.229323
     78          1           0        1.292297   -5.031680   -2.630421
     79          1           0        4.013806    3.570007   -5.648544
     80          1           0        4.020468    1.875166   -5.307560
     81          1           0        5.571583    2.592386   -5.577634
     82          1           0        5.480928    6.921479   -1.956132
     83          1           0        3.661328    6.893228   -2.187553
     84          1           0        4.722762    7.562476   -3.374531
     85          1           0        2.867903    5.444798    1.805095
     86          1           0        4.444308    4.253813    4.103817
     87          1           0        5.857590    5.691189    1.736137
     88          1           0        5.081308    6.294588    3.173143
     89          1           0        4.590649    6.948634    1.640660
     90          1           0        1.609600    3.586617    3.976963
     91          1           0        1.781099    5.076427    3.656368
     92          1           0        3.441505    4.957034    6.125303
     93          1           0        1.867614    4.129490    6.295427
     94          1           0        1.903404    5.783571    5.618894
     95          1           0        3.137090   -0.726509    5.777992
     96          1           0        4.880433   -0.916357    5.840833
     97          1           0        3.812348   -2.313268    5.474226
     98          1           0        3.361678   -4.310636    1.119388
     99          1           0        5.717469   -7.527662   -0.264406
    100          1           0        6.953568   -6.557719    0.588264
    101          1           0        6.308858   -6.108870   -1.049463
    102          1           0       -2.258831   -5.066297   -0.286594
    103          1           0       -2.852267   -4.864547   -1.828343
    104          1           0       -2.232390   -2.188318   -1.367831
    105          1           0       -5.206426   -3.498626    1.195870
    106          1           0       -4.593603   -4.917897    0.364461
    107          1           0       -5.958052   -4.043784   -0.231275
    108          1           0       -3.748033   -0.772446   -0.768935
    109          1           0       -4.546628   -1.278883    0.739779
    110          1           0       -6.552710   -0.544778   -0.292910
    111          1           0       -6.286842   -2.022879   -1.369314
    112          1           0       -5.494908   -0.701625   -3.000789
    113          1           0       -5.184943    0.718489   -1.880905
    114          1           0       -7.893731   -0.213706   -1.833215
    115          1           0       -7.850467    1.422034   -4.342841
    116          1           0       -8.574549   -0.202190   -3.880142
    117          1           0       -6.904858   -0.068889   -4.419119
    118          1           0       -7.399114    2.670624   -2.670490
    119          1           0       -6.500782    2.156416   -1.300259
    120          1           0       -9.294648    1.336806   -1.254198
    121          1           0       -9.039477    3.159582   -1.397943
    122          1           0       -7.810145    3.051149    0.749824
    123          1           0       -7.668331    1.267136    0.565577
    124          1           0      -10.406299    2.095912    0.603024
    125          1           0       -9.369840    4.043254    2.165381
    126          1           0       -8.813371    2.664873    3.174082
    127          1           0      -10.435154    3.041748    2.944396
    128          1           0      -10.032692    0.615417    2.824021
    129          1           0       -8.742103   -0.134434    1.931879
    130          1           0      -10.562216   -1.374860    1.391333
    131          1           0      -10.629117   -0.243804   -0.037270
    132          1           0      -12.099623    0.771808    2.186305
    133          1           0      -12.526462   -0.925085    2.091672
    134          1           0      -12.885929    1.320872    0.007937
    135          1           0      -14.457217   -1.042839   -0.604492
    136          1           0      -12.751516   -1.612650   -0.391373
    137          1           0      -13.160145   -0.329739   -1.551219
    138          1           0      -14.462754    1.895667    1.209378
    139          1           0      -14.553839    0.225180    1.988538
    140          1           0      -15.421049    0.621118    0.480268
 ---------------------------------------------------------------------

 SCF Done:  E(RB-LYP) =  -3007.34275490     A.U. after   20 cycles

 Excitation energies and oscillator strengths:

 Excited State   1:      Singlet-A      1.8457 eV  671.76 nm  f=0.3020  <S**2>=0.000
     245 -> 248        0.19838
     246 -> 247        0.68688
     246 <- 247       -0.14561
 This state for optimization and/or second-order correction.
 Total Energy, E(TD-HF/TD-DFT) =  -3007.27492801
 Copying the excited state density for this state as the 1-particle RhoCI density.

 Excited State   2:      Singlet-A      2.0245 eV  612.41 nm  f=0.0061  <S**2>=0.000
     243 -> 247       -0.10686
     244 -> 247        0.64714
     245 -> 247       -0.24412

 Excited State   3:      Singlet-A      2.0620 eV  601.27 nm  f=0.0230  <S**2>=0.000
     243 -> 247        0.44379
     244 -> 247        0.26766
     245 -> 247        0.43679
     246 -> 248       -0.17875

 Excited State   4:      Singlet-A      2.1244 eV  583.63 nm  f=0.0239  <S**2>=0.000
     243 -> 247        0.53690
     245 -> 247       -0.38576
     246 -> 248        0.21108

 Excited State   5:      Singlet-A      2.2851 eV  542.57 nm  f=0.0000  <S**2>=0.000
     242 -> 247        0.70699

 The electronic state is 1-A.
 Alpha  occ. eigenvalues --  -46.27143 -18.82698 -18.82344 -18.76844 -18.76247
 Alpha  occ. eigenvalues --  -18.76033 -18.75564 -14.03567 -14.03275 -14.00931
 Alpha  occ. eigenvalues --  -14.00183 -10.04175 -10.03563  -9.99919  -9.99547
 Alpha  occ. eigenvalues --   -9.97934  -9.97702  -9.97001  -9.96603  -9.96588
 Alpha  occ. eigenvalues --   -9.96372  -9.95625  -9.95177  -9.94958  -9.94480
 Alpha  occ. eigenvalues --   -9.94179  -9.94102  -9.94068  -9.93794  -9.93578
 Alpha  occ. eigenvalues --   -9.93442  -9.93368  -9.93042  -9.92979  -9.92870
 Alpha  occ. eigenvalues --   -9.92858  -9.92848  -9.92804  -9.92780  -9.92541
 Alpha  occ. eigenvalues --   -9.92445  -9.92391  -9.92351  -9.92283  -9.92208
 Alpha  occ. eigenvalues --   -9.91784  -9.91773  -9.91738  -9.91679  -9.91636
 Alpha  occ. eigenvalues --   -9.91586  -9.91464  -9.91318  -9.91271  -9.91230
 Alpha  occ. eigenvalues --   -9.90955  -9.90802  -9.90785  -9.90756  -9.90694
 Alpha  occ. eigenvalues --   -9.90635  -9.90578  -9.90563  -9.90379  -9.90222
 Alpha  occ. eigenvalues --   -9.89853  -2.91793  -1.72208  -1.71655  -1.71523
 Alpha  occ. eigenvalues --   -0.98356  -0.97404  -0.92084  -0.91665  -0.89897
 Alpha  occ. eigenvalues --   -0.89460  -0.87817  -0.86537  -0.85900  -0.84512
 Alpha  occ. eigenvalues --   -0.76303  -0.74195  -0.73301  -0.72524  -0.72505
 Alpha  occ. eigenvalues --   -0.72044  -0.71808  -0.71213  -0.70978  -0.70682
 Alpha  occ. eigenvalues --   -0.69638  -0.69283  -0.68648  -0.68070  -0.67650
 Alpha  occ. eigenvalues --   -0.66897  -0.66276  -0.65551  -0.65423  -0.64843
 Alpha  occ. eigenvalues --   -0.63731  -0.62747  -0.62193  -0.61662  -0.60944
 Alpha  occ. eigenvalues --   -0.60759  -0.60000  -0.59646  -0.59309  -0.58839
 Alpha  occ. eigenvalues --   -0.58033  -0.57551  -0.56818  -0.55548  -0.55118
 Alpha  occ. eigenvalues --   -0.54033  -0.53566  -0.52986  -0.52157  -0.51839
 Alpha  occ. eigenvalues --   -0.51654  -0.50864  -0.50804  -0.50719  -0.49996
 Alpha  occ. eigenvalues --   -0.49879  -0.49178  -0.48693  -0.48296  -0.46861
 Alpha  occ. eigenvalues --   -0.46571  -0.46383  -0.45705  -0.45223  -0.45057
 Alpha  occ. eigenvalues --   -0.44205  -0.43365  -0.43213  -0.42676  -0.42386
 Alpha  occ. eigenvalues --   -0.42249  -0.41925  -0.41803  -0.41710  -0.41436
 Alpha  occ. eigenvalues --   -0.41274  -0.41174  -0.40451  -0.40302  -0.40059
 Alpha  occ. eigenvalues --   -0.39826  -0.39612  -0.39477  -0.39283  -0.39267
 Alpha  occ. eigenvalues --   -0.39140  -0.38810  -0.38732  -0.38653  -0.38156
 Alpha  occ. eigenvalues --   -0.37956  -0.37669  -0.37598  -0.37567  -0.37349
 Alpha  occ. eigenvalues --   -0.37025  -0.36834  -0.36762  -0.36627  -0.36470
 Alpha  occ. eigenvalues --   -0.36213  -0.36105  -0.35793  -0.35667  -0.35561
 Alpha  occ. eigenvalues --   -0.35529  -0.35356  -0.35048  -0.34899  -0.34797
 Alpha  occ. eigenvalues --   -0.34535  -0.34381  -0.34317  -0.33929  -0.33923
 Alpha  occ. eigenvalues --   -0.33713  -0.33530  -0.33433  -0.33310  -0.33285
 Alpha  occ. eigenvalues --   -0.33123  -0.32912  -0.32745  -0.32666  -0.32502
 Alpha  occ. eigenvalues --   -0.32107  -0.32018  -0.31703  -0.31579  -0.31393
 Alpha  occ. eigenvalues --   -0.31300  -0.31089  -0.30976  -0.30929  -0.30784
 Alpha  occ. eigenvalues --   -0.30585  -0.30397  -0.30308  -0.30140  -0.29983
 Alpha  occ. eigenvalues --   -0.29635  -0.29192  -0.29111  -0.28977  -0.28831
 Alpha  occ. eigenvalues --   -0.28771  -0.28682  -0.28586  -0.28143  -0.27828
 Alpha  occ. eigenvalues --   -0.27471  -0.27123  -0.27011  -0.26721  -0.26509
 Alpha  occ. eigenvalues --   -0.26346  -0.26001  -0.25785  -0.25252  -0.25197
 Alpha  occ. eigenvalues --   -0.25059  -0.25049  -0.24561  -0.24336  -0.23469
 Alpha  occ. eigenvalues --   -0.22947  -0.22355  -0.21745  -0.21484  -0.20607
 Alpha  occ. eigenvalues --   -0.20298  -0.19831  -0.19040  -0.18816  -0.17564
 Alpha  occ. eigenvalues --   -0.15844
 Alpha virt. eigenvalues --   -0.11434  -0.07281  -0.05929  -0.04699  -0.02863
 Alpha virt. eigenvalues --   -0.02520  -0.02428  -0.01648  -0.01629   0.00051
 Alpha virt. eigenvalues --    0.01161   0.01909   0.02291   0.02316   0.02680

 Mulliken charges:
               1
     1  Mg   0.691851
     2  C    0.005337
     3  C   -0.043757
     4  C   -0.047481
     5  C   -0.074481
     6  N   -0.199468
     7  C   -0.111801
     8  C    0.027392
     9  C   -0.075164
    10  C    0.021714
    11  C    0.123765
    12  C    0.119777
    13  C    0.141593
    14  C    0.065709
    15  O   -0.172497
    16  O   -0.289815
    17  N   -0.252094
    18  C    0.150821
    19  C   -0.143183
    20  C    0.048004
    21  C    0.131098
    22  C    0.200901
    23  C   -0.098576
    24  O   -0.154585
    25  C    0.128988
    26  N   -0.251412
    27  C    0.009813
    28  C    0.005003
    29  C    0.051345
    30  C    0.023143
    31  C    0.127554
    32  C    0.077417
    33  C    0.079341
    34  N   -0.237617
    35  C    0.106209
    36  C   -0.192711
    37  C    0.064266
    38  C    0.134706
    39  C    0.172810
    40  C   -0.036376
    41  O   -0.108212
    42  C    0.087830
    43  C    0.094855
    44  O   -0.198841
    45  O   -0.255348
    46  C    0.222776
    47  C    0.303810
    48  C   -0.091842
    49  C   -0.136258
    50  C    0.107187
    51  C    0.152822
    52  C    0.030139
    53  C    0.117276
    54  C   -0.120965
    55  C    0.126125
    56  C    0.141447
    57  C    0.084516
    58  C    0.129882
    59  C   -0.088509
    60  C    0.072552
    61  C    0.104064
    62  C    0.112615
    63  C    0.054272
    64  C   -0.122263
    65  C    0.114053
    66  C    0.106712
    67  H   -0.058120
    68  H   -0.080956
    69  H   -0.053071
    70  H   -0.034765
    71  H   -0.030674
    72  H   -0.004976
    73  H   -0.000742
    74  H   -0.006487
    75  H   -0.008950
    76  H   -0.009709
    77  H    0.001119
    78  H   -0.011882
    79  H    0.005997
    80  H   -0.031361
    81  H   -0.001320
    82  H    0.028647
    83  H    0.003272
    84  H   -0.019447
    85  H   -0.014319
    86  H   -0.028194
    87  H   -0.001907
    88  H   -0.020206
    89  H   -0.005160
    90  H   -0.038272
    91  H   -0.054131
    92  H    0.005357
    93  H    0.004120
    94  H    0.001651
    95  H   -0.013572
    96  H   -0.003337
    97  H    0.005365
    98  H    0.001542
    99  H    0.012447
   100  H    0.031984
   101  H    0.003719
   102  H    0.021922
   103  H   -0.004489
   104  H   -0.027763
   105  H   -0.009268
   106  H   -0.012214
   107  H    0.000284
   108  H   -0.039884
   109  H   -0.021492
   110  H   -0.020637
   111  H   -0.018673
   112  H   -0.033783
   113  H   -0.031862
   114  H   -0.032688
   115  H   -0.008337
   116  H   -0.016412
   117  H   -0.030077
   118  H   -0.048574
   119  H   -0.045872
   120  H   -0.027054
   121  H   -0.031339
   122  H   -0.035612
   123  H   -0.046457
   124  H   -0.027303
   125  H   -0.015472
   126  H   -0.016190
   127  H   -0.035086
   128  H   -0.045989
   129  H   -0.031254
   130  H   -0.043636
   131  H   -0.015306
   132  H   -0.036222
   133  H   -0.026850
   134  H   -0.034071
   135  H   -0.021551
   136  H   -0.007819
   137  H   -0.016648
   138  H   -0.014136
   139  H   -0.016661
   140  H   -0.017423
 Sum of Mulliken charges =  -0.00000

 Dipole moment (field-independent basis, Debye):
    X=             -2.2436    Y=              1.9242    Z=              0.1279  Tot=              2.9585
 Quadrupole moment (field-independent basis, Debye-Ang):
   XX=           -403.0537   YY=           -401.1963   ZZ=           -416.9712
   XY=              5.5498   XZ=              1.3793   YZ=             53.8821

 Normal termination of Gaussian 16 at Thu May  5 13:02:10 2022.
