 Gaussian 16, Revision A.03,
 Gaussian 16:  ES64L-G16RevA.03 25-Dec-2016

 -----------------------------------
 #p cam-b3lyp/Def2SVP td=(nstates=5)
 -----------------------------------

 ------------------------------------------------------
 step_851_chromophore_8 TDDFT with cam-b3lyp functional
 ------------------------------------------------------
 Symbolic Z-matrix:
 Charge =  0 Multiplicity = 1

                         Standard orientation:
 ---------------------------------------------------------------------
 Center     Atomic      Atomic             Coordinates (Angstroms)
 Number     Number       Type             X           Y           Z
 ---------------------------------------------------------------------
      1         12           0        4.519148    1.000138    0.231989
      2          6           0        4.128337   -2.310842    0.730747
      3          6           0        4.430150    0.493064   -3.217736
      4          6           0        4.359777    4.315070   -0.364203
      5          6           0        3.726135    1.531729    3.687684
      6          7           0        4.119782   -0.733206   -1.014749
      7          6           0        4.061226   -1.976795   -0.607354
      8          6           0        3.690782   -2.905516   -1.794579
      9          6           0        4.258428   -2.069878   -2.993141
     10          6           0        4.258836   -0.607311   -2.386304
     11          6           0        5.726957   -2.476181   -3.408306
     12          6           0        2.094297   -3.193650   -1.987188
     13          6           0        1.545399   -4.590803   -1.665395
     14          6           0        0.196460   -4.696160   -0.914657
     15          8           0        0.054682   -5.204813    0.179091
     16          8           0       -0.823470   -4.192386   -1.691582
     17          7           0        4.648952    2.273382   -1.549662
     18          6           0        4.513760    1.857762   -2.831349
     19          6           0        4.609676    2.989823   -3.671329
     20          6           0        4.583332    4.169243   -2.906081
     21          6           0        4.560441    3.638041   -1.522129
     22          6           0        4.589475    2.790977   -5.148198
     23          6           0        4.528668    5.546173   -3.518117
     24          8           0        4.546923    5.701067   -4.731291
     25          6           0        4.644790    6.763242   -2.637496
     26          7           0        4.117024    2.652633    1.470573
     27          6           0        4.197167    3.926097    0.965493
     28          6           0        3.821780    4.976906    2.048831
     29          6           0        3.636163    4.097555    3.390056
     30          6           0        3.769868    2.679456    2.831319
     31          6           0        4.899888    6.027012    2.132259
     32          6           0        2.363158    4.339450    4.208731
     33          6           0        2.442707    4.840802    5.702855
     34          7           0        4.034109   -0.115991    1.870745
     35          6           0        3.864391    0.217657    3.179609
     36          6           0        4.061697   -1.011161    3.917776
     37          6           0        4.173687   -2.032270    2.982282
     38          6           0        4.146653   -1.424105    1.775321
     39          6           0        3.980209   -1.246713    5.324195
     40          6           0        4.198821   -3.483724    2.877580
     41          8           0        4.260818   -4.392729    3.675608
     42          6           0        4.231048   -3.694952    1.347683
     43          6           0        5.404498   -4.466957    0.916934
     44          8           0        6.550699   -4.027061    0.842640
     45          8           0        4.998882   -5.657829    0.423466
     46          6           0        6.081824   -6.520445   -0.065652
     47          6           0       -2.198693   -4.361705   -1.115601
     48          6           0       -2.831794   -3.051794   -1.081464
     49          6           0       -4.021810   -2.831857   -0.506228
     50          6           0       -4.971944   -3.907179    0.214018
     51          6           0       -4.521154   -1.410808   -0.341603
     52          6           0       -5.907479   -1.071416   -0.996162
     53          6           0       -5.844157   -0.104575   -2.157803
     54          6           0       -7.255426    0.486401   -2.373856
     55          6           0       -7.698767    0.447517   -3.879538
     56          6           0       -7.403812    1.931378   -1.868514
     57          6           0       -8.630078    2.189489   -1.117828
     58          6           0       -8.291774    2.143180    0.386005
     59          6           0       -9.521665    1.926542    1.216176
     60          6           0       -9.498456    2.984032    2.389499
     61          6           0       -9.669933    0.425055    1.813482
     62          6           0      -10.708308   -0.352170    1.044846
     63          6           0      -12.148584   -0.082506    1.510926
     64          6           0      -13.205725    0.382909    0.462279
     65          6           0      -13.404936   -0.761421   -0.580307
     66          6           0      -14.527882    0.815822    1.073027
     67          1           0        4.362927    0.139940   -4.248205
     68          1           0        4.456814    5.400487   -0.431329
     69          1           0        3.672820    1.653229    4.772091
     70          1           0        4.238552   -3.846852   -1.816840
     71          1           0        3.621780   -2.187724   -3.870142
     72          1           0        6.525513   -1.745099   -3.279003
     73          1           0        5.708970   -2.736306   -4.466083
     74          1           0        6.035577   -3.265277   -2.722175
     75          1           0        1.739338   -2.818400   -2.946972
     76          1           0        1.638899   -2.546437   -1.237213
     77          1           0        2.294518   -5.251911   -1.229323
     78          1           0        1.292297   -5.031680   -2.630421
     79          1           0        4.013806    3.570007   -5.648544
     80          1           0        4.020468    1.875166   -5.307560
     81          1           0        5.571583    2.592386   -5.577634
     82          1           0        5.480928    6.921479   -1.956132
     83          1           0        3.661328    6.893228   -2.187553
     84          1           0        4.722762    7.562476   -3.374531
     85          1           0        2.867903    5.444798    1.805095
     86          1           0        4.444308    4.253813    4.103817
     87          1           0        5.857590    5.691189    1.736137
     88          1           0        5.081308    6.294588    3.173143
     89          1           0        4.590649    6.948634    1.640660
     90          1           0        1.609600    3.586617    3.976963
     91          1           0        1.781099    5.076427    3.656368
     92          1           0        3.441505    4.957034    6.125303
     93          1           0        1.867614    4.129490    6.295427
     94          1           0        1.903404    5.783571    5.618894
     95          1           0        3.137090   -0.726509    5.777992
     96          1           0        4.880433   -0.916357    5.840833
     97          1           0        3.812348   -2.313268    5.474226
     98          1           0        3.361678   -4.310636    1.119388
     99          1           0        5.717469   -7.527662   -0.264406
    100          1           0        6.953568   -6.557719    0.588264
    101          1           0        6.308858   -6.108870   -1.049463
    102          1           0       -2.258831   -5.066297   -0.286594
    103          1           0       -2.852267   -4.864547   -1.828343
    104          1           0       -2.232390   -2.188318   -1.367831
    105          1           0       -5.206426   -3.498626    1.195870
    106          1           0       -4.593603   -4.917897    0.364461
    107          1           0       -5.958052   -4.043784   -0.231275
    108          1           0       -3.748033   -0.772446   -0.768935
    109          1           0       -4.546628   -1.278883    0.739779
    110          1           0       -6.552710   -0.544778   -0.292910
    111          1           0       -6.286842   -2.022879   -1.369314
    112          1           0       -5.494908   -0.701625   -3.000789
    113          1           0       -5.184943    0.718489   -1.880905
    114          1           0       -7.893731   -0.213706   -1.833215
    115          1           0       -7.850467    1.422034   -4.342841
    116          1           0       -8.574549   -0.202190   -3.880142
    117          1           0       -6.904858   -0.068889   -4.419119
    118          1           0       -7.399114    2.670624   -2.670490
    119          1           0       -6.500782    2.156416   -1.300259
    120          1           0       -9.294648    1.336806   -1.254198
    121          1           0       -9.039477    3.159582   -1.397943
    122          1           0       -7.810145    3.051149    0.749824
    123          1           0       -7.668331    1.267136    0.565577
    124          1           0      -10.406299    2.095912    0.603024
    125          1           0       -9.369840    4.043254    2.165381
    126          1           0       -8.813371    2.664873    3.174082
    127          1           0      -10.435154    3.041748    2.944396
    128          1           0      -10.032692    0.615417    2.824021
    129          1           0       -8.742103   -0.134434    1.931879
    130          1           0      -10.562216   -1.374860    1.391333
    131          1           0      -10.629117   -0.243804   -0.037270
    132          1           0      -12.099623    0.771808    2.186305
    133          1           0      -12.526462   -0.925085    2.091672
    134          1           0      -12.885929    1.320872    0.007937
    135          1           0      -14.457217   -1.042839   -0.604492
    136          1           0      -12.751516   -1.612650   -0.391373
    137          1           0      -13.160145   -0.329739   -1.551219
    138          1           0      -14.462754    1.895667    1.209378
    139          1           0      -14.553839    0.225180    1.988538
    140          1           0      -15.421049    0.621118    0.480268
 ---------------------------------------------------------------------

 SCF Done:  E(RCAM-B3LYP) =  -3007.14819609     A.U. after   16 cycles

 Excitation energies and oscillator strengths:

 Excited State   1:      Singlet-A      1.7425 eV  711.54 nm  f=0.3751  <S**2>=0.000
     245 -> 248        0.18339
     246 -> 247        0.68440
     245 <- 248        0.10704
 This state for optimization and/or second-order correction.
 Total Energy, E(TD-HF/TD-DFT) =  -3007.08416114
 Copying the excited state density for this state as the 1-particle RhoCI density.

 Excited State   2:      Singlet-A      2.2938 eV  540.52 nm  f=0.0635  <S**2>=0.000
     245 -> 247        0.61118
     246 -> 248       -0.34247

 Excited State   3:      Singlet-A      3.4191 eV  362.63 nm  f=0.1404  <S**2>=0.000
     242 -> 247        0.20751
     243 -> 247        0.55507
     245 -> 247        0.15142
     246 -> 248        0.33545

 Excited State   4:      Singlet-A      3.4911 eV  355.14 nm  f=0.2968  <S**2>=0.000
     242 -> 247        0.29137
     243 -> 247       -0.41169
     245 -> 247        0.21565
     246 -> 248        0.42178

 Excited State   5:      Singlet-A      3.6078 eV  343.66 nm  f=0.3409  <S**2>=0.000
     242 -> 247        0.57676
     245 -> 247       -0.22384
     246 -> 248       -0.27665

 The electronic state is 1-A.
 Alpha  occ. eigenvalues --  -46.88702 -19.25673 -19.25173 -19.19780 -19.19332
 Alpha  occ. eigenvalues --  -19.19226 -19.18871 -14.42526 -14.42072 -14.39447
 Alpha  occ. eigenvalues --  -14.38483 -10.39420 -10.38970 -10.35189 -10.34838
 Alpha  occ. eigenvalues --  -10.31962 -10.31682 -10.31421 -10.31131 -10.31122
 Alpha  occ. eigenvalues --  -10.30777 -10.30099 -10.29304 -10.29283 -10.28613
 Alpha  occ. eigenvalues --  -10.28185 -10.28108 -10.28046 -10.27718 -10.27572
 Alpha  occ. eigenvalues --  -10.27517 -10.27501 -10.27177 -10.27093 -10.27077
 Alpha  occ. eigenvalues --  -10.27048 -10.26984 -10.26753 -10.26593 -10.26592
 Alpha  occ. eigenvalues --  -10.26505 -10.26499 -10.26401 -10.26101 -10.26038
 Alpha  occ. eigenvalues --  -10.25858 -10.25586 -10.25544 -10.25471 -10.25338
 Alpha  occ. eigenvalues --  -10.25273 -10.25131 -10.25023 -10.24872 -10.24850
 Alpha  occ. eigenvalues --  -10.24630 -10.24604 -10.24419 -10.24369 -10.24248
 Alpha  occ. eigenvalues --  -10.24194 -10.24151 -10.24140 -10.23987 -10.23803
 Alpha  occ. eigenvalues --  -10.23783  -3.17254  -1.92146  -1.91693  -1.91568
 Alpha  occ. eigenvalues --   -1.16910  -1.15808  -1.10515  -1.10159  -1.07699
 Alpha  occ. eigenvalues --   -1.07431  -1.05524  -1.04186  -1.03570  -1.02083
 Alpha  occ. eigenvalues --   -0.93440  -0.91073  -0.90111  -0.89301  -0.89237
 Alpha  occ. eigenvalues --   -0.88668  -0.88491  -0.87831  -0.87551  -0.87210
 Alpha  occ. eigenvalues --   -0.86289  -0.85655  -0.84968  -0.84266  -0.83844
 Alpha  occ. eigenvalues --   -0.82969  -0.82356  -0.81597  -0.81307  -0.80777
 Alpha  occ. eigenvalues --   -0.79443  -0.78344  -0.77791  -0.77278  -0.76395
 Alpha  occ. eigenvalues --   -0.76108  -0.75346  -0.74937  -0.74578  -0.74060
 Alpha  occ. eigenvalues --   -0.73029  -0.72498  -0.71734  -0.70331  -0.69732
 Alpha  occ. eigenvalues --   -0.68661  -0.68094  -0.67629  -0.66513  -0.65927
 Alpha  occ. eigenvalues --   -0.65744  -0.64967  -0.64873  -0.64782  -0.63913
 Alpha  occ. eigenvalues --   -0.63711  -0.63123  -0.62444  -0.62161  -0.60531
 Alpha  occ. eigenvalues --   -0.60162  -0.59937  -0.59144  -0.58766  -0.58561
 Alpha  occ. eigenvalues --   -0.57722  -0.56697  -0.56472  -0.55991  -0.55584
 Alpha  occ. eigenvalues --   -0.55264  -0.55112  -0.54785  -0.54567  -0.54273
 Alpha  occ. eigenvalues --   -0.54182  -0.53978  -0.53207  -0.52977  -0.52921
 Alpha  occ. eigenvalues --   -0.52551  -0.52255  -0.52233  -0.52005  -0.51702
 Alpha  occ. eigenvalues --   -0.51680  -0.51571  -0.51140  -0.51071  -0.50561
 Alpha  occ. eigenvalues --   -0.50268  -0.50081  -0.49868  -0.49789  -0.49654
 Alpha  occ. eigenvalues --   -0.49548  -0.49410  -0.49150  -0.49058  -0.48806
 Alpha  occ. eigenvalues --   -0.48738  -0.48506  -0.48206  -0.47636  -0.47548
 Alpha  occ. eigenvalues --   -0.47536  -0.47369  -0.47033  -0.46898  -0.46840
 Alpha  occ. eigenvalues --   -0.46351  -0.46321  -0.46030  -0.45674  -0.45628
 Alpha  occ. eigenvalues --   -0.45594  -0.45442  -0.45307  -0.45090  -0.44875
 Alpha  occ. eigenvalues --   -0.44828  -0.44718  -0.44617  -0.44194  -0.44108
 Alpha  occ. eigenvalues --   -0.43755  -0.43546  -0.43490  -0.43368  -0.42934
 Alpha  occ. eigenvalues --   -0.42748  -0.42662  -0.42636  -0.42500  -0.42258
 Alpha  occ. eigenvalues --   -0.42159  -0.42036  -0.41651  -0.41604  -0.41313
 Alpha  occ. eigenvalues --   -0.40835  -0.40410  -0.40186  -0.40121  -0.40001
 Alpha  occ. eigenvalues --   -0.39990  -0.39747  -0.39496  -0.39085  -0.38736
 Alpha  occ. eigenvalues --   -0.38290  -0.38102  -0.37943  -0.37369  -0.37230
 Alpha  occ. eigenvalues --   -0.37108  -0.37014  -0.36787  -0.36653  -0.36525
 Alpha  occ. eigenvalues --   -0.35870  -0.35650  -0.35055  -0.34296  -0.33878
 Alpha  occ. eigenvalues --   -0.33840  -0.33695  -0.33510  -0.31454  -0.31166
 Alpha  occ. eigenvalues --   -0.30982  -0.29925  -0.29671  -0.29410  -0.24379
 Alpha  occ. eigenvalues --   -0.21104
 Alpha virt. eigenvalues --   -0.08435  -0.02196   0.00616   0.02179   0.02373
 Alpha virt. eigenvalues --    0.04978   0.05370   0.05695   0.05730   0.06837
 Alpha virt. eigenvalues --    0.08165   0.08345   0.08492   0.08585   0.09007

 Mulliken charges:
               1
     1  Mg   0.824614
     2  C   -0.028448
     3  C   -0.056863
     4  C   -0.066195
     5  C   -0.075643
     6  N   -0.273198
     7  C   -0.065818
     8  C   -0.017819
     9  C   -0.126284
    10  C    0.037282
    11  C    0.069576
    12  C    0.073265
    13  C    0.067584
    14  C    0.146936
    15  O   -0.215082
    16  O   -0.354693
    17  N   -0.336513
    18  C    0.152393
    19  C   -0.144484
    20  C   -0.022062
    21  C    0.159668
    22  C    0.141759
    23  C   -0.015676
    24  O   -0.194891
    25  C    0.040343
    26  N   -0.323430
    27  C    0.032349
    28  C   -0.048403
    29  C   -0.002571
    30  C    0.042119
    31  C    0.064020
    32  C    0.014356
    33  C    0.018149
    34  N   -0.331063
    35  C    0.110323
    36  C   -0.180604
    37  C   -0.019407
    38  C    0.172311
    39  C    0.108704
    40  C    0.065280
    41  O   -0.147574
    42  C    0.012713
    43  C    0.183663
    44  O   -0.235356
    45  O   -0.318900
    46  C    0.182227
    47  C    0.266795
    48  C   -0.111790
    49  C   -0.159196
    50  C    0.051433
    51  C    0.094168
    52  C   -0.022599
    53  C    0.068199
    54  C   -0.179383
    55  C    0.070988
    56  C    0.081912
    57  C    0.031284
    58  C    0.080067
    59  C   -0.144386
    60  C    0.015209
    61  C    0.052570
    62  C    0.051197
    63  C    0.003327
    64  C   -0.173681
    65  C    0.050697
    66  C    0.047672
    67  H   -0.021988
    68  H   -0.046605
    69  H   -0.016426
    70  H   -0.001534
    71  H    0.004174
    72  H    0.021857
    73  H    0.022557
    74  H    0.015218
    75  H    0.021091
    76  H    0.020276
    77  H    0.032180
    78  H    0.021815
    79  H    0.036857
    80  H   -0.005570
    81  H    0.027178
    82  H    0.056310
    83  H    0.032024
    84  H    0.018288
    85  H    0.019706
    86  H    0.005775
    87  H    0.024365
    88  H    0.006447
    89  H    0.018029
    90  H   -0.004422
    91  H   -0.023138
    92  H    0.027235
    93  H    0.026692
    94  H    0.024284
    95  H    0.012183
    96  H    0.023692
    97  H    0.034073
    98  H    0.044705
    99  H    0.036752
   100  H    0.056286
   101  H    0.024789
   102  H    0.054238
   103  H    0.023201
   104  H    0.008216
   105  H    0.015100
   106  H    0.012180
   107  H    0.023935
   108  H   -0.009318
   109  H    0.008141
   110  H    0.001786
   111  H    0.007363
   112  H   -0.004607
   113  H   -0.004026
   114  H   -0.001779
   115  H    0.014750
   116  H    0.007180
   117  H   -0.005424
   118  H   -0.016947
   119  H   -0.015957
   120  H   -0.003114
   121  H   -0.001264
   122  H   -0.004767
   123  H   -0.021944
   124  H    0.001658
   125  H    0.009672
   126  H    0.007395
   127  H   -0.010307
   128  H   -0.014371
   129  H   -0.002796
   130  H   -0.011301
   131  H    0.008727
   132  H   -0.010365
   133  H    0.001347
   134  H   -0.004219
   135  H    0.003376
   136  H    0.015137
   137  H    0.007339
   138  H    0.009281
   139  H    0.006273
   140  H    0.007919
 Sum of Mulliken charges =  -0.00000

 Dipole moment (field-independent basis, Debye):
    X=             -2.1879    Y=              2.3194    Z=             -0.0736  Tot=              3.1894
 Quadrupole moment (field-independent basis, Debye-Ang):
   XX=           -402.6966   YY=           -396.0290   ZZ=           -415.5839
   XY=              6.6545   XZ=             -0.6276   YZ=             54.9834

 Normal termination of Gaussian 16 at Thu May  5 11:56:52 2022.
