 Gaussian 16, Revision A.03,
 Gaussian 16:  ES64L-G16RevA.03 25-Dec-2016

 ---------------------------------
 #p PBE1PBE/Def2SVP td=(nstates=5)
 ---------------------------------

 ----------------------------------------------------
 step_851_chromophore_8 TDDFT with PBE1PBE functional
 ----------------------------------------------------
 Symbolic Z-matrix:
 Charge =  0 Multiplicity = 1

                         Standard orientation:
 ---------------------------------------------------------------------
 Center     Atomic      Atomic             Coordinates (Angstroms)
 Number     Number       Type             X           Y           Z
 ---------------------------------------------------------------------
      1         12           0        4.519148    1.000138    0.231989
      2          6           0        4.128337   -2.310842    0.730747
      3          6           0        4.430150    0.493064   -3.217736
      4          6           0        4.359777    4.315070   -0.364203
      5          6           0        3.726135    1.531729    3.687684
      6          7           0        4.119782   -0.733206   -1.014749
      7          6           0        4.061226   -1.976795   -0.607354
      8          6           0        3.690782   -2.905516   -1.794579
      9          6           0        4.258428   -2.069878   -2.993141
     10          6           0        4.258836   -0.607311   -2.386304
     11          6           0        5.726957   -2.476181   -3.408306
     12          6           0        2.094297   -3.193650   -1.987188
     13          6           0        1.545399   -4.590803   -1.665395
     14          6           0        0.196460   -4.696160   -0.914657
     15          8           0        0.054682   -5.204813    0.179091
     16          8           0       -0.823470   -4.192386   -1.691582
     17          7           0        4.648952    2.273382   -1.549662
     18          6           0        4.513760    1.857762   -2.831349
     19          6           0        4.609676    2.989823   -3.671329
     20          6           0        4.583332    4.169243   -2.906081
     21          6           0        4.560441    3.638041   -1.522129
     22          6           0        4.589475    2.790977   -5.148198
     23          6           0        4.528668    5.546173   -3.518117
     24          8           0        4.546923    5.701067   -4.731291
     25          6           0        4.644790    6.763242   -2.637496
     26          7           0        4.117024    2.652633    1.470573
     27          6           0        4.197167    3.926097    0.965493
     28          6           0        3.821780    4.976906    2.048831
     29          6           0        3.636163    4.097555    3.390056
     30          6           0        3.769868    2.679456    2.831319
     31          6           0        4.899888    6.027012    2.132259
     32          6           0        2.363158    4.339450    4.208731
     33          6           0        2.442707    4.840802    5.702855
     34          7           0        4.034109   -0.115991    1.870745
     35          6           0        3.864391    0.217657    3.179609
     36          6           0        4.061697   -1.011161    3.917776
     37          6           0        4.173687   -2.032270    2.982282
     38          6           0        4.146653   -1.424105    1.775321
     39          6           0        3.980209   -1.246713    5.324195
     40          6           0        4.198821   -3.483724    2.877580
     41          8           0        4.260818   -4.392729    3.675608
     42          6           0        4.231048   -3.694952    1.347683
     43          6           0        5.404498   -4.466957    0.916934
     44          8           0        6.550699   -4.027061    0.842640
     45          8           0        4.998882   -5.657829    0.423466
     46          6           0        6.081824   -6.520445   -0.065652
     47          6           0       -2.198693   -4.361705   -1.115601
     48          6           0       -2.831794   -3.051794   -1.081464
     49          6           0       -4.021810   -2.831857   -0.506228
     50          6           0       -4.971944   -3.907179    0.214018
     51          6           0       -4.521154   -1.410808   -0.341603
     52          6           0       -5.907479   -1.071416   -0.996162
     53          6           0       -5.844157   -0.104575   -2.157803
     54          6           0       -7.255426    0.486401   -2.373856
     55          6           0       -7.698767    0.447517   -3.879538
     56          6           0       -7.403812    1.931378   -1.868514
     57          6           0       -8.630078    2.189489   -1.117828
     58          6           0       -8.291774    2.143180    0.386005
     59          6           0       -9.521665    1.926542    1.216176
     60          6           0       -9.498456    2.984032    2.389499
     61          6           0       -9.669933    0.425055    1.813482
     62          6           0      -10.708308   -0.352170    1.044846
     63          6           0      -12.148584   -0.082506    1.510926
     64          6           0      -13.205725    0.382909    0.462279
     65          6           0      -13.404936   -0.761421   -0.580307
     66          6           0      -14.527882    0.815822    1.073027
     67          1           0        4.362927    0.139940   -4.248205
     68          1           0        4.456814    5.400487   -0.431329
     69          1           0        3.672820    1.653229    4.772091
     70          1           0        4.238552   -3.846852   -1.816840
     71          1           0        3.621780   -2.187724   -3.870142
     72          1           0        6.525513   -1.745099   -3.279003
     73          1           0        5.708970   -2.736306   -4.466083
     74          1           0        6.035577   -3.265277   -2.722175
     75          1           0        1.739338   -2.818400   -2.946972
     76          1           0        1.638899   -2.546437   -1.237213
     77          1           0        2.294518   -5.251911   -1.229323
     78          1           0        1.292297   -5.031680   -2.630421
     79          1           0        4.013806    3.570007   -5.648544
     80          1           0        4.020468    1.875166   -5.307560
     81          1           0        5.571583    2.592386   -5.577634
     82          1           0        5.480928    6.921479   -1.956132
     83          1           0        3.661328    6.893228   -2.187553
     84          1           0        4.722762    7.562476   -3.374531
     85          1           0        2.867903    5.444798    1.805095
     86          1           0        4.444308    4.253813    4.103817
     87          1           0        5.857590    5.691189    1.736137
     88          1           0        5.081308    6.294588    3.173143
     89          1           0        4.590649    6.948634    1.640660
     90          1           0        1.609600    3.586617    3.976963
     91          1           0        1.781099    5.076427    3.656368
     92          1           0        3.441505    4.957034    6.125303
     93          1           0        1.867614    4.129490    6.295427
     94          1           0        1.903404    5.783571    5.618894
     95          1           0        3.137090   -0.726509    5.777992
     96          1           0        4.880433   -0.916357    5.840833
     97          1           0        3.812348   -2.313268    5.474226
     98          1           0        3.361678   -4.310636    1.119388
     99          1           0        5.717469   -7.527662   -0.264406
    100          1           0        6.953568   -6.557719    0.588264
    101          1           0        6.308858   -6.108870   -1.049463
    102          1           0       -2.258831   -5.066297   -0.286594
    103          1           0       -2.852267   -4.864547   -1.828343
    104          1           0       -2.232390   -2.188318   -1.367831
    105          1           0       -5.206426   -3.498626    1.195870
    106          1           0       -4.593603   -4.917897    0.364461
    107          1           0       -5.958052   -4.043784   -0.231275
    108          1           0       -3.748033   -0.772446   -0.768935
    109          1           0       -4.546628   -1.278883    0.739779
    110          1           0       -6.552710   -0.544778   -0.292910
    111          1           0       -6.286842   -2.022879   -1.369314
    112          1           0       -5.494908   -0.701625   -3.000789
    113          1           0       -5.184943    0.718489   -1.880905
    114          1           0       -7.893731   -0.213706   -1.833215
    115          1           0       -7.850467    1.422034   -4.342841
    116          1           0       -8.574549   -0.202190   -3.880142
    117          1           0       -6.904858   -0.068889   -4.419119
    118          1           0       -7.399114    2.670624   -2.670490
    119          1           0       -6.500782    2.156416   -1.300259
    120          1           0       -9.294648    1.336806   -1.254198
    121          1           0       -9.039477    3.159582   -1.397943
    122          1           0       -7.810145    3.051149    0.749824
    123          1           0       -7.668331    1.267136    0.565577
    124          1           0      -10.406299    2.095912    0.603024
    125          1           0       -9.369840    4.043254    2.165381
    126          1           0       -8.813371    2.664873    3.174082
    127          1           0      -10.435154    3.041748    2.944396
    128          1           0      -10.032692    0.615417    2.824021
    129          1           0       -8.742103   -0.134434    1.931879
    130          1           0      -10.562216   -1.374860    1.391333
    131          1           0      -10.629117   -0.243804   -0.037270
    132          1           0      -12.099623    0.771808    2.186305
    133          1           0      -12.526462   -0.925085    2.091672
    134          1           0      -12.885929    1.320872    0.007937
    135          1           0      -14.457217   -1.042839   -0.604492
    136          1           0      -12.751516   -1.612650   -0.391373
    137          1           0      -13.160145   -0.329739   -1.551219
    138          1           0      -14.462754    1.895667    1.209378
    139          1           0      -14.553839    0.225180    1.988538
    140          1           0      -15.421049    0.621118    0.480268
 ---------------------------------------------------------------------

 SCF Done:  E(RPBE1PBE) =  -3005.33686800     A.U. after   15 cycles

 Excitation energies and oscillator strengths:

 Excited State   1:      Singlet-A      1.8968 eV  653.67 nm  f=0.3653  <S**2>=0.000
     245 -> 248        0.17764
     246 -> 247        0.69110
     246 <- 247       -0.10449
 This state for optimization and/or second-order correction.
 Total Energy, E(TD-HF/TD-DFT) =  -3005.26716366
 Copying the excited state density for this state as the 1-particle RhoCI density.

 Excited State   2:      Singlet-A      2.3093 eV  536.89 nm  f=0.0655  <S**2>=0.000
     245 -> 247        0.62585
     246 -> 248       -0.31432

 Excited State   3:      Singlet-A      3.0888 eV  401.40 nm  f=0.0043  <S**2>=0.000
     243 -> 247        0.69012
     246 -> 248        0.10689

 Excited State   4:      Singlet-A      3.1620 eV  392.11 nm  f=0.0048  <S**2>=0.000
     240 -> 247       -0.41134
     241 -> 247        0.46348
     241 -> 249        0.14360
     242 -> 247       -0.26394

 Excited State   5:      Singlet-A      3.1864 eV  389.10 nm  f=0.0005  <S**2>=0.000
     240 -> 247        0.30653
     240 -> 249       -0.12260
     241 -> 247        0.47280
     242 -> 247        0.36259

 The electronic state is 1-A.
 Alpha  occ. eigenvalues --  -46.92075 -19.26313 -19.25897 -19.20071 -19.19564
 Alpha  occ. eigenvalues --  -19.19454 -19.19028 -14.42033 -14.41590 -14.39027
 Alpha  occ. eigenvalues --  -14.38159 -10.36474 -10.35964 -10.32258 -10.31989
 Alpha  occ. eigenvalues --  -10.29252 -10.29184 -10.29101 -10.28844 -10.28826
 Alpha  occ. eigenvalues --  -10.28493 -10.27672 -10.27081 -10.26876 -10.26451
 Alpha  occ. eigenvalues --  -10.25986 -10.25948 -10.25903 -10.25352 -10.25200
 Alpha  occ. eigenvalues --  -10.25143 -10.25021 -10.24870 -10.24794 -10.24716
 Alpha  occ. eigenvalues --  -10.24675 -10.24666 -10.24437 -10.24254 -10.24186
 Alpha  occ. eigenvalues --  -10.24007 -10.23971 -10.23958 -10.23560 -10.23534
 Alpha  occ. eigenvalues --  -10.23254 -10.23116 -10.23099 -10.23043 -10.23007
 Alpha  occ. eigenvalues --  -10.22999 -10.22679 -10.22602 -10.22382 -10.22300
 Alpha  occ. eigenvalues --  -10.22191 -10.22003 -10.21925 -10.21841 -10.21752
 Alpha  occ. eigenvalues --  -10.21605 -10.21545 -10.21533 -10.21523 -10.21522
 Alpha  occ. eigenvalues --  -10.21332  -3.14206  -1.87039  -1.86565  -1.86442
 Alpha  occ. eigenvalues --   -1.11688  -1.10627  -1.05275  -1.04830  -1.02592
 Alpha  occ. eigenvalues --   -1.02234  -1.00238  -0.98833  -0.98187  -0.96667
 Alpha  occ. eigenvalues --   -0.87851  -0.85172  -0.84248  -0.83600  -0.83349
 Alpha  occ. eigenvalues --   -0.82954  -0.82699  -0.82154  -0.81697  -0.81550
 Alpha  occ. eigenvalues --   -0.80566  -0.79867  -0.79173  -0.78556  -0.78096
 Alpha  occ. eigenvalues --   -0.77158  -0.76570  -0.75857  -0.75507  -0.75097
 Alpha  occ. eigenvalues --   -0.73609  -0.72686  -0.72069  -0.71528  -0.70714
 Alpha  occ. eigenvalues --   -0.70251  -0.69429  -0.69296  -0.68700  -0.68234
 Alpha  occ. eigenvalues --   -0.67424  -0.66878  -0.66184  -0.64632  -0.64101
 Alpha  occ. eigenvalues --   -0.63147  -0.62329  -0.62033  -0.60729  -0.60406
 Alpha  occ. eigenvalues --   -0.60168  -0.59430  -0.59361  -0.59107  -0.58186
 Alpha  occ. eigenvalues --   -0.57998  -0.57297  -0.57025  -0.56331  -0.55067
 Alpha  occ. eigenvalues --   -0.54663  -0.54423  -0.53709  -0.53302  -0.53124
 Alpha  occ. eigenvalues --   -0.52210  -0.51196  -0.50967  -0.50429  -0.50169
 Alpha  occ. eigenvalues --   -0.49759  -0.49604  -0.49243  -0.48940  -0.48804
 Alpha  occ. eigenvalues --   -0.48706  -0.48402  -0.47935  -0.47567  -0.47413
 Alpha  occ. eigenvalues --   -0.47109  -0.46756  -0.46618  -0.46571  -0.46274
 Alpha  occ. eigenvalues --   -0.46177  -0.46155  -0.45808  -0.45586  -0.45123
 Alpha  occ. eigenvalues --   -0.44816  -0.44647  -0.44436  -0.44290  -0.44262
 Alpha  occ. eigenvalues --   -0.44104  -0.43963  -0.43726  -0.43656  -0.43465
 Alpha  occ. eigenvalues --   -0.43359  -0.43205  -0.42785  -0.42284  -0.42260
 Alpha  occ. eigenvalues --   -0.42145  -0.42023  -0.41744  -0.41568  -0.41478
 Alpha  occ. eigenvalues --   -0.41063  -0.40914  -0.40635  -0.40374  -0.40285
 Alpha  occ. eigenvalues --   -0.40152  -0.40151  -0.40050  -0.39834  -0.39525
 Alpha  occ. eigenvalues --   -0.39498  -0.39421  -0.39300  -0.38945  -0.38844
 Alpha  occ. eigenvalues --   -0.38529  -0.38315  -0.38188  -0.38152  -0.37743
 Alpha  occ. eigenvalues --   -0.37550  -0.37404  -0.37360  -0.37283  -0.37084
 Alpha  occ. eigenvalues --   -0.36914  -0.36898  -0.36505  -0.36328  -0.36247
 Alpha  occ. eigenvalues --   -0.35746  -0.35260  -0.35180  -0.34960  -0.34880
 Alpha  occ. eigenvalues --   -0.34794  -0.34604  -0.34326  -0.33884  -0.33433
 Alpha  occ. eigenvalues --   -0.33100  -0.33045  -0.32745  -0.32429  -0.32072
 Alpha  occ. eigenvalues --   -0.32036  -0.31882  -0.31714  -0.31552  -0.31486
 Alpha  occ. eigenvalues --   -0.30930  -0.30485  -0.29942  -0.29571  -0.28947
 Alpha  occ. eigenvalues --   -0.28798  -0.28712  -0.28540  -0.27066  -0.25914
 Alpha  occ. eigenvalues --   -0.25883  -0.25543  -0.25239  -0.24702  -0.21287
 Alpha  occ. eigenvalues --   -0.18746
 Alpha virt. eigenvalues --   -0.10954  -0.05650  -0.03618  -0.02098  -0.00507
 Alpha virt. eigenvalues --    0.00568   0.00794   0.01260   0.01387   0.02967
 Alpha virt. eigenvalues --    0.04236   0.04591   0.05124   0.05188   0.05590

 Mulliken charges:
               1
     1  Mg   0.967170
     2  C   -0.046643
     3  C   -0.046658
     4  C   -0.059638
     5  C   -0.061509
     6  N   -0.378591
     7  C    0.019165
     8  C   -0.086841
     9  C   -0.206280
    10  C    0.069321
    11  C    0.017118
    12  C    0.028266
    13  C   -0.011245
    14  C    0.212801
    15  O   -0.249128
    16  O   -0.383227
    17  N   -0.447731
    18  C    0.175424
    19  C   -0.167663
    20  C   -0.064995
    21  C    0.181081
    22  C    0.082955
    23  C    0.034919
    24  O   -0.231301
    25  C   -0.035260
    26  N   -0.429140
    27  C    0.071499
    28  C   -0.127878
    29  C   -0.079860
    30  C    0.080958
    31  C    0.005987
    32  C   -0.038125
    33  C   -0.055773
    34  N   -0.467896
    35  C    0.136758
    36  C   -0.205265
    37  C   -0.058542
    38  C    0.219360
    39  C    0.052579
    40  C    0.159925
    41  O   -0.197008
    42  C   -0.092081
    43  C    0.278006
    44  O   -0.270501
    45  O   -0.353114
    46  C    0.125315
    47  C    0.228556
    48  C   -0.129398
    49  C   -0.196193
    50  C   -0.007731
    51  C    0.032838
    52  C   -0.102625
    53  C    0.018641
    54  C   -0.269830
    55  C    0.014781
    56  C    0.030549
    57  C   -0.044159
    58  C    0.024473
    59  C   -0.228551
    60  C   -0.048770
    61  C   -0.001628
    62  C   -0.022461
    63  C   -0.051452
    64  C   -0.262926
    65  C   -0.011187
    66  C   -0.013463
    67  H    0.008111
    68  H   -0.010389
    69  H    0.014751
    70  H    0.039392
    71  H    0.038858
    72  H    0.049101
    73  H    0.049365
    74  H    0.043133
    75  H    0.050839
    76  H    0.055163
    77  H    0.062770
    78  H    0.055759
    79  H    0.064049
    80  H    0.022862
    81  H    0.055517
    82  H    0.080222
    83  H    0.059461
    84  H    0.046690
    85  H    0.055674
    86  H    0.043473
    87  H    0.052318
    88  H    0.035206
    89  H    0.045130
    90  H    0.027533
    91  H    0.010234
    92  H    0.053175
    93  H    0.054137
    94  H    0.051595
    95  H    0.040174
    96  H    0.052448
    97  H    0.061960
    98  H    0.084466
    99  H    0.058701
   100  H    0.077379
   101  H    0.047600
   102  H    0.077960
   103  H    0.051581
   104  H    0.037331
   105  H    0.042042
   106  H    0.038539
   107  H    0.049933
   108  H    0.023086
   109  H    0.041390
   110  H    0.041834
   111  H    0.041876
   112  H    0.028546
   113  H    0.028298
   114  H    0.036921
   115  H    0.040653
   116  H    0.034524
   117  H    0.022233
   118  H    0.015978
   119  H    0.016839
   120  H    0.035624
   121  H    0.031575
   122  H    0.028168
   123  H    0.018060
   124  H    0.043151
   125  H    0.037364
   126  H    0.035936
   127  H    0.018303
   128  H    0.019168
   129  H    0.027795
   130  H    0.023625
   131  H    0.043131
   132  H    0.024449
   133  H    0.032996
   134  H    0.033641
   135  H    0.030905
   136  H    0.042413
   137  H    0.035033
   138  H    0.036746
   139  H    0.034168
   140  H    0.035148
 Sum of Mulliken charges =  -0.00000

 Dipole moment (field-independent basis, Debye):
    X=             -2.2533    Y=              2.2967    Z=              0.0923  Tot=              3.2188
 Quadrupole moment (field-independent basis, Debye-Ang):
   XX=           -400.1737   YY=           -392.8108   ZZ=           -411.3148
   XY=              6.3130   XZ=             -0.4172   YZ=             56.3021

 Normal termination of Gaussian 16 at Thu May  5 12:18:38 2022.
