 Gaussian 16, Revision A.03,
 Gaussian 16:  ES64L-G16RevA.03 25-Dec-2016

 --------------------------------
 #p wB97XD/Def2SVP td=(nstates=5)
 --------------------------------

 ---------------------------------------------------
 step_851_chromophore_8 TDDFT with wB97XD functional
 ---------------------------------------------------
 Symbolic Z-matrix:
 Charge =  0 Multiplicity = 1

                         Standard orientation:
 ---------------------------------------------------------------------
 Center     Atomic      Atomic             Coordinates (Angstroms)
 Number     Number       Type             X           Y           Z
 ---------------------------------------------------------------------
      1         12           0        4.519148    1.000138    0.231989
      2          6           0        4.128337   -2.310842    0.730747
      3          6           0        4.430150    0.493064   -3.217736
      4          6           0        4.359777    4.315070   -0.364203
      5          6           0        3.726135    1.531729    3.687684
      6          7           0        4.119782   -0.733206   -1.014749
      7          6           0        4.061226   -1.976795   -0.607354
      8          6           0        3.690782   -2.905516   -1.794579
      9          6           0        4.258428   -2.069878   -2.993141
     10          6           0        4.258836   -0.607311   -2.386304
     11          6           0        5.726957   -2.476181   -3.408306
     12          6           0        2.094297   -3.193650   -1.987188
     13          6           0        1.545399   -4.590803   -1.665395
     14          6           0        0.196460   -4.696160   -0.914657
     15          8           0        0.054682   -5.204813    0.179091
     16          8           0       -0.823470   -4.192386   -1.691582
     17          7           0        4.648952    2.273382   -1.549662
     18          6           0        4.513760    1.857762   -2.831349
     19          6           0        4.609676    2.989823   -3.671329
     20          6           0        4.583332    4.169243   -2.906081
     21          6           0        4.560441    3.638041   -1.522129
     22          6           0        4.589475    2.790977   -5.148198
     23          6           0        4.528668    5.546173   -3.518117
     24          8           0        4.546923    5.701067   -4.731291
     25          6           0        4.644790    6.763242   -2.637496
     26          7           0        4.117024    2.652633    1.470573
     27          6           0        4.197167    3.926097    0.965493
     28          6           0        3.821780    4.976906    2.048831
     29          6           0        3.636163    4.097555    3.390056
     30          6           0        3.769868    2.679456    2.831319
     31          6           0        4.899888    6.027012    2.132259
     32          6           0        2.363158    4.339450    4.208731
     33          6           0        2.442707    4.840802    5.702855
     34          7           0        4.034109   -0.115991    1.870745
     35          6           0        3.864391    0.217657    3.179609
     36          6           0        4.061697   -1.011161    3.917776
     37          6           0        4.173687   -2.032270    2.982282
     38          6           0        4.146653   -1.424105    1.775321
     39          6           0        3.980209   -1.246713    5.324195
     40          6           0        4.198821   -3.483724    2.877580
     41          8           0        4.260818   -4.392729    3.675608
     42          6           0        4.231048   -3.694952    1.347683
     43          6           0        5.404498   -4.466957    0.916934
     44          8           0        6.550699   -4.027061    0.842640
     45          8           0        4.998882   -5.657829    0.423466
     46          6           0        6.081824   -6.520445   -0.065652
     47          6           0       -2.198693   -4.361705   -1.115601
     48          6           0       -2.831794   -3.051794   -1.081464
     49          6           0       -4.021810   -2.831857   -0.506228
     50          6           0       -4.971944   -3.907179    0.214018
     51          6           0       -4.521154   -1.410808   -0.341603
     52          6           0       -5.907479   -1.071416   -0.996162
     53          6           0       -5.844157   -0.104575   -2.157803
     54          6           0       -7.255426    0.486401   -2.373856
     55          6           0       -7.698767    0.447517   -3.879538
     56          6           0       -7.403812    1.931378   -1.868514
     57          6           0       -8.630078    2.189489   -1.117828
     58          6           0       -8.291774    2.143180    0.386005
     59          6           0       -9.521665    1.926542    1.216176
     60          6           0       -9.498456    2.984032    2.389499
     61          6           0       -9.669933    0.425055    1.813482
     62          6           0      -10.708308   -0.352170    1.044846
     63          6           0      -12.148584   -0.082506    1.510926
     64          6           0      -13.205725    0.382909    0.462279
     65          6           0      -13.404936   -0.761421   -0.580307
     66          6           0      -14.527882    0.815822    1.073027
     67          1           0        4.362927    0.139940   -4.248205
     68          1           0        4.456814    5.400487   -0.431329
     69          1           0        3.672820    1.653229    4.772091
     70          1           0        4.238552   -3.846852   -1.816840
     71          1           0        3.621780   -2.187724   -3.870142
     72          1           0        6.525513   -1.745099   -3.279003
     73          1           0        5.708970   -2.736306   -4.466083
     74          1           0        6.035577   -3.265277   -2.722175
     75          1           0        1.739338   -2.818400   -2.946972
     76          1           0        1.638899   -2.546437   -1.237213
     77          1           0        2.294518   -5.251911   -1.229323
     78          1           0        1.292297   -5.031680   -2.630421
     79          1           0        4.013806    3.570007   -5.648544
     80          1           0        4.020468    1.875166   -5.307560
     81          1           0        5.571583    2.592386   -5.577634
     82          1           0        5.480928    6.921479   -1.956132
     83          1           0        3.661328    6.893228   -2.187553
     84          1           0        4.722762    7.562476   -3.374531
     85          1           0        2.867903    5.444798    1.805095
     86          1           0        4.444308    4.253813    4.103817
     87          1           0        5.857590    5.691189    1.736137
     88          1           0        5.081308    6.294588    3.173143
     89          1           0        4.590649    6.948634    1.640660
     90          1           0        1.609600    3.586617    3.976963
     91          1           0        1.781099    5.076427    3.656368
     92          1           0        3.441505    4.957034    6.125303
     93          1           0        1.867614    4.129490    6.295427
     94          1           0        1.903404    5.783571    5.618894
     95          1           0        3.137090   -0.726509    5.777992
     96          1           0        4.880433   -0.916357    5.840833
     97          1           0        3.812348   -2.313268    5.474226
     98          1           0        3.361678   -4.310636    1.119388
     99          1           0        5.717469   -7.527662   -0.264406
    100          1           0        6.953568   -6.557719    0.588264
    101          1           0        6.308858   -6.108870   -1.049463
    102          1           0       -2.258831   -5.066297   -0.286594
    103          1           0       -2.852267   -4.864547   -1.828343
    104          1           0       -2.232390   -2.188318   -1.367831
    105          1           0       -5.206426   -3.498626    1.195870
    106          1           0       -4.593603   -4.917897    0.364461
    107          1           0       -5.958052   -4.043784   -0.231275
    108          1           0       -3.748033   -0.772446   -0.768935
    109          1           0       -4.546628   -1.278883    0.739779
    110          1           0       -6.552710   -0.544778   -0.292910
    111          1           0       -6.286842   -2.022879   -1.369314
    112          1           0       -5.494908   -0.701625   -3.000789
    113          1           0       -5.184943    0.718489   -1.880905
    114          1           0       -7.893731   -0.213706   -1.833215
    115          1           0       -7.850467    1.422034   -4.342841
    116          1           0       -8.574549   -0.202190   -3.880142
    117          1           0       -6.904858   -0.068889   -4.419119
    118          1           0       -7.399114    2.670624   -2.670490
    119          1           0       -6.500782    2.156416   -1.300259
    120          1           0       -9.294648    1.336806   -1.254198
    121          1           0       -9.039477    3.159582   -1.397943
    122          1           0       -7.810145    3.051149    0.749824
    123          1           0       -7.668331    1.267136    0.565577
    124          1           0      -10.406299    2.095912    0.603024
    125          1           0       -9.369840    4.043254    2.165381
    126          1           0       -8.813371    2.664873    3.174082
    127          1           0      -10.435154    3.041748    2.944396
    128          1           0      -10.032692    0.615417    2.824021
    129          1           0       -8.742103   -0.134434    1.931879
    130          1           0      -10.562216   -1.374860    1.391333
    131          1           0      -10.629117   -0.243804   -0.037270
    132          1           0      -12.099623    0.771808    2.186305
    133          1           0      -12.526462   -0.925085    2.091672
    134          1           0      -12.885929    1.320872    0.007937
    135          1           0      -14.457217   -1.042839   -0.604492
    136          1           0      -12.751516   -1.612650   -0.391373
    137          1           0      -13.160145   -0.329739   -1.551219
    138          1           0      -14.462754    1.895667    1.209378
    139          1           0      -14.553839    0.225180    1.988538
    140          1           0      -15.421049    0.621118    0.480268
 ---------------------------------------------------------------------

 SCF Done:  E(RwB97XD) =  -3007.84484005     A.U. after   18 cycles

 Excitation energies and oscillator strengths:

 Excited State   1:      Singlet-A      1.6868 eV  735.01 nm  f=0.3733  <S**2>=0.000
     245 -> 248        0.18882
     246 -> 247        0.68231
     245 <- 248        0.11636
 This state for optimization and/or second-order correction.
 Total Energy, E(TD-HF/TD-DFT) =  -3007.78284987
 Copying the excited state density for this state as the 1-particle RhoCI density.

 Excited State   2:      Singlet-A      2.2401 eV  553.48 nm  f=0.0626  <S**2>=0.000
     245 -> 247        0.61010
     246 -> 248       -0.34342

 Excited State   3:      Singlet-A      3.4437 eV  360.03 nm  f=0.1908  <S**2>=0.000
     242 -> 247        0.25617
     243 -> 247        0.49660
     245 -> 247        0.17130
     246 -> 248        0.37587

 Excited State   4:      Singlet-A      3.5068 eV  353.56 nm  f=0.2493  <S**2>=0.000
     242 -> 247       -0.25601
     243 -> 247        0.47111
     245 -> 247       -0.19485
     246 -> 248       -0.38287

 Excited State   5:      Singlet-A      3.6547 eV  339.25 nm  f=0.3569  <S**2>=0.000
     240 -> 247        0.13083
     240 -> 249        0.11117
     240 -> 250        0.10240
     242 -> 247        0.55151
     245 -> 247       -0.22775
     246 -> 248       -0.27217

 The electronic state is 1-A.
 Alpha  occ. eigenvalues --  -46.95049 -19.30881 -19.30423 -19.24706 -19.24278
 Alpha  occ. eigenvalues --  -19.24258 -19.23890 -14.47138 -14.46641 -14.44057
 Alpha  occ. eigenvalues --  -14.43066 -10.43225 -10.42802 -10.39153 -10.38843
 Alpha  occ. eigenvalues --  -10.35699 -10.35566 -10.35439 -10.35179 -10.35159
 Alpha  occ. eigenvalues --  -10.34770 -10.34129 -10.33308 -10.33308 -10.32696
 Alpha  occ. eigenvalues --  -10.32219 -10.32172 -10.32090 -10.31687 -10.31602
 Alpha  occ. eigenvalues --  -10.31449 -10.31423 -10.31216 -10.31186 -10.31128
 Alpha  occ. eigenvalues --  -10.31083 -10.31069 -10.30828 -10.30696 -10.30443
 Alpha  occ. eigenvalues --  -10.30439 -10.30436 -10.30330 -10.29962 -10.29906
 Alpha  occ. eigenvalues --  -10.29731 -10.29529 -10.29482 -10.29401 -10.29266
 Alpha  occ. eigenvalues --  -10.29255 -10.29056 -10.28952 -10.28753 -10.28714
 Alpha  occ. eigenvalues --  -10.28547 -10.28527 -10.28282 -10.28265 -10.28132
 Alpha  occ. eigenvalues --  -10.28013 -10.27947 -10.27939 -10.27901 -10.27811
 Alpha  occ. eigenvalues --  -10.27686  -3.21037  -1.94618  -1.94145  -1.94021
 Alpha  occ. eigenvalues --   -1.19084  -1.17979  -1.12738  -1.12369  -1.09900
 Alpha  occ. eigenvalues --   -1.09613  -1.07546  -1.06205  -1.05609  -1.04085
 Alpha  occ. eigenvalues --   -0.95428  -0.92828  -0.91907  -0.91229  -0.91002
 Alpha  occ. eigenvalues --   -0.90529  -0.90329  -0.89744  -0.89339  -0.89138
 Alpha  occ. eigenvalues --   -0.88262  -0.87512  -0.86818  -0.86167  -0.85732
 Alpha  occ. eigenvalues --   -0.84802  -0.84261  -0.83540  -0.83154  -0.82719
 Alpha  occ. eigenvalues --   -0.81269  -0.80275  -0.79698  -0.79197  -0.78328
 Alpha  occ. eigenvalues --   -0.77931  -0.77120  -0.76885  -0.76380  -0.75886
 Alpha  occ. eigenvalues --   -0.74975  -0.74442  -0.73712  -0.72241  -0.71642
 Alpha  occ. eigenvalues --   -0.70667  -0.69956  -0.69633  -0.68364  -0.67871
 Alpha  occ. eigenvalues --   -0.67676  -0.66935  -0.66786  -0.66730  -0.65719
 Alpha  occ. eigenvalues --   -0.65632  -0.64946  -0.64432  -0.63972  -0.62478
 Alpha  occ. eigenvalues --   -0.62134  -0.61884  -0.61120  -0.60738  -0.60522
 Alpha  occ. eigenvalues --   -0.59693  -0.58650  -0.58389  -0.57882  -0.57548
 Alpha  occ. eigenvalues --   -0.57176  -0.57023  -0.56676  -0.56406  -0.56170
 Alpha  occ. eigenvalues --   -0.56108  -0.55836  -0.55175  -0.54910  -0.54815
 Alpha  occ. eigenvalues --   -0.54492  -0.54191  -0.54097  -0.53963  -0.53658
 Alpha  occ. eigenvalues --   -0.53535  -0.53475  -0.53069  -0.52935  -0.52441
 Alpha  occ. eigenvalues --   -0.52212  -0.51993  -0.51758  -0.51641  -0.51612
 Alpha  occ. eigenvalues --   -0.51435  -0.51311  -0.51091  -0.50937  -0.50698
 Alpha  occ. eigenvalues --   -0.50651  -0.50416  -0.50093  -0.49547  -0.49448
 Alpha  occ. eigenvalues --   -0.49409  -0.49271  -0.48979  -0.48835  -0.48750
 Alpha  occ. eigenvalues --   -0.48265  -0.48171  -0.47882  -0.47597  -0.47474
 Alpha  occ. eigenvalues --   -0.47431  -0.47360  -0.47237  -0.47017  -0.46773
 Alpha  occ. eigenvalues --   -0.46729  -0.46619  -0.46499  -0.46086  -0.45999
 Alpha  occ. eigenvalues --   -0.45679  -0.45499  -0.45337  -0.45271  -0.44891
 Alpha  occ. eigenvalues --   -0.44712  -0.44589  -0.44501  -0.44469  -0.44205
 Alpha  occ. eigenvalues --   -0.44019  -0.43957  -0.43561  -0.43469  -0.43272
 Alpha  occ. eigenvalues --   -0.42735  -0.42264  -0.42081  -0.41983  -0.41916
 Alpha  occ. eigenvalues --   -0.41858  -0.41616  -0.41353  -0.40930  -0.40547
 Alpha  occ. eigenvalues --   -0.40134  -0.40017  -0.39779  -0.39514  -0.39059
 Alpha  occ. eigenvalues --   -0.39026  -0.38841  -0.38804  -0.38522  -0.38477
 Alpha  occ. eigenvalues --   -0.37786  -0.37475  -0.36888  -0.36365  -0.35796
 Alpha  occ. eigenvalues --   -0.35723  -0.35703  -0.35535  -0.33655  -0.33114
 Alpha  occ. eigenvalues --   -0.32959  -0.32100  -0.31854  -0.31419  -0.26305
 Alpha  occ. eigenvalues --   -0.22913
 Alpha virt. eigenvalues --   -0.06766  -0.00276   0.02670   0.04434   0.05442
 Alpha virt. eigenvalues --    0.07316   0.07629   0.08060   0.08076   0.09527
 Alpha virt. eigenvalues --    0.11010   0.11109   0.11779   0.11880   0.12374

 Mulliken charges:
               1
     1  Mg   0.959485
     2  C   -0.042728
     3  C   -0.066838
     4  C   -0.072611
     5  C   -0.081298
     6  N   -0.344159
     7  C   -0.022729
     8  C   -0.057639
     9  C   -0.177045
    10  C    0.057779
    11  C    0.024452
    12  C    0.036437
    13  C    0.004759
    14  C    0.203618
    15  O   -0.247618
    16  O   -0.383062
    17  N   -0.415295
    18  C    0.168762
    19  C   -0.160613
    20  C   -0.064107
    21  C    0.180684
    22  C    0.095944
    23  C    0.033058
    24  O   -0.225966
    25  C   -0.026356
    26  N   -0.396260
    27  C    0.059319
    28  C   -0.100681
    29  C   -0.053599
    30  C    0.068255
    31  C    0.014900
    32  C   -0.027820
    33  C   -0.038715
    34  N   -0.425410
    35  C    0.125513
    36  C   -0.196242
    37  C   -0.058620
    38  C    0.202753
    39  C    0.060757
    40  C    0.141458
    41  O   -0.185630
    42  C   -0.054152
    43  C    0.251344
    44  O   -0.264702
    45  O   -0.350811
    46  C    0.140961
    47  C    0.239194
    48  C   -0.132337
    49  C   -0.188822
    50  C    0.005024
    51  C    0.051868
    52  C   -0.070627
    53  C    0.031201
    54  C   -0.235170
    55  C    0.026699
    56  C    0.045201
    57  C   -0.015680
    58  C    0.043335
    59  C   -0.198960
    60  C   -0.032701
    61  C    0.015790
    62  C   -0.002528
    63  C   -0.033557
    64  C   -0.233628
    65  C    0.000349
    66  C   -0.001677
    67  H    0.003166
    68  H   -0.025778
    69  H    0.011432
    70  H    0.022099
    71  H    0.029960
    72  H    0.043440
    73  H    0.044721
    74  H    0.036417
    75  H    0.045170
    76  H    0.044883
    77  H    0.058446
    78  H    0.049412
    79  H    0.060550
    80  H    0.015364
    81  H    0.052070
    82  H    0.077969
    83  H    0.055139
    84  H    0.044839
    85  H    0.045908
    86  H    0.030708
    87  H    0.045990
    88  H    0.029399
    89  H    0.039833
    90  H    0.020064
    91  H    0.000556
    92  H    0.047911
    93  H    0.048190
    94  H    0.045698
    95  H    0.034720
    96  H    0.047731
    97  H    0.057568
    98  H    0.076463
    99  H    0.055605
   100  H    0.073735
   101  H    0.042616
   102  H    0.074366
   103  H    0.045554
   104  H    0.035159
   105  H    0.036091
   106  H    0.033894
   107  H    0.044622
   108  H    0.013783
   109  H    0.033687
   110  H    0.023476
   111  H    0.030033
   112  H    0.019385
   113  H    0.018047
   114  H    0.018654
   115  H    0.035013
   116  H    0.029292
   117  H    0.015341
   118  H    0.007967
   119  H    0.005042
   120  H    0.015674
   121  H    0.025678
   122  H    0.019923
   123  H   -0.002693
   124  H    0.024469
   125  H    0.031933
   126  H    0.028621
   127  H    0.011245
   128  H    0.008078
   129  H    0.021611
   130  H    0.016322
   131  H    0.030219
   132  H    0.009966
   133  H    0.025023
   134  H    0.021995
   135  H    0.024941
   136  H    0.035833
   137  H    0.029363
   138  H    0.031522
   139  H    0.026564
   140  H    0.029799
 Sum of Mulliken charges =  -0.00000

 Dipole moment (field-independent basis, Debye):
    X=             -2.1737    Y=              2.4043    Z=             -0.0970  Tot=              3.2427
 Quadrupole moment (field-independent basis, Debye-Ang):
   XX=           -399.2125   YY=           -391.4663   ZZ=           -411.1218
   XY=              6.7649   XZ=             -1.0812   YZ=             55.5438

 Normal termination of Gaussian 16 at Thu May  5 12:49:24 2022.
