 Gaussian 16, Revision A.03,
 Gaussian 16:  ES64L-G16RevA.03 25-Dec-2016

 --------------------
 #p ZINDO=(nstates=5)
 --------------------

 ----------------------------
 step_851_chromophore_8 ZINDO
 ----------------------------
 Symbolic Z-matrix:
 Charge =  0 Multiplicity = 1

                         Standard orientation:
 ---------------------------------------------------------------------
 Center     Atomic      Atomic             Coordinates (Angstroms)
 Number     Number       Type             X           Y           Z
 ---------------------------------------------------------------------
      1         12           0        4.519148    1.000138    0.231989
      2          6           0        4.128337   -2.310842    0.730747
      3          6           0        4.430150    0.493064   -3.217736
      4          6           0        4.359777    4.315070   -0.364203
      5          6           0        3.726135    1.531729    3.687684
      6          7           0        4.119782   -0.733206   -1.014749
      7          6           0        4.061226   -1.976795   -0.607354
      8          6           0        3.690782   -2.905516   -1.794579
      9          6           0        4.258428   -2.069878   -2.993141
     10          6           0        4.258836   -0.607311   -2.386304
     11          6           0        5.726957   -2.476181   -3.408306
     12          6           0        2.094297   -3.193650   -1.987188
     13          6           0        1.545399   -4.590803   -1.665395
     14          6           0        0.196460   -4.696160   -0.914657
     15          8           0        0.054682   -5.204813    0.179091
     16          8           0       -0.823470   -4.192386   -1.691582
     17          7           0        4.648952    2.273382   -1.549662
     18          6           0        4.513760    1.857762   -2.831349
     19          6           0        4.609676    2.989823   -3.671329
     20          6           0        4.583332    4.169243   -2.906081
     21          6           0        4.560441    3.638041   -1.522129
     22          6           0        4.589475    2.790977   -5.148198
     23          6           0        4.528668    5.546173   -3.518117
     24          8           0        4.546923    5.701067   -4.731291
     25          6           0        4.644790    6.763242   -2.637496
     26          7           0        4.117024    2.652633    1.470573
     27          6           0        4.197167    3.926097    0.965493
     28          6           0        3.821780    4.976906    2.048831
     29          6           0        3.636163    4.097555    3.390056
     30          6           0        3.769868    2.679456    2.831319
     31          6           0        4.899888    6.027012    2.132259
     32          6           0        2.363158    4.339450    4.208731
     33          6           0        2.442707    4.840802    5.702855
     34          7           0        4.034109   -0.115991    1.870745
     35          6           0        3.864391    0.217657    3.179609
     36          6           0        4.061697   -1.011161    3.917776
     37          6           0        4.173687   -2.032270    2.982282
     38          6           0        4.146653   -1.424105    1.775321
     39          6           0        3.980209   -1.246713    5.324195
     40          6           0        4.198821   -3.483724    2.877580
     41          8           0        4.260818   -4.392729    3.675608
     42          6           0        4.231048   -3.694952    1.347683
     43          6           0        5.404498   -4.466957    0.916934
     44          8           0        6.550699   -4.027061    0.842640
     45          8           0        4.998882   -5.657829    0.423466
     46          6           0        6.081824   -6.520445   -0.065652
     47          6           0       -2.198693   -4.361705   -1.115601
     48          6           0       -2.831794   -3.051794   -1.081464
     49          6           0       -4.021810   -2.831857   -0.506228
     50          6           0       -4.971944   -3.907179    0.214018
     51          6           0       -4.521154   -1.410808   -0.341603
     52          6           0       -5.907479   -1.071416   -0.996162
     53          6           0       -5.844157   -0.104575   -2.157803
     54          6           0       -7.255426    0.486401   -2.373856
     55          6           0       -7.698767    0.447517   -3.879538
     56          6           0       -7.403812    1.931378   -1.868514
     57          6           0       -8.630078    2.189489   -1.117828
     58          6           0       -8.291774    2.143180    0.386005
     59          6           0       -9.521665    1.926542    1.216176
     60          6           0       -9.498456    2.984032    2.389499
     61          6           0       -9.669933    0.425055    1.813482
     62          6           0      -10.708308   -0.352170    1.044846
     63          6           0      -12.148584   -0.082506    1.510926
     64          6           0      -13.205725    0.382909    0.462279
     65          6           0      -13.404936   -0.761421   -0.580307
     66          6           0      -14.527882    0.815822    1.073027
     67          1           0        4.362927    0.139940   -4.248205
     68          1           0        4.456814    5.400487   -0.431329
     69          1           0        3.672820    1.653229    4.772091
     70          1           0        4.238552   -3.846852   -1.816840
     71          1           0        3.621780   -2.187724   -3.870142
     72          1           0        6.525513   -1.745099   -3.279003
     73          1           0        5.708970   -2.736306   -4.466083
     74          1           0        6.035577   -3.265277   -2.722175
     75          1           0        1.739338   -2.818400   -2.946972
     76          1           0        1.638899   -2.546437   -1.237213
     77          1           0        2.294518   -5.251911   -1.229323
     78          1           0        1.292297   -5.031680   -2.630421
     79          1           0        4.013806    3.570007   -5.648544
     80          1           0        4.020468    1.875166   -5.307560
     81          1           0        5.571583    2.592386   -5.577634
     82          1           0        5.480928    6.921479   -1.956132
     83          1           0        3.661328    6.893228   -2.187553
     84          1           0        4.722762    7.562476   -3.374531
     85          1           0        2.867903    5.444798    1.805095
     86          1           0        4.444308    4.253813    4.103817
     87          1           0        5.857590    5.691189    1.736137
     88          1           0        5.081308    6.294588    3.173143
     89          1           0        4.590649    6.948634    1.640660
     90          1           0        1.609600    3.586617    3.976963
     91          1           0        1.781099    5.076427    3.656368
     92          1           0        3.441505    4.957034    6.125303
     93          1           0        1.867614    4.129490    6.295427
     94          1           0        1.903404    5.783571    5.618894
     95          1           0        3.137090   -0.726509    5.777992
     96          1           0        4.880433   -0.916357    5.840833
     97          1           0        3.812348   -2.313268    5.474226
     98          1           0        3.361678   -4.310636    1.119388
     99          1           0        5.717469   -7.527662   -0.264406
    100          1           0        6.953568   -6.557719    0.588264
    101          1           0        6.308858   -6.108870   -1.049463
    102          1           0       -2.258831   -5.066297   -0.286594
    103          1           0       -2.852267   -4.864547   -1.828343
    104          1           0       -2.232390   -2.188318   -1.367831
    105          1           0       -5.206426   -3.498626    1.195870
    106          1           0       -4.593603   -4.917897    0.364461
    107          1           0       -5.958052   -4.043784   -0.231275
    108          1           0       -3.748033   -0.772446   -0.768935
    109          1           0       -4.546628   -1.278883    0.739779
    110          1           0       -6.552710   -0.544778   -0.292910
    111          1           0       -6.286842   -2.022879   -1.369314
    112          1           0       -5.494908   -0.701625   -3.000789
    113          1           0       -5.184943    0.718489   -1.880905
    114          1           0       -7.893731   -0.213706   -1.833215
    115          1           0       -7.850467    1.422034   -4.342841
    116          1           0       -8.574549   -0.202190   -3.880142
    117          1           0       -6.904858   -0.068889   -4.419119
    118          1           0       -7.399114    2.670624   -2.670490
    119          1           0       -6.500782    2.156416   -1.300259
    120          1           0       -9.294648    1.336806   -1.254198
    121          1           0       -9.039477    3.159582   -1.397943
    122          1           0       -7.810145    3.051149    0.749824
    123          1           0       -7.668331    1.267136    0.565577
    124          1           0      -10.406299    2.095912    0.603024
    125          1           0       -9.369840    4.043254    2.165381
    126          1           0       -8.813371    2.664873    3.174082
    127          1           0      -10.435154    3.041748    2.944396
    128          1           0      -10.032692    0.615417    2.824021
    129          1           0       -8.742103   -0.134434    1.931879
    130          1           0      -10.562216   -1.374860    1.391333
    131          1           0      -10.629117   -0.243804   -0.037270
    132          1           0      -12.099623    0.771808    2.186305
    133          1           0      -12.526462   -0.925085    2.091672
    134          1           0      -12.885929    1.320872    0.007937
    135          1           0      -14.457217   -1.042839   -0.604492
    136          1           0      -12.751516   -1.612650   -0.391373
    137          1           0      -13.160145   -0.329739   -1.551219
    138          1           0      -14.462754    1.895667    1.209378
    139          1           0      -14.553839    0.225180    1.988538
    140          1           0      -15.421049    0.621118    0.480268
 ---------------------------------------------------------------------

 SCF Done:  E(RZINDO/S) =  -474.646142592     A.U. after   19 cycles

 Excitation energies and oscillator strengths:

 Excited State   1:      Singlet-A      1.2775 eV  970.55 nm  f=0.6015  <S**2>=0.000
     175 ->178        -0.18944
     176 ->177         0.66251
 This state for optimization and/or second-order correction.
 Total Energy, E(CIS/TDA) =  -474.599196465
 Copying the excited state density for this state as the 1-particle RhoCI density.

 Excited State   2:      Singlet-A      1.9323 eV  641.63 nm  f=0.0126  <S**2>=0.000
     175 ->177         0.51284
     176 ->178         0.46222

 Excited State   3:      Singlet-A      2.9658 eV  418.04 nm  f=0.0060  <S**2>=0.000
     167 ->179         0.11412
     167 ->180         0.10357
     168 ->177         0.26012
     168 ->178        -0.18982
     168 ->179        -0.34005
     168 ->180        -0.29357
     168 ->185        -0.19413
     168 ->187        -0.10349
     169 ->177         0.10401
     169 ->179        -0.12622
     169 ->180        -0.11016

 Excited State   4:      Singlet-A      2.9995 eV  413.35 nm  f=0.8165  <S**2>=0.000
     175 ->177        -0.36197
     176 ->178         0.44897
     176 ->179         0.28563
     176 ->181         0.10470

 Excited State   5:      Singlet-A      3.0534 eV  406.05 nm  f=0.0245  <S**2>=0.000
     170 ->177         0.30689
     170 ->179         0.34695
     170 ->180        -0.30873
     170 ->183        -0.12164
     170 ->184         0.10710
     170 ->185         0.19967
     170 ->187        -0.14568
     176 ->179         0.16301

 The electronic state is 1-A.
 Alpha  occ. eigenvalues --   -1.89267  -1.82067  -1.79390  -1.74043  -1.72070
 Alpha  occ. eigenvalues --   -1.71095  -1.68938  -1.62187  -1.60349  -1.60088
 Alpha  occ. eigenvalues --   -1.55375  -1.51164  -1.49697  -1.46986  -1.46573
 Alpha  occ. eigenvalues --   -1.44152  -1.43430  -1.41647  -1.40244  -1.39437
 Alpha  occ. eigenvalues --   -1.37096  -1.35261  -1.33967  -1.32105  -1.28692
 Alpha  occ. eigenvalues --   -1.28325  -1.27018  -1.23439  -1.21028  -1.19082
 Alpha  occ. eigenvalues --   -1.18632  -1.15699  -1.15615  -1.14915  -1.13778
 Alpha  occ. eigenvalues --   -1.12597  -1.10543  -1.09987  -1.04893  -1.03273
 Alpha  occ. eigenvalues --   -1.02132  -1.01078  -0.98220  -0.97771  -0.96727
 Alpha  occ. eigenvalues --   -0.95917  -0.94768  -0.94279  -0.93319  -0.92948
 Alpha  occ. eigenvalues --   -0.90993  -0.90842  -0.88331  -0.87631  -0.86654
 Alpha  occ. eigenvalues --   -0.86347  -0.85235  -0.83736  -0.82796  -0.81047
 Alpha  occ. eigenvalues --   -0.79912  -0.79050  -0.78032  -0.77044  -0.76853
 Alpha  occ. eigenvalues --   -0.76389  -0.75381  -0.74590  -0.74257  -0.73683
 Alpha  occ. eigenvalues --   -0.72776  -0.72465  -0.71769  -0.71024  -0.70859
 Alpha  occ. eigenvalues --   -0.70270  -0.69822  -0.68625  -0.68551  -0.67437
 Alpha  occ. eigenvalues --   -0.67087  -0.66835  -0.66060  -0.65977  -0.65768
 Alpha  occ. eigenvalues --   -0.65651  -0.65308  -0.64967  -0.63925  -0.63649
 Alpha  occ. eigenvalues --   -0.63257  -0.62929  -0.62594  -0.62358  -0.62020
 Alpha  occ. eigenvalues --   -0.61972  -0.61699  -0.60465  -0.59717  -0.59579
 Alpha  occ. eigenvalues --   -0.59169  -0.58652  -0.58414  -0.58290  -0.58042
 Alpha  occ. eigenvalues --   -0.57450  -0.57398  -0.56858  -0.56682  -0.56312
 Alpha  occ. eigenvalues --   -0.56089  -0.55887  -0.55506  -0.55446  -0.54939
 Alpha  occ. eigenvalues --   -0.54420  -0.54379  -0.53758  -0.53359  -0.53056
 Alpha  occ. eigenvalues --   -0.52271  -0.52036  -0.51920  -0.51741  -0.51614
 Alpha  occ. eigenvalues --   -0.51377  -0.50968  -0.50868  -0.50641  -0.50366
 Alpha  occ. eigenvalues --   -0.50190  -0.49998  -0.49197  -0.48929  -0.48694
 Alpha  occ. eigenvalues --   -0.48257  -0.48169  -0.47998  -0.47907  -0.47442
 Alpha  occ. eigenvalues --   -0.47290  -0.47234  -0.46908  -0.46677  -0.46599
 Alpha  occ. eigenvalues --   -0.46311  -0.45931  -0.45737  -0.45477  -0.45405
 Alpha  occ. eigenvalues --   -0.44901  -0.44792  -0.44614  -0.44438  -0.44155
 Alpha  occ. eigenvalues --   -0.43934  -0.43801  -0.42558  -0.42044  -0.41932
 Alpha  occ. eigenvalues --   -0.41659  -0.41137  -0.40822  -0.39311  -0.38820
 Alpha  occ. eigenvalues --   -0.38238  -0.36509  -0.35691  -0.35295  -0.34682
 Alpha  occ. eigenvalues --   -0.33247  -0.32949  -0.32390  -0.31961  -0.26934
 Alpha  occ. eigenvalues --   -0.21773
 Alpha virt. eigenvalues --   -0.08334  -0.02462  -0.00306   0.01282   0.01395
 Alpha virt. eigenvalues --    0.02011   0.02660   0.02902   0.04690   0.04749
 Alpha virt. eigenvalues --    0.06130   0.07394   0.07669   0.07839   0.08359

 Mulliken charges:
               1
     1  Mg   0.428933
     2  C   -0.040195
     3  C   -0.077626
     4  C   -0.068607
     5  C   -0.063545
     6  N   -0.272161
     7  C    0.140682
     8  C   -0.004453
     9  C   -0.010196
    10  C    0.122633
    11  C   -0.055648
    12  C   -0.025216
    13  C    0.006734
    14  C    0.469251
    15  O   -0.508317
    16  O   -0.277533
    17  N   -0.327994
    18  C    0.122210
    19  C    0.046811
    20  C   -0.058140
    21  C    0.134498
    22  C   -0.043326
    23  C    0.337856
    24  O   -0.516541
    25  C   -0.038613
    26  N   -0.269790
    27  C    0.131493
    28  C    0.004087
    29  C    0.002265
    30  C    0.096902
    31  C   -0.046027
    32  C   -0.045302
    33  C   -0.055579
    34  N   -0.320026
    35  C    0.081951
    36  C    0.037443
    37  C   -0.059047
    38  C    0.135907
    39  C   -0.036191
    40  C    0.338263
    41  O   -0.511884
    42  C    0.053986
    43  C    0.496350
    44  O   -0.536332
    45  O   -0.261365
    46  C    0.074921
    47  C    0.101270
    48  C   -0.066902
    49  C   -0.024167
    50  C   -0.052405
    51  C   -0.030577
    52  C   -0.038868
    53  C   -0.036427
    54  C   -0.019726
    55  C   -0.066789
    56  C   -0.026592
    57  C   -0.032472
    58  C   -0.034094
    59  C   -0.018168
    60  C   -0.066664
    61  C   -0.036530
    62  C   -0.031081
    63  C   -0.034148
    64  C   -0.017357
    65  C   -0.060534
    66  C   -0.060244
    67  H    0.034503
    68  H    0.015037
    69  H    0.039049
    70  H    0.029346
    71  H    0.027420
    72  H    0.026776
    73  H    0.021877
    74  H    0.026188
    75  H    0.033655
    76  H    0.020998
    77  H    0.042668
    78  H    0.029558
    79  H    0.042243
    80  H    0.012497
    81  H    0.041024
    82  H    0.047497
    83  H    0.037402
    84  H    0.027112
    85  H    0.035751
    86  H    0.032918
    87  H    0.025717
    88  H    0.013403
    89  H    0.017708
    90  H    0.027585
    91  H    0.005404
    92  H    0.031909
    93  H    0.023016
    94  H    0.024100
    95  H    0.021025
    96  H    0.033777
    97  H    0.032926
    98  H    0.051187
    99  H    0.030876
   100  H    0.057685
   101  H    0.032943
   102  H    0.071508
   103  H    0.035310
   104  H    0.041339
   105  H    0.022350
   106  H    0.024539
   107  H    0.026182
   108  H    0.018108
   109  H    0.026623
   110  H    0.024170
   111  H    0.025575
   112  H    0.022527
   113  H    0.022762
   114  H    0.022479
   115  H    0.028771
   116  H    0.018061
   117  H    0.014787
   118  H    0.009931
   119  H    0.011605
   120  H    0.024553
   121  H    0.024021
   122  H    0.023514
   123  H    0.019094
   124  H    0.022623
   125  H    0.021231
   126  H    0.017664
   127  H    0.002026
   128  H    0.016120
   129  H    0.023474
   130  H    0.009945
   131  H    0.029504
   132  H    0.006724
   133  H    0.022216
   134  H    0.018679
   135  H    0.021448
   136  H    0.024047
   137  H    0.013414
   138  H    0.017146
   139  H    0.021421
   140  H    0.020681
 Sum of Mulliken charges =   0.00000

 Dipole moment (field-independent basis, Debye):
    X=             -3.3170    Y=              3.2903    Z=             -0.9318  Tot=              4.7642
 N-N= 4.417997111754D+03 E-N= 0.000000000000D+00  KE=-9.510439098065D+03
 Leave Link  601 at Thu May  5 13:02:17 2022, MaxMem=  6710886400 cpu:               1.0 elap:               0.1
 (Enter /sw/apps/gaussian-16.0/g16/l9999.exe)
 1\1\GINC-BP1-COMPUTE159\SP\RZINDO CIS\STO-3G\C55H74Mg1N4O6\OF15641\05-
 May-2022\0\\#p ZINDO=(nstates=5)\\step_851_chromophore_8 ZINDO\\0,1\Mg
 ,0,45.454,2.942,46.791\C,0,43.518,5.698,46.648\C,0,42.601,0.946,46.996
 \C,0,47.261,0.123,46.394\C,0,48.23,4.935,45.707\N,0,43.327,3.353,46.63
 2\C,0,42.769,4.538,46.65\C,0,41.236,4.404,46.447\C,0,41.,2.967,47.027\
 C,0,42.435,2.319,46.859\C,0,40.586,2.96,48.551\C,0,40.723,4.501,44.899
 \C,0,39.944,5.745,44.449\C,0,40.266,6.353,43.063\O,0,40.696,7.475,42.8

 Normal termination of Gaussian 16 at Thu May  5 13:02:17 2022.
