 Gaussian 16, Revision A.03,
 Gaussian 16:  ES64L-G16RevA.03 25-Dec-2016

 ------------------------------
 #p blyp/Def2SVP td=(nstates=5)
 ------------------------------

 ------------------------------------------------
 step_51_chromophore_8 TDDFT with blyp functional
 ------------------------------------------------
 Symbolic Z-matrix:
 Charge =  0 Multiplicity = 1

                         Standard orientation:
 ---------------------------------------------------------------------
 Center     Atomic      Atomic             Coordinates (Angstroms)
 Number     Number       Type             X           Y           Z
 ---------------------------------------------------------------------
      1         12           0       -4.639684   -0.889815    0.047210
      2          6           0       -3.605979    2.318413    0.988858
      3          6           0       -4.053560    0.021459   -3.197283
      4          6           0       -5.082128   -4.135983   -0.715713
      5          6           0       -4.459181   -1.828697    3.510488
      6          7           0       -3.614692    0.912758   -0.914861
      7          6           0       -3.443611    2.128677   -0.354955
      8          6           0       -2.937809    3.123647   -1.434772
      9          6           0       -3.338979    2.436957   -2.730530
     10          6           0       -3.656285    0.963204   -2.264874
     11          6           0       -4.477173    3.077728   -3.581092
     12          6           0       -1.336445    3.409409   -1.405761
     13          6           0       -0.982944    4.818802   -1.375758
     14          6           0        0.491113    5.211547   -1.456904
     15          8           0        0.974739    5.801060   -2.410692
     16          8           0        1.167735    4.859627   -0.338552
     17          7           0       -4.776323   -1.835357   -1.694139
     18          6           0       -4.480844   -1.328807   -2.951148
     19          6           0       -4.688674   -2.352987   -3.925015
     20          6           0       -5.224037   -3.463264   -3.291365
     21          6           0       -5.035076   -3.163933   -1.790485
     22          6           0       -4.383843   -2.158610   -5.396997
     23          6           0       -5.826193   -4.709500   -3.987410
     24          8           0       -5.800838   -4.749592   -5.231183
     25          6           0       -6.359733   -5.917781   -3.284521
     26          7           0       -4.736803   -2.744913    1.218014
     27          6           0       -5.028385   -3.980289    0.660750
     28          6           0       -5.129175   -5.074539    1.704872
     29          6           0       -5.064282   -4.269245    3.066444
     30          6           0       -4.763696   -2.826250    2.565910
     31          6           0       -6.471363   -5.963562    1.570391
     32          6           0       -3.947087   -4.718875    4.041013
     33          6           0       -4.327153   -5.145452    5.510837
     34          7           0       -4.042491   -0.007197    1.910737
     35          6           0       -4.068180   -0.466912    3.209083
     36          6           0       -3.662566    0.621008    4.079351
     37          6           0       -3.602458    1.783735    3.348325
     38          6           0       -3.780252    1.332138    1.998533
     39          6           0       -3.408559    0.402892    5.523941
     40          6           0       -3.459025    3.231808    3.304971
     41          8           0       -3.229416    4.080894    4.182595
     42          6           0       -3.477959    3.693705    1.756549
     43          6           0       -4.683278    4.559293    1.338830
     44          8           0       -5.799623    4.110101    1.118419
     45          8           0       -4.222307    5.822042    1.033849
     46          6           0       -5.221452    6.818729    0.540713
     47          6           0        2.608562    4.993530   -0.427843
     48          6           0        3.213388    3.662397    0.003203
     49          6           0        4.408460    3.192915   -0.216075
     50          6           0        5.601051    3.833756   -0.924381
     51          6           0        4.662413    1.721236    0.219851
     52          6           0        3.938016    0.694748   -0.650232
     53          6           0        4.723552   -0.655073   -0.585169
     54          6           0        5.637935   -0.910726   -1.851848
     55          6           0        4.726056   -1.687672   -2.844725
     56          6           0        6.946375   -1.701837   -1.410529
     57          6           0        8.037958   -0.605202   -1.068912
     58          6           0        8.514338   -0.681224    0.435792
     59          6           0        9.863644   -1.487311    0.629542
     60          6           0        9.608653   -2.686347    1.527469
     61          6           0       10.991745   -0.562764    1.257000
     62          6           0       12.204318   -0.788758    0.400817
     63          6           0       13.098084   -1.946394    0.789510
     64          6           0       14.582859   -1.786250    0.473255
     65          6           0       15.568221   -2.469455    1.441211
     66          6           0       14.842737   -2.104033   -0.977071
     67          1           0       -3.887883    0.319883   -4.234247
     68          1           0       -5.230284   -5.176835   -1.011119
     69          1           0       -4.552661   -2.121616    4.557618
     70          1           0       -3.558697    3.995227   -1.229444
     71          1           0       -2.494212    2.429283   -3.419855
     72          1           0       -4.201968    3.295215   -4.613722
     73          1           0       -4.924436    3.906804   -3.033182
     74          1           0       -5.369550    2.470350   -3.732037
     75          1           0       -0.778581    3.077552   -2.281169
     76          1           0       -0.800138    2.939545   -0.580759
     77          1           0       -1.346836    5.236836   -0.437263
     78          1           0       -1.517612    5.293762   -2.198240
     79          1           0       -3.686681   -2.938803   -5.701847
     80          1           0       -3.834497   -1.244960   -5.621360
     81          1           0       -5.288570   -2.207605   -6.002530
     82          1           0       -5.565706   -6.662937   -3.244140
     83          1           0       -7.121031   -6.262109   -3.985772
     84          1           0       -6.765283   -5.725225   -2.291531
     85          1           0       -4.266253   -5.737734    1.657294
     86          1           0       -6.066522   -4.410326    3.470805
     87          1           0       -6.401544   -7.010654    1.277179
     88          1           0       -7.134781   -5.600766    0.785855
     89          1           0       -7.120452   -5.917500    2.445356
     90          1           0       -3.146139   -3.980203    4.033100
     91          1           0       -3.504538   -5.608276    3.591999
     92          1           0       -3.858866   -6.116621    5.674126
     93          1           0       -5.400172   -5.336472    5.491441
     94          1           0       -3.992072   -4.441631    6.272299
     95          1           0       -3.817241   -0.534004    5.903079
     96          1           0       -3.941028    1.166821    6.091158
     97          1           0       -2.322042    0.341788    5.587263
     98          1           0       -2.573720    4.207646    1.431818
     99          1           0       -4.637647    7.389730   -0.181596
    100          1           0       -5.549303    7.408509    1.395743
    101          1           0       -6.144229    6.424009    0.115134
    102          1           0        2.930063    5.730766    0.306618
    103          1           0        2.967141    5.226501   -1.431320
    104          1           0        2.506576    2.933000    0.398725
    105          1           0        6.214177    3.104094   -1.453019
    106          1           0        6.257234    4.348486   -0.223149
    107          1           0        5.245533    4.703039   -1.477741
    108          1           0        4.402803    1.736574    1.277890
    109          1           0        5.735071    1.537184    0.288428
    110          1           0        3.973747    1.041480   -1.682901
    111          1           0        2.976949    0.486961   -0.179802
    112          1           0        3.934819   -1.401692   -0.488940
    113          1           0        5.316063   -0.689169    0.328865
    114          1           0        5.896673    0.018660   -2.357602
    115          1           0        3.673178   -1.422984   -2.743531
    116          1           0        4.791593   -2.765526   -2.699782
    117          1           0        4.891347   -1.448166   -3.895634
    118          1           0        7.228094   -2.328208   -2.257195
    119          1           0        6.709067   -2.419647   -0.625824
    120          1           0        7.907877    0.461760   -1.252242
    121          1           0        8.902254   -0.755594   -1.716058
    122          1           0        7.757493   -1.031367    1.138321
    123          1           0        8.520942    0.358755    0.759168
    124          1           0       10.245852   -1.895965   -0.305705
    125          1           0       10.463641   -3.362285    1.504481
    126          1           0        8.637799   -3.105213    1.264187
    127          1           0        9.521296   -2.307171    2.545262
    128          1           0       11.248251   -0.873222    2.269090
    129          1           0       10.825065    0.513556    1.225031
    130          1           0       12.742025    0.148949    0.543042
    131          1           0       12.089320   -0.755273   -0.681747
    132          1           0       12.627646   -2.754113    0.229028
    133          1           0       12.909800   -2.385776    1.768656
    134          1           0       14.875232   -0.747946    0.631155
    135          1           0       15.789151   -1.830601    2.296021
    136          1           0       16.512349   -2.790595    1.000187
    137          1           0       15.108306   -3.371580    1.845669
    138          1           0       14.195335   -1.595823   -1.693034
    139          1           0       14.711918   -3.172609   -1.143917
    140          1           0       15.892839   -1.844244   -1.109262
 ---------------------------------------------------------------------

 SCF Done:  E(RB-LYP) =  -3007.36983320     A.U. after   21 cycles

 Excitation energies and oscillator strengths:

 Excited State   1:      Singlet-A      1.7989 eV  689.23 nm  f=0.2804  <S**2>=0.000
     245 -> 248        0.17410
     246 -> 247        0.67660
     246 <- 247       -0.14836
 This state for optimization and/or second-order correction.
 Total Energy, E(TD-HF/TD-DFT) =  -3007.30372598
 Copying the excited state density for this state as the 1-particle RhoCI density.

 Excited State   2:      Singlet-A      1.9077 eV  649.93 nm  f=0.0122  <S**2>=0.000
     244 -> 247        0.67655
     245 -> 247       -0.16552

 Excited State   3:      Singlet-A      1.9761 eV  627.43 nm  f=0.0427  <S**2>=0.000
     243 -> 247        0.56367
     244 -> 247       -0.14614
     245 -> 247       -0.36670
     246 -> 248        0.10441

 Excited State   4:      Singlet-A      2.0748 eV  597.56 nm  f=0.0575  <S**2>=0.000
     243 -> 247        0.40993
     244 -> 247        0.11455
     245 -> 247        0.50451
     246 -> 248       -0.20267

 Excited State   5:      Singlet-A      2.3679 eV  523.60 nm  f=0.0001  <S**2>=0.000
     242 -> 247        0.70698

 The electronic state is 1-A.
 Alpha  occ. eigenvalues --  -46.27893 -18.82865 -18.82707 -18.77194 -18.76586
 Alpha  occ. eigenvalues --  -18.75944 -18.75355 -14.03334 -14.03067 -14.01855
 Alpha  occ. eigenvalues --  -14.01145 -10.04464 -10.04024 -10.00568 -10.00113
 Alpha  occ. eigenvalues --   -9.98357  -9.97826  -9.97225  -9.96813  -9.96657
 Alpha  occ. eigenvalues --   -9.96395  -9.96311  -9.95886  -9.95735  -9.95120
 Alpha  occ. eigenvalues --   -9.95085  -9.94694  -9.94433  -9.94198  -9.93841
 Alpha  occ. eigenvalues --   -9.93612  -9.93594  -9.93329  -9.93276  -9.93221
 Alpha  occ. eigenvalues --   -9.93197  -9.93163  -9.93141  -9.92956  -9.92876
 Alpha  occ. eigenvalues --   -9.92743  -9.92562  -9.92395  -9.92385  -9.92343
 Alpha  occ. eigenvalues --   -9.92298  -9.92204  -9.91976  -9.91960  -9.91822
 Alpha  occ. eigenvalues --   -9.91779  -9.91708  -9.91614  -9.91611  -9.91594
 Alpha  occ. eigenvalues --   -9.91276  -9.91012  -9.90980  -9.90840  -9.90824
 Alpha  occ. eigenvalues --   -9.90707  -9.90647  -9.90609  -9.90592  -9.90555
 Alpha  occ. eigenvalues --   -9.90328  -2.92485  -1.72881  -1.72386  -1.72201
 Alpha  occ. eigenvalues --   -0.98791  -0.97331  -0.90499  -0.90360  -0.90186
 Alpha  occ. eigenvalues --   -0.90069  -0.86665  -0.85994  -0.85696  -0.85054
 Alpha  occ. eigenvalues --   -0.74582  -0.73635  -0.73270  -0.73076  -0.72179
 Alpha  occ. eigenvalues --   -0.71647  -0.71581  -0.71140  -0.70770  -0.70347
 Alpha  occ. eigenvalues --   -0.69721  -0.69354  -0.67934  -0.67208  -0.67121
 Alpha  occ. eigenvalues --   -0.66601  -0.65976  -0.65295  -0.65155  -0.64932
 Alpha  occ. eigenvalues --   -0.64063  -0.62468  -0.61894  -0.61474  -0.60792
 Alpha  occ. eigenvalues --   -0.60475  -0.60306  -0.60055  -0.59659  -0.59059
 Alpha  occ. eigenvalues --   -0.58166  -0.57737  -0.56841  -0.55207  -0.54746
 Alpha  occ. eigenvalues --   -0.54262  -0.53488  -0.52832  -0.52092  -0.51788
 Alpha  occ. eigenvalues --   -0.51445  -0.51202  -0.51013  -0.50482  -0.50021
 Alpha  occ. eigenvalues --   -0.49943  -0.49539  -0.49303  -0.48848  -0.46623
 Alpha  occ. eigenvalues --   -0.46261  -0.45818  -0.45412  -0.45109  -0.44239
 Alpha  occ. eigenvalues --   -0.43817  -0.43592  -0.43186  -0.43086  -0.42362
 Alpha  occ. eigenvalues --   -0.42136  -0.41645  -0.41616  -0.41306  -0.40917
 Alpha  occ. eigenvalues --   -0.40860  -0.40412  -0.40325  -0.40194  -0.39979
 Alpha  occ. eigenvalues --   -0.39857  -0.39635  -0.39430  -0.39372  -0.39156
 Alpha  occ. eigenvalues --   -0.39132  -0.38888  -0.38620  -0.38528  -0.38170
 Alpha  occ. eigenvalues --   -0.38024  -0.37962  -0.37759  -0.37673  -0.37405
 Alpha  occ. eigenvalues --   -0.37155  -0.37061  -0.36806  -0.36586  -0.36193
 Alpha  occ. eigenvalues --   -0.36101  -0.35934  -0.35727  -0.35585  -0.35259
 Alpha  occ. eigenvalues --   -0.35053  -0.35006  -0.34861  -0.34722  -0.34618
 Alpha  occ. eigenvalues --   -0.34385  -0.34285  -0.34231  -0.34193  -0.33914
 Alpha  occ. eigenvalues --   -0.33668  -0.33639  -0.33410  -0.33392  -0.33078
 Alpha  occ. eigenvalues --   -0.32832  -0.32777  -0.32600  -0.32443  -0.32381
 Alpha  occ. eigenvalues --   -0.32162  -0.32024  -0.31754  -0.31677  -0.31446
 Alpha  occ. eigenvalues --   -0.31287  -0.31213  -0.31045  -0.30928  -0.30741
 Alpha  occ. eigenvalues --   -0.30441  -0.30407  -0.30320  -0.30147  -0.29885
 Alpha  occ. eigenvalues --   -0.29846  -0.29816  -0.29577  -0.29374  -0.29160
 Alpha  occ. eigenvalues --   -0.28939  -0.28865  -0.28511  -0.28283  -0.28134
 Alpha  occ. eigenvalues --   -0.28089  -0.27567  -0.26973  -0.26920  -0.26436
 Alpha  occ. eigenvalues --   -0.26257  -0.26214  -0.25586  -0.25547  -0.25382
 Alpha  occ. eigenvalues --   -0.24939  -0.24488  -0.24237  -0.23676  -0.23256
 Alpha  occ. eigenvalues --   -0.22625  -0.22443  -0.22309  -0.21619  -0.21080
 Alpha  occ. eigenvalues --   -0.20861  -0.20359  -0.18893  -0.18584  -0.17460
 Alpha  occ. eigenvalues --   -0.15891
 Alpha virt. eigenvalues --   -0.11658  -0.07301  -0.06275  -0.04953  -0.03320
 Alpha virt. eigenvalues --   -0.03236  -0.02701  -0.01490  -0.00518  -0.00096
 Alpha virt. eigenvalues --    0.01095   0.01671   0.01900   0.02510   0.02925

 Mulliken charges:
               1
     1  Mg   0.709898
     2  C    0.018733
     3  C   -0.057574
     4  C   -0.034519
     5  C   -0.058909
     6  N   -0.177592
     7  C   -0.137169
     8  C    0.100395
     9  C   -0.022334
    10  C    0.036005
    11  C    0.119417
    12  C    0.117931
    13  C    0.131432
    14  C    0.051896
    15  O   -0.183076
    16  O   -0.257998
    17  N   -0.332469
    18  C    0.156171
    19  C   -0.144651
    20  C    0.019355
    21  C    0.124088
    22  C    0.202605
    23  C   -0.083189
    24  O   -0.197398
    25  C    0.144414
    26  N   -0.210813
    27  C    0.003303
    28  C    0.042564
    29  C    0.034338
    30  C    0.010088
    31  C    0.091288
    32  C    0.058921
    33  C    0.075500
    34  N   -0.235628
    35  C    0.121819
    36  C   -0.222153
    37  C    0.152791
    38  C    0.038040
    39  C    0.182555
    40  C   -0.017742
    41  O   -0.147638
    42  C    0.025790
    43  C    0.136400
    44  O   -0.180740
    45  O   -0.284876
    46  C    0.203374
    47  C    0.321190
    48  C   -0.128750
    49  C   -0.156592
    50  C    0.162731
    51  C    0.085681
    52  C    0.121329
    53  C    0.074325
    54  C   -0.084316
    55  C    0.102017
    56  C    0.140045
    57  C    0.071747
    58  C    0.080333
    59  C   -0.061738
    60  C    0.106244
    61  C    0.145267
    62  C    0.026955
    63  C    0.109238
    64  C   -0.045365
    65  C    0.090943
    66  C    0.104483
    67  H   -0.055659
    68  H   -0.074732
    69  H   -0.061311
    70  H   -0.024856
    71  H   -0.024263
    72  H   -0.004465
    73  H   -0.014929
    74  H   -0.019134
    75  H   -0.020587
    76  H   -0.013056
    77  H   -0.001215
    78  H   -0.020597
    79  H   -0.001445
    80  H   -0.034046
    81  H    0.013599
    82  H    0.021056
    83  H    0.003885
    84  H    0.000629
    85  H   -0.009466
    86  H   -0.022718
    87  H   -0.007074
    88  H   -0.013189
    89  H   -0.012111
    90  H   -0.009798
    91  H   -0.032087
    92  H   -0.010990
    93  H   -0.011715
    94  H    0.010369
    95  H   -0.030324
    96  H    0.013025
    97  H    0.015630
    98  H    0.000880
    99  H    0.027532
   100  H    0.023072
   101  H    0.024909
   102  H    0.003056
   103  H    0.021242
   104  H   -0.031365
   105  H    0.005054
   106  H   -0.008653
   107  H   -0.028417
   108  H   -0.023515
   109  H   -0.046173
   110  H   -0.016714
   111  H   -0.023286
   112  H   -0.037714
   113  H   -0.032573
   114  H   -0.030578
   115  H   -0.024481
   116  H   -0.016628
   117  H   -0.025818
   118  H   -0.040294
   119  H   -0.018206
   120  H   -0.029988
   121  H   -0.037311
   122  H   -0.041284
   123  H   -0.047586
   124  H   -0.018582
   125  H   -0.016556
   126  H   -0.012249
   127  H   -0.023343
   128  H   -0.034900
   129  H   -0.032097
   130  H   -0.058990
   131  H   -0.031548
   132  H   -0.050768
   133  H   -0.048976
   134  H   -0.038184
   135  H   -0.013389
   136  H   -0.021539
   137  H   -0.024867
   138  H   -0.013890
   139  H   -0.023290
   140  H   -0.018832
 Sum of Mulliken charges =  -0.00000

 Dipole moment (field-independent basis, Debye):
    X=              0.4688    Y=             -2.9345    Z=              1.5037  Tot=              3.3305
 Quadrupole moment (field-independent basis, Debye-Ang):
   XX=           -388.3129   YY=           -398.9177   ZZ=           -430.8828
   XY=              7.6411   XZ=             -9.0053   YZ=            -33.9919

 Normal termination of Gaussian 16 at Sat Apr 30 02:46:54 2022.
