 Gaussian 16, Revision A.03,
 Gaussian 16:  ES64L-G16RevA.03 25-Dec-2016

 -----------------------------------
 #p cam-b3lyp/Def2SVP td=(nstates=5)
 -----------------------------------

 -----------------------------------------------------
 step_51_chromophore_8 TDDFT with cam-b3lyp functional
 -----------------------------------------------------
 Symbolic Z-matrix:
 Charge =  0 Multiplicity = 1

                         Standard orientation:
 ---------------------------------------------------------------------
 Center     Atomic      Atomic             Coordinates (Angstroms)
 Number     Number       Type             X           Y           Z
 ---------------------------------------------------------------------
      1         12           0       -4.639684   -0.889815    0.047210
      2          6           0       -3.605979    2.318413    0.988858
      3          6           0       -4.053560    0.021459   -3.197283
      4          6           0       -5.082128   -4.135983   -0.715713
      5          6           0       -4.459181   -1.828697    3.510488
      6          7           0       -3.614692    0.912758   -0.914861
      7          6           0       -3.443611    2.128677   -0.354955
      8          6           0       -2.937809    3.123647   -1.434772
      9          6           0       -3.338979    2.436957   -2.730530
     10          6           0       -3.656285    0.963204   -2.264874
     11          6           0       -4.477173    3.077728   -3.581092
     12          6           0       -1.336445    3.409409   -1.405761
     13          6           0       -0.982944    4.818802   -1.375758
     14          6           0        0.491113    5.211547   -1.456904
     15          8           0        0.974739    5.801060   -2.410692
     16          8           0        1.167735    4.859627   -0.338552
     17          7           0       -4.776323   -1.835357   -1.694139
     18          6           0       -4.480844   -1.328807   -2.951148
     19          6           0       -4.688674   -2.352987   -3.925015
     20          6           0       -5.224037   -3.463264   -3.291365
     21          6           0       -5.035076   -3.163933   -1.790485
     22          6           0       -4.383843   -2.158610   -5.396997
     23          6           0       -5.826193   -4.709500   -3.987410
     24          8           0       -5.800838   -4.749592   -5.231183
     25          6           0       -6.359733   -5.917781   -3.284521
     26          7           0       -4.736803   -2.744913    1.218014
     27          6           0       -5.028385   -3.980289    0.660750
     28          6           0       -5.129175   -5.074539    1.704872
     29          6           0       -5.064282   -4.269245    3.066444
     30          6           0       -4.763696   -2.826250    2.565910
     31          6           0       -6.471363   -5.963562    1.570391
     32          6           0       -3.947087   -4.718875    4.041013
     33          6           0       -4.327153   -5.145452    5.510837
     34          7           0       -4.042491   -0.007197    1.910737
     35          6           0       -4.068180   -0.466912    3.209083
     36          6           0       -3.662566    0.621008    4.079351
     37          6           0       -3.602458    1.783735    3.348325
     38          6           0       -3.780252    1.332138    1.998533
     39          6           0       -3.408559    0.402892    5.523941
     40          6           0       -3.459025    3.231808    3.304971
     41          8           0       -3.229416    4.080894    4.182595
     42          6           0       -3.477959    3.693705    1.756549
     43          6           0       -4.683278    4.559293    1.338830
     44          8           0       -5.799623    4.110101    1.118419
     45          8           0       -4.222307    5.822042    1.033849
     46          6           0       -5.221452    6.818729    0.540713
     47          6           0        2.608562    4.993530   -0.427843
     48          6           0        3.213388    3.662397    0.003203
     49          6           0        4.408460    3.192915   -0.216075
     50          6           0        5.601051    3.833756   -0.924381
     51          6           0        4.662413    1.721236    0.219851
     52          6           0        3.938016    0.694748   -0.650232
     53          6           0        4.723552   -0.655073   -0.585169
     54          6           0        5.637935   -0.910726   -1.851848
     55          6           0        4.726056   -1.687672   -2.844725
     56          6           0        6.946375   -1.701837   -1.410529
     57          6           0        8.037958   -0.605202   -1.068912
     58          6           0        8.514338   -0.681224    0.435792
     59          6           0        9.863644   -1.487311    0.629542
     60          6           0        9.608653   -2.686347    1.527469
     61          6           0       10.991745   -0.562764    1.257000
     62          6           0       12.204318   -0.788758    0.400817
     63          6           0       13.098084   -1.946394    0.789510
     64          6           0       14.582859   -1.786250    0.473255
     65          6           0       15.568221   -2.469455    1.441211
     66          6           0       14.842737   -2.104033   -0.977071
     67          1           0       -3.887883    0.319883   -4.234247
     68          1           0       -5.230284   -5.176835   -1.011119
     69          1           0       -4.552661   -2.121616    4.557618
     70          1           0       -3.558697    3.995227   -1.229444
     71          1           0       -2.494212    2.429283   -3.419855
     72          1           0       -4.201968    3.295215   -4.613722
     73          1           0       -4.924436    3.906804   -3.033182
     74          1           0       -5.369550    2.470350   -3.732037
     75          1           0       -0.778581    3.077552   -2.281169
     76          1           0       -0.800138    2.939545   -0.580759
     77          1           0       -1.346836    5.236836   -0.437263
     78          1           0       -1.517612    5.293762   -2.198240
     79          1           0       -3.686681   -2.938803   -5.701847
     80          1           0       -3.834497   -1.244960   -5.621360
     81          1           0       -5.288570   -2.207605   -6.002530
     82          1           0       -5.565706   -6.662937   -3.244140
     83          1           0       -7.121031   -6.262109   -3.985772
     84          1           0       -6.765283   -5.725225   -2.291531
     85          1           0       -4.266253   -5.737734    1.657294
     86          1           0       -6.066522   -4.410326    3.470805
     87          1           0       -6.401544   -7.010654    1.277179
     88          1           0       -7.134781   -5.600766    0.785855
     89          1           0       -7.120452   -5.917500    2.445356
     90          1           0       -3.146139   -3.980203    4.033100
     91          1           0       -3.504538   -5.608276    3.591999
     92          1           0       -3.858866   -6.116621    5.674126
     93          1           0       -5.400172   -5.336472    5.491441
     94          1           0       -3.992072   -4.441631    6.272299
     95          1           0       -3.817241   -0.534004    5.903079
     96          1           0       -3.941028    1.166821    6.091158
     97          1           0       -2.322042    0.341788    5.587263
     98          1           0       -2.573720    4.207646    1.431818
     99          1           0       -4.637647    7.389730   -0.181596
    100          1           0       -5.549303    7.408509    1.395743
    101          1           0       -6.144229    6.424009    0.115134
    102          1           0        2.930063    5.730766    0.306618
    103          1           0        2.967141    5.226501   -1.431320
    104          1           0        2.506576    2.933000    0.398725
    105          1           0        6.214177    3.104094   -1.453019
    106          1           0        6.257234    4.348486   -0.223149
    107          1           0        5.245533    4.703039   -1.477741
    108          1           0        4.402803    1.736574    1.277890
    109          1           0        5.735071    1.537184    0.288428
    110          1           0        3.973747    1.041480   -1.682901
    111          1           0        2.976949    0.486961   -0.179802
    112          1           0        3.934819   -1.401692   -0.488940
    113          1           0        5.316063   -0.689169    0.328865
    114          1           0        5.896673    0.018660   -2.357602
    115          1           0        3.673178   -1.422984   -2.743531
    116          1           0        4.791593   -2.765526   -2.699782
    117          1           0        4.891347   -1.448166   -3.895634
    118          1           0        7.228094   -2.328208   -2.257195
    119          1           0        6.709067   -2.419647   -0.625824
    120          1           0        7.907877    0.461760   -1.252242
    121          1           0        8.902254   -0.755594   -1.716058
    122          1           0        7.757493   -1.031367    1.138321
    123          1           0        8.520942    0.358755    0.759168
    124          1           0       10.245852   -1.895965   -0.305705
    125          1           0       10.463641   -3.362285    1.504481
    126          1           0        8.637799   -3.105213    1.264187
    127          1           0        9.521296   -2.307171    2.545262
    128          1           0       11.248251   -0.873222    2.269090
    129          1           0       10.825065    0.513556    1.225031
    130          1           0       12.742025    0.148949    0.543042
    131          1           0       12.089320   -0.755273   -0.681747
    132          1           0       12.627646   -2.754113    0.229028
    133          1           0       12.909800   -2.385776    1.768656
    134          1           0       14.875232   -0.747946    0.631155
    135          1           0       15.789151   -1.830601    2.296021
    136          1           0       16.512349   -2.790595    1.000187
    137          1           0       15.108306   -3.371580    1.845669
    138          1           0       14.195335   -1.595823   -1.693034
    139          1           0       14.711918   -3.172609   -1.143917
    140          1           0       15.892839   -1.844244   -1.109262
 ---------------------------------------------------------------------

 SCF Done:  E(RCAM-B3LYP) =  -3007.15573760     A.U. after   17 cycles

 Excitation energies and oscillator strengths:

 Excited State   1:      Singlet-A      1.6898 eV  733.70 nm  f=0.3804  <S**2>=0.000
     245 -> 248        0.17224
     246 -> 247        0.68622
     245 <- 248        0.10387
 This state for optimization and/or second-order correction.
 Total Energy, E(TD-HF/TD-DFT) =  -3007.09363713
 Copying the excited state density for this state as the 1-particle RhoCI density.

 Excited State   2:      Singlet-A      2.2555 eV  549.69 nm  f=0.1070  <S**2>=0.000
     245 -> 247        0.63388
     246 -> 248       -0.29484

 Excited State   3:      Singlet-A      3.4367 eV  360.77 nm  f=0.2898  <S**2>=0.000
     241 -> 247       -0.16895
     241 -> 249       -0.13312
     242 -> 247        0.34055
     245 -> 247        0.20693
     246 -> 248        0.50798

 Excited State   4:      Singlet-A      3.4524 eV  359.12 nm  f=0.0039  <S**2>=0.000
     240 -> 248       -0.10266
     240 -> 251       -0.10665
     241 -> 247        0.13823
     241 -> 249        0.11205
     243 -> 247        0.15733
     244 -> 247        0.59389

 Excited State   5:      Singlet-A      3.5223 eV  351.99 nm  f=0.1990  <S**2>=0.000
     241 -> 247        0.43245
     241 -> 249        0.28045
     241 -> 250       -0.17840
     242 -> 247       -0.13269
     244 -> 247       -0.12198
     245 -> 247        0.15966
     246 -> 248        0.31794

 The electronic state is 1-A.
 Alpha  occ. eigenvalues --  -46.89496 -19.25863 -19.25571 -19.20363 -19.19563
 Alpha  occ. eigenvalues --  -19.19180 -19.18654 -14.42099 -14.41982 -14.40454
 Alpha  occ. eigenvalues --  -14.39531 -10.40032 -10.39277 -10.36030 -10.35436
 Alpha  occ. eigenvalues --  -10.32451 -10.31944 -10.31814 -10.31378 -10.30979
 Alpha  occ. eigenvalues --  -10.30871 -10.30680 -10.30295 -10.29878 -10.29323
 Alpha  occ. eigenvalues --  -10.29124 -10.28963 -10.28823 -10.28129 -10.27915
 Alpha  occ. eigenvalues --  -10.27903 -10.27855 -10.27800 -10.27442 -10.27409
 Alpha  occ. eigenvalues --  -10.27360 -10.27222 -10.27097 -10.27037 -10.26658
 Alpha  occ. eigenvalues --  -10.26582 -10.26456 -10.26188 -10.26140 -10.26042
 Alpha  occ. eigenvalues --  -10.26028 -10.26025 -10.25881 -10.25818 -10.25650
 Alpha  occ. eigenvalues --  -10.25461 -10.25455 -10.25440 -10.25233 -10.25225
 Alpha  occ. eigenvalues --  -10.24959 -10.24710 -10.24636 -10.24602 -10.24458
 Alpha  occ. eigenvalues --  -10.24422 -10.24213 -10.24178 -10.24166 -10.24142
 Alpha  occ. eigenvalues --  -10.23911  -3.17986  -1.92858  -1.92438  -1.92300
 Alpha  occ. eigenvalues --   -1.17245  -1.15908  -1.08945  -1.08739  -1.08088
 Alpha  occ. eigenvalues --   -1.08086  -1.04413  -1.03640  -1.03293  -1.02554
 Alpha  occ. eigenvalues --   -0.91646  -0.90495  -0.90076  -0.89888  -0.88838
 Alpha  occ. eigenvalues --   -0.88302  -0.88223  -0.87733  -0.87319  -0.86840
 Alpha  occ. eigenvalues --   -0.86279  -0.85845  -0.84144  -0.83430  -0.83238
 Alpha  occ. eigenvalues --   -0.82642  -0.82163  -0.81209  -0.80912  -0.80793
 Alpha  occ. eigenvalues --   -0.79818  -0.78100  -0.77389  -0.77113  -0.76261
 Alpha  occ. eigenvalues --   -0.75778  -0.75652  -0.75356  -0.74950  -0.74266
 Alpha  occ. eigenvalues --   -0.73195  -0.72718  -0.71749  -0.70011  -0.69315
 Alpha  occ. eigenvalues --   -0.68866  -0.68001  -0.67365  -0.66435  -0.65875
 Alpha  occ. eigenvalues --   -0.65641  -0.65391  -0.65053  -0.64442  -0.63985
 Alpha  occ. eigenvalues --   -0.63838  -0.63480  -0.63234  -0.62591  -0.60245
 Alpha  occ. eigenvalues --   -0.59884  -0.59308  -0.58879  -0.58457  -0.57863
 Alpha  occ. eigenvalues --   -0.57239  -0.56975  -0.56429  -0.56314  -0.55614
 Alpha  occ. eigenvalues --   -0.55300  -0.54702  -0.54559  -0.54138  -0.53917
 Alpha  occ. eigenvalues --   -0.53536  -0.53372  -0.53129  -0.52761  -0.52658
 Alpha  occ. eigenvalues --   -0.52606  -0.52054  -0.52017  -0.51939  -0.51895
 Alpha  occ. eigenvalues --   -0.51808  -0.51623  -0.50982  -0.50884  -0.50585
 Alpha  occ. eigenvalues --   -0.50364  -0.50243  -0.50012  -0.49912  -0.49816
 Alpha  occ. eigenvalues --   -0.49453  -0.49356  -0.49158  -0.48892  -0.48668
 Alpha  occ. eigenvalues --   -0.48528  -0.48128  -0.48114  -0.47854  -0.47508
 Alpha  occ. eigenvalues --   -0.47028  -0.46975  -0.46777  -0.46596  -0.46536
 Alpha  occ. eigenvalues --   -0.46367  -0.46228  -0.46080  -0.45986  -0.45817
 Alpha  occ. eigenvalues --   -0.45609  -0.45375  -0.45121  -0.45054  -0.44770
 Alpha  occ. eigenvalues --   -0.44603  -0.44515  -0.44323  -0.43963  -0.43884
 Alpha  occ. eigenvalues --   -0.43839  -0.43684  -0.43589  -0.43157  -0.43095
 Alpha  occ. eigenvalues --   -0.43081  -0.42806  -0.42402  -0.42304  -0.42207
 Alpha  occ. eigenvalues --   -0.41961  -0.41749  -0.41549  -0.41458  -0.41369
 Alpha  occ. eigenvalues --   -0.41158  -0.41006  -0.40880  -0.40518  -0.40314
 Alpha  occ. eigenvalues --   -0.40104  -0.39850  -0.39531  -0.39201  -0.39163
 Alpha  occ. eigenvalues --   -0.38982  -0.38385  -0.38157  -0.37708  -0.37328
 Alpha  occ. eigenvalues --   -0.37296  -0.37114  -0.36896  -0.36398  -0.36325
 Alpha  occ. eigenvalues --   -0.35577  -0.35082  -0.34750  -0.34731  -0.34280
 Alpha  occ. eigenvalues --   -0.33785  -0.32797  -0.32680  -0.31780  -0.31359
 Alpha  occ. eigenvalues --   -0.31021  -0.30275  -0.30133  -0.30120  -0.24249
 Alpha  occ. eigenvalues --   -0.21117
 Alpha virt. eigenvalues --   -0.08748  -0.01948   0.00101   0.01850   0.01926
 Alpha virt. eigenvalues --    0.04326   0.04845   0.05859   0.06993   0.07015
 Alpha virt. eigenvalues --    0.07840   0.07961   0.08460   0.08737   0.09035

 Mulliken charges:
               1
     1  Mg   0.840386
     2  C   -0.015969
     3  C   -0.070132
     4  C   -0.061205
     5  C   -0.070188
     6  N   -0.245335
     7  C   -0.090621
     8  C    0.047546
     9  C   -0.076356
    10  C    0.055711
    11  C    0.058639
    12  C    0.066867
    13  C    0.063945
    14  C    0.136291
    15  O   -0.225788
    16  O   -0.321758
    17  N   -0.422543
    18  C    0.162132
    19  C   -0.152735
    20  C   -0.047576
    21  C    0.157496
    22  C    0.147987
    23  C   -0.006983
    24  O   -0.236163
    25  C    0.063629
    26  N   -0.284231
    27  C    0.026975
    28  C   -0.012150
    29  C   -0.017575
    30  C    0.032443
    31  C    0.033948
    32  C   -0.002734
    33  C    0.016715
    34  N   -0.320802
    35  C    0.126338
    36  C   -0.221710
    37  C    0.070789
    38  C    0.076606
    39  C    0.131639
    40  C    0.083438
    41  O   -0.186117
    42  C   -0.038933
    43  C    0.223378
    44  O   -0.217720
    45  O   -0.349695
    46  C    0.165820
    47  C    0.287995
    48  C   -0.148049
    49  C   -0.182362
    50  C    0.104301
    51  C    0.032706
    52  C    0.063236
    53  C    0.023319
    54  C   -0.137985
    55  C    0.044460
    56  C    0.085451
    57  C    0.016980
    58  C    0.028688
    59  C   -0.116846
    60  C    0.053527
    61  C    0.088290
    62  C   -0.024728
    63  C    0.049360
    64  C   -0.110065
    65  C    0.034138
    66  C    0.047966
    67  H   -0.019630
    68  H   -0.039484
    69  H   -0.026974
    70  H    0.007513
    71  H    0.011551
    72  H    0.020419
    73  H    0.009889
    74  H    0.008724
    75  H    0.009072
    76  H    0.017802
    77  H    0.026381
    78  H    0.012358
    79  H    0.026507
    80  H   -0.007243
    81  H    0.041255
    82  H    0.049867
    83  H    0.038196
    84  H    0.026840
    85  H    0.025051
    86  H    0.010295
    87  H    0.017890
    88  H    0.010877
    89  H    0.012748
    90  H    0.022156
    91  H   -0.002736
    92  H    0.013230
    93  H    0.010087
    94  H    0.031449
    95  H   -0.005017
    96  H    0.038073
    97  H    0.041367
    98  H    0.042032
    99  H    0.048999
   100  H    0.045342
   101  H    0.050225
   102  H    0.030917
   103  H    0.051968
   104  H    0.002152
   105  H    0.026456
   106  H    0.017369
   107  H   -0.003953
   108  H    0.007487
   109  H   -0.019532
   110  H    0.010324
   111  H    0.005835
   112  H   -0.007466
   113  H   -0.006905
   114  H   -0.001303
   115  H   -0.000306
   116  H    0.007107
   117  H   -0.000403
   118  H   -0.008876
   119  H    0.007123
   120  H   -0.003695
   121  H   -0.008236
   122  H   -0.013802
   123  H   -0.018473
   124  H    0.009748
   125  H    0.006187
   126  H    0.010419
   127  H   -0.000002
   128  H   -0.005161
   129  H   -0.001530
   130  H   -0.028326
   131  H   -0.004754
   132  H   -0.023066
   133  H   -0.018986
   134  H   -0.006387
   135  H    0.011036
   136  H    0.003929
   137  H   -0.001432
   138  H    0.009500
   139  H    0.000691
   140  H    0.005149
 Sum of Mulliken charges =  -0.00000

 Dipole moment (field-independent basis, Debye):
    X=              0.1670    Y=             -3.2332    Z=              1.1851  Tot=              3.4476
 Quadrupole moment (field-independent basis, Debye-Ang):
   XX=           -385.5311   YY=           -394.8731   ZZ=           -430.1728
   XY=              9.3038   XZ=             -7.2086   YZ=            -34.3755

 Normal termination of Gaussian 16 at Sat Apr 30 01:33:33 2022.
