 Gaussian 16, Revision A.03,
 Gaussian 16:  ES64L-G16RevA.03 25-Dec-2016

 ---------------------------------
 #p PBE1PBE/Def2SVP td=(nstates=5)
 ---------------------------------

 ---------------------------------------------------
 step_51_chromophore_8 TDDFT with PBE1PBE functional
 ---------------------------------------------------
 Symbolic Z-matrix:
 Charge =  0 Multiplicity = 1

                         Standard orientation:
 ---------------------------------------------------------------------
 Center     Atomic      Atomic             Coordinates (Angstroms)
 Number     Number       Type             X           Y           Z
 ---------------------------------------------------------------------
      1         12           0       -4.639684   -0.889815    0.047210
      2          6           0       -3.605979    2.318413    0.988858
      3          6           0       -4.053560    0.021459   -3.197283
      4          6           0       -5.082128   -4.135983   -0.715713
      5          6           0       -4.459181   -1.828697    3.510488
      6          7           0       -3.614692    0.912758   -0.914861
      7          6           0       -3.443611    2.128677   -0.354955
      8          6           0       -2.937809    3.123647   -1.434772
      9          6           0       -3.338979    2.436957   -2.730530
     10          6           0       -3.656285    0.963204   -2.264874
     11          6           0       -4.477173    3.077728   -3.581092
     12          6           0       -1.336445    3.409409   -1.405761
     13          6           0       -0.982944    4.818802   -1.375758
     14          6           0        0.491113    5.211547   -1.456904
     15          8           0        0.974739    5.801060   -2.410692
     16          8           0        1.167735    4.859627   -0.338552
     17          7           0       -4.776323   -1.835357   -1.694139
     18          6           0       -4.480844   -1.328807   -2.951148
     19          6           0       -4.688674   -2.352987   -3.925015
     20          6           0       -5.224037   -3.463264   -3.291365
     21          6           0       -5.035076   -3.163933   -1.790485
     22          6           0       -4.383843   -2.158610   -5.396997
     23          6           0       -5.826193   -4.709500   -3.987410
     24          8           0       -5.800838   -4.749592   -5.231183
     25          6           0       -6.359733   -5.917781   -3.284521
     26          7           0       -4.736803   -2.744913    1.218014
     27          6           0       -5.028385   -3.980289    0.660750
     28          6           0       -5.129175   -5.074539    1.704872
     29          6           0       -5.064282   -4.269245    3.066444
     30          6           0       -4.763696   -2.826250    2.565910
     31          6           0       -6.471363   -5.963562    1.570391
     32          6           0       -3.947087   -4.718875    4.041013
     33          6           0       -4.327153   -5.145452    5.510837
     34          7           0       -4.042491   -0.007197    1.910737
     35          6           0       -4.068180   -0.466912    3.209083
     36          6           0       -3.662566    0.621008    4.079351
     37          6           0       -3.602458    1.783735    3.348325
     38          6           0       -3.780252    1.332138    1.998533
     39          6           0       -3.408559    0.402892    5.523941
     40          6           0       -3.459025    3.231808    3.304971
     41          8           0       -3.229416    4.080894    4.182595
     42          6           0       -3.477959    3.693705    1.756549
     43          6           0       -4.683278    4.559293    1.338830
     44          8           0       -5.799623    4.110101    1.118419
     45          8           0       -4.222307    5.822042    1.033849
     46          6           0       -5.221452    6.818729    0.540713
     47          6           0        2.608562    4.993530   -0.427843
     48          6           0        3.213388    3.662397    0.003203
     49          6           0        4.408460    3.192915   -0.216075
     50          6           0        5.601051    3.833756   -0.924381
     51          6           0        4.662413    1.721236    0.219851
     52          6           0        3.938016    0.694748   -0.650232
     53          6           0        4.723552   -0.655073   -0.585169
     54          6           0        5.637935   -0.910726   -1.851848
     55          6           0        4.726056   -1.687672   -2.844725
     56          6           0        6.946375   -1.701837   -1.410529
     57          6           0        8.037958   -0.605202   -1.068912
     58          6           0        8.514338   -0.681224    0.435792
     59          6           0        9.863644   -1.487311    0.629542
     60          6           0        9.608653   -2.686347    1.527469
     61          6           0       10.991745   -0.562764    1.257000
     62          6           0       12.204318   -0.788758    0.400817
     63          6           0       13.098084   -1.946394    0.789510
     64          6           0       14.582859   -1.786250    0.473255
     65          6           0       15.568221   -2.469455    1.441211
     66          6           0       14.842737   -2.104033   -0.977071
     67          1           0       -3.887883    0.319883   -4.234247
     68          1           0       -5.230284   -5.176835   -1.011119
     69          1           0       -4.552661   -2.121616    4.557618
     70          1           0       -3.558697    3.995227   -1.229444
     71          1           0       -2.494212    2.429283   -3.419855
     72          1           0       -4.201968    3.295215   -4.613722
     73          1           0       -4.924436    3.906804   -3.033182
     74          1           0       -5.369550    2.470350   -3.732037
     75          1           0       -0.778581    3.077552   -2.281169
     76          1           0       -0.800138    2.939545   -0.580759
     77          1           0       -1.346836    5.236836   -0.437263
     78          1           0       -1.517612    5.293762   -2.198240
     79          1           0       -3.686681   -2.938803   -5.701847
     80          1           0       -3.834497   -1.244960   -5.621360
     81          1           0       -5.288570   -2.207605   -6.002530
     82          1           0       -5.565706   -6.662937   -3.244140
     83          1           0       -7.121031   -6.262109   -3.985772
     84          1           0       -6.765283   -5.725225   -2.291531
     85          1           0       -4.266253   -5.737734    1.657294
     86          1           0       -6.066522   -4.410326    3.470805
     87          1           0       -6.401544   -7.010654    1.277179
     88          1           0       -7.134781   -5.600766    0.785855
     89          1           0       -7.120452   -5.917500    2.445356
     90          1           0       -3.146139   -3.980203    4.033100
     91          1           0       -3.504538   -5.608276    3.591999
     92          1           0       -3.858866   -6.116621    5.674126
     93          1           0       -5.400172   -5.336472    5.491441
     94          1           0       -3.992072   -4.441631    6.272299
     95          1           0       -3.817241   -0.534004    5.903079
     96          1           0       -3.941028    1.166821    6.091158
     97          1           0       -2.322042    0.341788    5.587263
     98          1           0       -2.573720    4.207646    1.431818
     99          1           0       -4.637647    7.389730   -0.181596
    100          1           0       -5.549303    7.408509    1.395743
    101          1           0       -6.144229    6.424009    0.115134
    102          1           0        2.930063    5.730766    0.306618
    103          1           0        2.967141    5.226501   -1.431320
    104          1           0        2.506576    2.933000    0.398725
    105          1           0        6.214177    3.104094   -1.453019
    106          1           0        6.257234    4.348486   -0.223149
    107          1           0        5.245533    4.703039   -1.477741
    108          1           0        4.402803    1.736574    1.277890
    109          1           0        5.735071    1.537184    0.288428
    110          1           0        3.973747    1.041480   -1.682901
    111          1           0        2.976949    0.486961   -0.179802
    112          1           0        3.934819   -1.401692   -0.488940
    113          1           0        5.316063   -0.689169    0.328865
    114          1           0        5.896673    0.018660   -2.357602
    115          1           0        3.673178   -1.422984   -2.743531
    116          1           0        4.791593   -2.765526   -2.699782
    117          1           0        4.891347   -1.448166   -3.895634
    118          1           0        7.228094   -2.328208   -2.257195
    119          1           0        6.709067   -2.419647   -0.625824
    120          1           0        7.907877    0.461760   -1.252242
    121          1           0        8.902254   -0.755594   -1.716058
    122          1           0        7.757493   -1.031367    1.138321
    123          1           0        8.520942    0.358755    0.759168
    124          1           0       10.245852   -1.895965   -0.305705
    125          1           0       10.463641   -3.362285    1.504481
    126          1           0        8.637799   -3.105213    1.264187
    127          1           0        9.521296   -2.307171    2.545262
    128          1           0       11.248251   -0.873222    2.269090
    129          1           0       10.825065    0.513556    1.225031
    130          1           0       12.742025    0.148949    0.543042
    131          1           0       12.089320   -0.755273   -0.681747
    132          1           0       12.627646   -2.754113    0.229028
    133          1           0       12.909800   -2.385776    1.768656
    134          1           0       14.875232   -0.747946    0.631155
    135          1           0       15.789151   -1.830601    2.296021
    136          1           0       16.512349   -2.790595    1.000187
    137          1           0       15.108306   -3.371580    1.845669
    138          1           0       14.195335   -1.595823   -1.693034
    139          1           0       14.711918   -3.172609   -1.143917
    140          1           0       15.892839   -1.844244   -1.109262
 ---------------------------------------------------------------------

 SCF Done:  E(RPBE1PBE) =  -3005.34414073     A.U. after   15 cycles

 Excitation energies and oscillator strengths:

 Excited State   1:      Singlet-A      1.8513 eV  669.73 nm  f=0.3679  <S**2>=0.000
     245 -> 248        0.16338
     246 -> 247        0.69353
     246 <- 247       -0.11066
 This state for optimization and/or second-order correction.
 Total Energy, E(TD-HF/TD-DFT) =  -3005.27610822
 Copying the excited state density for this state as the 1-particle RhoCI density.

 Excited State   2:      Singlet-A      2.2606 eV  548.45 nm  f=0.1079  <S**2>=0.000
     245 -> 247        0.64648
     246 -> 248       -0.26194

 Excited State   3:      Singlet-A      3.0036 eV  412.79 nm  f=0.0020  <S**2>=0.000
     242 -> 247       -0.11093
     243 -> 247        0.64929
     244 -> 247        0.13349

 Excited State   4:      Singlet-A      3.0386 eV  408.03 nm  f=0.0007  <S**2>=0.000
     241 -> 247        0.23283
     241 -> 249       -0.11216
     242 -> 247        0.60419
     242 -> 249       -0.14943
     243 -> 247        0.11053
     246 -> 248       -0.11179

 Excited State   5:      Singlet-A      3.2046 eV  386.89 nm  f=0.1283  <S**2>=0.000
     240 -> 247       -0.11644
     241 -> 247        0.45082
     242 -> 247       -0.10847
     245 -> 247        0.15102
     246 -> 248        0.45605
     246 -> 249        0.10943

 The electronic state is 1-A.
 Alpha  occ. eigenvalues --  -46.92894 -19.26534 -19.26259 -19.20577 -19.19868
 Alpha  occ. eigenvalues --  -19.19446 -19.18846 -14.41684 -14.41425 -14.40046
 Alpha  occ. eigenvalues --  -14.39237 -10.37042 -10.36320 -10.33212 -10.32558
 Alpha  occ. eigenvalues --  -10.29673 -10.29570 -10.29220 -10.29040 -10.28792
 Alpha  occ. eigenvalues --  -10.28557 -10.28454 -10.27944 -10.27713 -10.27133
 Alpha  occ. eigenvalues --  -10.26979 -10.26633 -10.26617 -10.26018 -10.25709
 Alpha  occ. eigenvalues --  -10.25664 -10.25639 -10.25372 -10.25151 -10.25046
 Alpha  occ. eigenvalues --  -10.24976 -10.24868 -10.24821 -10.24565 -10.24285
 Alpha  occ. eigenvalues --  -10.24101 -10.23863 -10.23724 -10.23695 -10.23668
 Alpha  occ. eigenvalues --  -10.23668 -10.23493 -10.23398 -10.23294 -10.23228
 Alpha  occ. eigenvalues --  -10.23152 -10.23048 -10.22867 -10.22846 -10.22763
 Alpha  occ. eigenvalues --  -10.22510 -10.22312 -10.22225 -10.22128 -10.22024
 Alpha  occ. eigenvalues --  -10.21801 -10.21695 -10.21594 -10.21553 -10.21497
 Alpha  occ. eigenvalues --  -10.21441  -3.14964  -1.87775  -1.87335  -1.87200
 Alpha  occ. eigenvalues --   -1.12082  -1.10661  -1.03630  -1.03498  -1.02965
 Alpha  occ. eigenvalues --   -1.02900  -0.99019  -0.98260  -0.97974  -0.97243
 Alpha  occ. eigenvalues --   -0.86004  -0.84656  -0.84170  -0.84029  -0.83145
 Alpha  occ. eigenvalues --   -0.82557  -0.82388  -0.82094  -0.81429  -0.81198
 Alpha  occ. eigenvalues --   -0.80566  -0.80110  -0.78293  -0.77676  -0.77522
 Alpha  occ. eigenvalues --   -0.76811  -0.76336  -0.75477  -0.75254  -0.75059
 Alpha  occ. eigenvalues --   -0.73961  -0.72390  -0.71702  -0.71364  -0.70571
 Alpha  occ. eigenvalues --   -0.69994  -0.69738  -0.69690  -0.69063  -0.68422
 Alpha  occ. eigenvalues --   -0.67622  -0.67049  -0.66186  -0.64284  -0.63731
 Alpha  occ. eigenvalues --   -0.63377  -0.62204  -0.61780  -0.60626  -0.60309
 Alpha  occ. eigenvalues --   -0.60082  -0.59612  -0.59576  -0.59039  -0.58334
 Alpha  occ. eigenvalues --   -0.58111  -0.57615  -0.57384  -0.57173  -0.54785
 Alpha  occ. eigenvalues --   -0.54303  -0.53917  -0.53453  -0.53063  -0.52370
 Alpha  occ. eigenvalues --   -0.51783  -0.51438  -0.50911  -0.50856  -0.50105
 Alpha  occ. eigenvalues --   -0.49897  -0.49246  -0.49052  -0.48689  -0.48509
 Alpha  occ. eigenvalues --   -0.48034  -0.47941  -0.47637  -0.47288  -0.47203
 Alpha  occ. eigenvalues --   -0.47053  -0.46637  -0.46558  -0.46444  -0.46360
 Alpha  occ. eigenvalues --   -0.46225  -0.46172  -0.45645  -0.45393  -0.45107
 Alpha  occ. eigenvalues --   -0.45013  -0.44755  -0.44642  -0.44456  -0.44308
 Alpha  occ. eigenvalues --   -0.44123  -0.43922  -0.43792  -0.43510  -0.43231
 Alpha  occ. eigenvalues --   -0.43123  -0.42788  -0.42698  -0.42457  -0.42186
 Alpha  occ. eigenvalues --   -0.41694  -0.41606  -0.41456  -0.41253  -0.41164
 Alpha  occ. eigenvalues --   -0.41106  -0.40916  -0.40706  -0.40608  -0.40430
 Alpha  occ. eigenvalues --   -0.40295  -0.40142  -0.39811  -0.39596  -0.39553
 Alpha  occ. eigenvalues --   -0.39346  -0.39315  -0.39108  -0.38739  -0.38687
 Alpha  occ. eigenvalues --   -0.38568  -0.38432  -0.38362  -0.37994  -0.37869
 Alpha  occ. eigenvalues --   -0.37794  -0.37660  -0.37337  -0.37053  -0.37020
 Alpha  occ. eigenvalues --   -0.36794  -0.36603  -0.36360  -0.36216  -0.36176
 Alpha  occ. eigenvalues --   -0.35987  -0.35774  -0.35759  -0.35332  -0.35221
 Alpha  occ. eigenvalues --   -0.35026  -0.34593  -0.34515  -0.34120  -0.33880
 Alpha  occ. eigenvalues --   -0.33754  -0.33160  -0.33149  -0.32517  -0.32245
 Alpha  occ. eigenvalues --   -0.32235  -0.31949  -0.31903  -0.31437  -0.31239
 Alpha  occ. eigenvalues --   -0.30429  -0.29948  -0.29685  -0.29636  -0.29370
 Alpha  occ. eigenvalues --   -0.28653  -0.28463  -0.27670  -0.27404  -0.26371
 Alpha  occ. eigenvalues --   -0.26084  -0.25757  -0.25354  -0.25351  -0.21178
 Alpha  occ. eigenvalues --   -0.18793
 Alpha virt. eigenvalues --   -0.11236  -0.05537  -0.04046  -0.02486  -0.00906
 Alpha virt. eigenvalues --   -0.00271   0.00370   0.01458   0.02570   0.02906
 Alpha virt. eigenvalues --    0.04183   0.04294   0.04732   0.05337   0.05786

 Mulliken charges:
               1
     1  Mg   0.982438
     2  C   -0.042038
     3  C   -0.062835
     4  C   -0.058521
     5  C   -0.066975
     6  N   -0.348789
     7  C   -0.007472
     8  C   -0.033027
     9  C   -0.151788
    10  C    0.094625
    11  C    0.004102
    12  C    0.020003
    13  C   -0.018883
    14  C    0.207799
    15  O   -0.260889
    16  O   -0.352506
    17  N   -0.542011
    18  C    0.187252
    19  C   -0.185367
    20  C   -0.088154
    21  C    0.185480
    22  C    0.091115
    23  C    0.038847
    24  O   -0.268041
    25  C   -0.012056
    26  N   -0.385247
    27  C    0.060876
    28  C   -0.087656
    29  C   -0.091658
    30  C    0.071230
    31  C   -0.021732
    32  C   -0.063482
    33  C   -0.056036
    34  N   -0.439958
    35  C    0.158635
    36  C   -0.255263
    37  C    0.023905
    38  C    0.131218
    39  C    0.080240
    40  C    0.183437
    41  O   -0.229903
    42  C   -0.146875
    43  C    0.310070
    44  O   -0.250644
    45  O   -0.380976
    46  C    0.111583
    47  C    0.247825
    48  C   -0.157553
    49  C   -0.226346
    50  C    0.038995
    51  C   -0.031027
    52  C   -0.004084
    53  C   -0.032406
    54  C   -0.223537
    55  C   -0.014287
    56  C    0.030836
    57  C   -0.046193
    58  C   -0.019671
    59  C   -0.200800
    60  C   -0.011085
    61  C    0.035305
    62  C   -0.092494
    63  C   -0.001323
    64  C   -0.206531
    65  C   -0.024593
    66  C   -0.013904
    67  H    0.011154
    68  H   -0.003057
    69  H    0.008480
    70  H    0.050364
    71  H    0.048400
    72  H    0.046659
    73  H    0.037184
    74  H    0.036458
    75  H    0.041269
    76  H    0.049800
    77  H    0.061240
    78  H    0.045924
    79  H    0.054481
    80  H    0.019907
    81  H    0.068073
    82  H    0.076694
    83  H    0.065230
    84  H    0.052662
    85  H    0.060680
    86  H    0.046836
    87  H    0.044982
    88  H    0.038930
    89  H    0.038990
    90  H    0.055378
    91  H    0.031333
    92  H    0.041578
    93  H    0.038290
    94  H    0.057487
    95  H    0.022766
    96  H    0.065341
    97  H    0.069918
    98  H    0.082762
    99  H    0.069745
   100  H    0.067429
   101  H    0.070538
   102  H    0.058854
   103  H    0.077070
   104  H    0.032175
   105  H    0.053332
   106  H    0.045997
   107  H    0.024357
   108  H    0.040570
   109  H    0.016433
   110  H    0.043622
   111  H    0.038394
   112  H    0.025543
   113  H    0.027737
   114  H    0.035721
   115  H    0.027820
   116  H    0.034745
   117  H    0.027803
   118  H    0.024493
   119  H    0.037731
   120  H    0.027080
   121  H    0.024740
   122  H    0.016916
   123  H    0.012881
   124  H    0.046285
   125  H    0.035299
   126  H    0.039626
   127  H    0.028482
   128  H    0.027258
   129  H    0.030091
   130  H    0.006013
   131  H    0.027721
   132  H    0.011057
   133  H    0.011739
   134  H    0.031840
   135  H    0.038492
   136  H    0.030712
   137  H    0.026454
   138  H    0.037338
   139  H    0.029182
   140  H    0.033290
 Sum of Mulliken charges =  -0.00000

 Dipole moment (field-independent basis, Debye):
    X=              0.2289    Y=             -3.3224    Z=              1.3400  Tot=              3.5897
 Quadrupole moment (field-independent basis, Debye-Ang):
   XX=           -382.8128   YY=           -391.3057   ZZ=           -426.1427
   XY=              9.8302   XZ=             -7.9605   YZ=            -35.8534

 Normal termination of Gaussian 16 at Sat Apr 30 02:06:03 2022.
