 Gaussian 16, Revision A.03,
 Gaussian 16:  ES64L-G16RevA.03 25-Dec-2016

 --------------------------------
 #p wB97XD/Def2SVP td=(nstates=5)
 --------------------------------

 --------------------------------------------------
 step_51_chromophore_8 TDDFT with wB97XD functional
 --------------------------------------------------
 Symbolic Z-matrix:
 Charge =  0 Multiplicity = 1

                         Standard orientation:
 ---------------------------------------------------------------------
 Center     Atomic      Atomic             Coordinates (Angstroms)
 Number     Number       Type             X           Y           Z
 ---------------------------------------------------------------------
      1         12           0       -4.639684   -0.889815    0.047210
      2          6           0       -3.605979    2.318413    0.988858
      3          6           0       -4.053560    0.021459   -3.197283
      4          6           0       -5.082128   -4.135983   -0.715713
      5          6           0       -4.459181   -1.828697    3.510488
      6          7           0       -3.614692    0.912758   -0.914861
      7          6           0       -3.443611    2.128677   -0.354955
      8          6           0       -2.937809    3.123647   -1.434772
      9          6           0       -3.338979    2.436957   -2.730530
     10          6           0       -3.656285    0.963204   -2.264874
     11          6           0       -4.477173    3.077728   -3.581092
     12          6           0       -1.336445    3.409409   -1.405761
     13          6           0       -0.982944    4.818802   -1.375758
     14          6           0        0.491113    5.211547   -1.456904
     15          8           0        0.974739    5.801060   -2.410692
     16          8           0        1.167735    4.859627   -0.338552
     17          7           0       -4.776323   -1.835357   -1.694139
     18          6           0       -4.480844   -1.328807   -2.951148
     19          6           0       -4.688674   -2.352987   -3.925015
     20          6           0       -5.224037   -3.463264   -3.291365
     21          6           0       -5.035076   -3.163933   -1.790485
     22          6           0       -4.383843   -2.158610   -5.396997
     23          6           0       -5.826193   -4.709500   -3.987410
     24          8           0       -5.800838   -4.749592   -5.231183
     25          6           0       -6.359733   -5.917781   -3.284521
     26          7           0       -4.736803   -2.744913    1.218014
     27          6           0       -5.028385   -3.980289    0.660750
     28          6           0       -5.129175   -5.074539    1.704872
     29          6           0       -5.064282   -4.269245    3.066444
     30          6           0       -4.763696   -2.826250    2.565910
     31          6           0       -6.471363   -5.963562    1.570391
     32          6           0       -3.947087   -4.718875    4.041013
     33          6           0       -4.327153   -5.145452    5.510837
     34          7           0       -4.042491   -0.007197    1.910737
     35          6           0       -4.068180   -0.466912    3.209083
     36          6           0       -3.662566    0.621008    4.079351
     37          6           0       -3.602458    1.783735    3.348325
     38          6           0       -3.780252    1.332138    1.998533
     39          6           0       -3.408559    0.402892    5.523941
     40          6           0       -3.459025    3.231808    3.304971
     41          8           0       -3.229416    4.080894    4.182595
     42          6           0       -3.477959    3.693705    1.756549
     43          6           0       -4.683278    4.559293    1.338830
     44          8           0       -5.799623    4.110101    1.118419
     45          8           0       -4.222307    5.822042    1.033849
     46          6           0       -5.221452    6.818729    0.540713
     47          6           0        2.608562    4.993530   -0.427843
     48          6           0        3.213388    3.662397    0.003203
     49          6           0        4.408460    3.192915   -0.216075
     50          6           0        5.601051    3.833756   -0.924381
     51          6           0        4.662413    1.721236    0.219851
     52          6           0        3.938016    0.694748   -0.650232
     53          6           0        4.723552   -0.655073   -0.585169
     54          6           0        5.637935   -0.910726   -1.851848
     55          6           0        4.726056   -1.687672   -2.844725
     56          6           0        6.946375   -1.701837   -1.410529
     57          6           0        8.037958   -0.605202   -1.068912
     58          6           0        8.514338   -0.681224    0.435792
     59          6           0        9.863644   -1.487311    0.629542
     60          6           0        9.608653   -2.686347    1.527469
     61          6           0       10.991745   -0.562764    1.257000
     62          6           0       12.204318   -0.788758    0.400817
     63          6           0       13.098084   -1.946394    0.789510
     64          6           0       14.582859   -1.786250    0.473255
     65          6           0       15.568221   -2.469455    1.441211
     66          6           0       14.842737   -2.104033   -0.977071
     67          1           0       -3.887883    0.319883   -4.234247
     68          1           0       -5.230284   -5.176835   -1.011119
     69          1           0       -4.552661   -2.121616    4.557618
     70          1           0       -3.558697    3.995227   -1.229444
     71          1           0       -2.494212    2.429283   -3.419855
     72          1           0       -4.201968    3.295215   -4.613722
     73          1           0       -4.924436    3.906804   -3.033182
     74          1           0       -5.369550    2.470350   -3.732037
     75          1           0       -0.778581    3.077552   -2.281169
     76          1           0       -0.800138    2.939545   -0.580759
     77          1           0       -1.346836    5.236836   -0.437263
     78          1           0       -1.517612    5.293762   -2.198240
     79          1           0       -3.686681   -2.938803   -5.701847
     80          1           0       -3.834497   -1.244960   -5.621360
     81          1           0       -5.288570   -2.207605   -6.002530
     82          1           0       -5.565706   -6.662937   -3.244140
     83          1           0       -7.121031   -6.262109   -3.985772
     84          1           0       -6.765283   -5.725225   -2.291531
     85          1           0       -4.266253   -5.737734    1.657294
     86          1           0       -6.066522   -4.410326    3.470805
     87          1           0       -6.401544   -7.010654    1.277179
     88          1           0       -7.134781   -5.600766    0.785855
     89          1           0       -7.120452   -5.917500    2.445356
     90          1           0       -3.146139   -3.980203    4.033100
     91          1           0       -3.504538   -5.608276    3.591999
     92          1           0       -3.858866   -6.116621    5.674126
     93          1           0       -5.400172   -5.336472    5.491441
     94          1           0       -3.992072   -4.441631    6.272299
     95          1           0       -3.817241   -0.534004    5.903079
     96          1           0       -3.941028    1.166821    6.091158
     97          1           0       -2.322042    0.341788    5.587263
     98          1           0       -2.573720    4.207646    1.431818
     99          1           0       -4.637647    7.389730   -0.181596
    100          1           0       -5.549303    7.408509    1.395743
    101          1           0       -6.144229    6.424009    0.115134
    102          1           0        2.930063    5.730766    0.306618
    103          1           0        2.967141    5.226501   -1.431320
    104          1           0        2.506576    2.933000    0.398725
    105          1           0        6.214177    3.104094   -1.453019
    106          1           0        6.257234    4.348486   -0.223149
    107          1           0        5.245533    4.703039   -1.477741
    108          1           0        4.402803    1.736574    1.277890
    109          1           0        5.735071    1.537184    0.288428
    110          1           0        3.973747    1.041480   -1.682901
    111          1           0        2.976949    0.486961   -0.179802
    112          1           0        3.934819   -1.401692   -0.488940
    113          1           0        5.316063   -0.689169    0.328865
    114          1           0        5.896673    0.018660   -2.357602
    115          1           0        3.673178   -1.422984   -2.743531
    116          1           0        4.791593   -2.765526   -2.699782
    117          1           0        4.891347   -1.448166   -3.895634
    118          1           0        7.228094   -2.328208   -2.257195
    119          1           0        6.709067   -2.419647   -0.625824
    120          1           0        7.907877    0.461760   -1.252242
    121          1           0        8.902254   -0.755594   -1.716058
    122          1           0        7.757493   -1.031367    1.138321
    123          1           0        8.520942    0.358755    0.759168
    124          1           0       10.245852   -1.895965   -0.305705
    125          1           0       10.463641   -3.362285    1.504481
    126          1           0        8.637799   -3.105213    1.264187
    127          1           0        9.521296   -2.307171    2.545262
    128          1           0       11.248251   -0.873222    2.269090
    129          1           0       10.825065    0.513556    1.225031
    130          1           0       12.742025    0.148949    0.543042
    131          1           0       12.089320   -0.755273   -0.681747
    132          1           0       12.627646   -2.754113    0.229028
    133          1           0       12.909800   -2.385776    1.768656
    134          1           0       14.875232   -0.747946    0.631155
    135          1           0       15.789151   -1.830601    2.296021
    136          1           0       16.512349   -2.790595    1.000187
    137          1           0       15.108306   -3.371580    1.845669
    138          1           0       14.195335   -1.595823   -1.693034
    139          1           0       14.711918   -3.172609   -1.143917
    140          1           0       15.892839   -1.844244   -1.109262
 ---------------------------------------------------------------------

 SCF Done:  E(RwB97XD) =  -3007.85404509     A.U. after   17 cycles

 Excitation energies and oscillator strengths:

 Excited State   1:      Singlet-A      1.6309 eV  760.22 nm  f=0.3790  <S**2>=0.000
     245 -> 248       -0.17880
     246 -> 247        0.68389
     245 <- 248       -0.11376
 This state for optimization and/or second-order correction.
 Total Energy, E(TD-HF/TD-DFT) =  -3007.79411038
 Copying the excited state density for this state as the 1-particle RhoCI density.

 Excited State   2:      Singlet-A      2.2011 eV  563.27 nm  f=0.1038  <S**2>=0.000
     245 -> 247        0.63211
     246 -> 248        0.29827

 Excited State   3:      Singlet-A      3.4593 eV  358.41 nm  f=0.2506  <S**2>=0.000
     242 -> 247       -0.32245
     243 -> 247       -0.25778
     243 -> 249        0.12598
     245 -> 247       -0.18605
     246 -> 248        0.46636

 Excited State   4:      Singlet-A      3.4750 eV  356.79 nm  f=0.0627  <S**2>=0.000
     240 -> 250        0.10974
     241 -> 247        0.13019
     241 -> 249        0.13753
     242 -> 247       -0.16732
     242 -> 249       -0.12514
     243 -> 247        0.55740
     246 -> 248        0.18810

 Excited State   5:      Singlet-A      3.5612 eV  348.15 nm  f=0.2088  <S**2>=0.000
     241 -> 247        0.43135
     241 -> 249        0.31265
     241 -> 250       -0.18050
     242 -> 247       -0.11767
     245 -> 247        0.15916
     246 -> 248       -0.30996

 The electronic state is 1-A.
 Alpha  occ. eigenvalues --  -46.95838 -19.31112 -19.30813 -19.25322 -19.24520
 Alpha  occ. eigenvalues --  -19.24271 -19.23706 -14.46686 -14.46592 -14.45069
 Alpha  occ. eigenvalues --  -14.44126 -10.43902 -10.43092 -10.40086 -10.39433
 Alpha  occ. eigenvalues --  -10.36206 -10.36042 -10.35691 -10.35420 -10.34982
 Alpha  occ. eigenvalues --  -10.34910 -10.34688 -10.34368 -10.33897 -10.33329
 Alpha  occ. eigenvalues --  -10.33187 -10.33047 -10.32909 -10.32181 -10.32049
 Alpha  occ. eigenvalues --  -10.32002 -10.31942 -10.31913 -10.31564 -10.31506
 Alpha  occ. eigenvalues --  -10.31418 -10.31179 -10.31137 -10.30938 -10.30543
 Alpha  occ. eigenvalues --  -10.30530 -10.30339 -10.30129 -10.30016 -10.30013
 Alpha  occ. eigenvalues --  -10.29930 -10.29906 -10.29840 -10.29673 -10.29581
 Alpha  occ. eigenvalues --  -10.29420 -10.29396 -10.29391 -10.29160 -10.29135
 Alpha  occ. eigenvalues --  -10.28882 -10.28647 -10.28567 -10.28503 -10.28371
 Alpha  occ. eigenvalues --  -10.28223 -10.28066 -10.28025 -10.27996 -10.27943
 Alpha  occ. eigenvalues --  -10.27801  -3.21788  -1.95346  -1.94905  -1.94763
 Alpha  occ. eigenvalues --   -1.19444  -1.18095  -1.11176  -1.11002  -1.10301
 Alpha  occ. eigenvalues --   -1.10292  -1.06422  -1.05646  -1.05341  -1.04598
 Alpha  occ. eigenvalues --   -0.93620  -0.92313  -0.91828  -0.91683  -0.90722
 Alpha  occ. eigenvalues --   -0.90155  -0.90056  -0.89670  -0.89086  -0.88788
 Alpha  occ. eigenvalues --   -0.88240  -0.87761  -0.85953  -0.85358  -0.85141
 Alpha  occ. eigenvalues --   -0.84465  -0.84073  -0.83124  -0.82869  -0.82692
 Alpha  occ. eigenvalues --   -0.81626  -0.80018  -0.79304  -0.79057  -0.78212
 Alpha  occ. eigenvalues --   -0.77638  -0.77429  -0.77300  -0.76742  -0.76080
 Alpha  occ. eigenvalues --   -0.75159  -0.74640  -0.73732  -0.71917  -0.71257
 Alpha  occ. eigenvalues --   -0.70876  -0.69845  -0.69370  -0.68273  -0.67804
 Alpha  occ. eigenvalues --   -0.67608  -0.67219  -0.67063  -0.66462  -0.65827
 Alpha  occ. eigenvalues --   -0.65758  -0.65283  -0.65032  -0.64597  -0.62207
 Alpha  occ. eigenvalues --   -0.61808  -0.61313  -0.60862  -0.60445  -0.59840
 Alpha  occ. eigenvalues --   -0.59241  -0.58908  -0.58332  -0.58297  -0.57543
 Alpha  occ. eigenvalues --   -0.57277  -0.56646  -0.56463  -0.56070  -0.55873
 Alpha  occ. eigenvalues --   -0.55377  -0.55343  -0.55033  -0.54642  -0.54602
 Alpha  occ. eigenvalues --   -0.54477  -0.53945  -0.53937  -0.53845  -0.53835
 Alpha  occ. eigenvalues --   -0.53717  -0.53530  -0.52902  -0.52738  -0.52460
 Alpha  occ. eigenvalues --   -0.52286  -0.52101  -0.51953  -0.51772  -0.51765
 Alpha  occ. eigenvalues --   -0.51391  -0.51258  -0.51072  -0.50834  -0.50583
 Alpha  occ. eigenvalues --   -0.50461  -0.50045  -0.50004  -0.49753  -0.49433
 Alpha  occ. eigenvalues --   -0.48980  -0.48878  -0.48698  -0.48484  -0.48414
 Alpha  occ. eigenvalues --   -0.48283  -0.48163  -0.47992  -0.47872  -0.47648
 Alpha  occ. eigenvalues --   -0.47544  -0.47305  -0.46984  -0.46866  -0.46700
 Alpha  occ. eigenvalues --   -0.46531  -0.46468  -0.46276  -0.45909  -0.45814
 Alpha  occ. eigenvalues --   -0.45695  -0.45577  -0.45531  -0.45143  -0.45049
 Alpha  occ. eigenvalues --   -0.44937  -0.44726  -0.44355  -0.44152  -0.44096
 Alpha  occ. eigenvalues --   -0.43872  -0.43647  -0.43453  -0.43362  -0.43272
 Alpha  occ. eigenvalues --   -0.43142  -0.42858  -0.42783  -0.42381  -0.42187
 Alpha  occ. eigenvalues --   -0.42000  -0.41672  -0.41433  -0.41123  -0.40977
 Alpha  occ. eigenvalues --   -0.40808  -0.40209  -0.40133  -0.39545  -0.39342
 Alpha  occ. eigenvalues --   -0.39282  -0.39000  -0.38935  -0.38325  -0.38210
 Alpha  occ. eigenvalues --   -0.37404  -0.36913  -0.36695  -0.36584  -0.36278
 Alpha  occ. eigenvalues --   -0.35706  -0.35077  -0.34507  -0.34002  -0.33375
 Alpha  occ. eigenvalues --   -0.33039  -0.32423  -0.32257  -0.32139  -0.26176
 Alpha  occ. eigenvalues --   -0.22926
 Alpha virt. eigenvalues --   -0.07104  -0.00028   0.02187   0.03954   0.05091
 Alpha virt. eigenvalues --    0.06505   0.07136   0.08266   0.09306   0.09567
 Alpha virt. eigenvalues --    0.10576   0.11127   0.11426   0.12037   0.12550

 Mulliken charges:
               1
     1  Mg   0.975640
     2  C   -0.033844
     3  C   -0.079288
     4  C   -0.075203
     5  C   -0.081647
     6  N   -0.312440
     7  C   -0.046667
     8  C   -0.000092
     9  C   -0.125543
    10  C    0.078832
    11  C    0.012668
    12  C    0.028051
    13  C    0.001901
    14  C    0.197525
    15  O   -0.258733
    16  O   -0.352079
    17  N   -0.510332
    18  C    0.179536
    19  C   -0.172497
    20  C   -0.086154
    21  C    0.181399
    22  C    0.100849
    23  C    0.036109
    24  O   -0.263541
    25  C    0.000315
    26  N   -0.354387
    27  C    0.052353
    28  C   -0.065415
    29  C   -0.066632
    30  C    0.059760
    31  C   -0.010124
    32  C   -0.047861
    33  C   -0.038582
    34  N   -0.405370
    35  C    0.146214
    36  C   -0.245060
    37  C    0.027470
    38  C    0.111357
    39  C    0.090261
    40  C    0.162733
    41  O   -0.221396
    42  C   -0.105818
    43  C    0.287859
    44  O   -0.246529
    45  O   -0.379811
    46  C    0.126542
    47  C    0.261958
    48  C   -0.168031
    49  C   -0.212462
    50  C    0.054699
    51  C   -0.007384
    52  C    0.012308
    53  C   -0.012284
    54  C   -0.193649
    55  C   -0.003325
    56  C    0.043385
    57  C   -0.028097
    58  C   -0.006901
    59  C   -0.172212
    60  C    0.006885
    61  C    0.047223
    62  C   -0.069153
    63  C    0.011855
    64  C   -0.174721
    65  C   -0.014355
    66  C   -0.001433
    67  H    0.005151
    68  H   -0.013966
    69  H   -0.002020
    70  H    0.032139
    71  H    0.038031
    72  H    0.042481
    73  H    0.031830
    74  H    0.029569
    75  H    0.033061
    76  H    0.042706
    77  H    0.052284
    78  H    0.039413
    79  H    0.050411
    80  H    0.015047
    81  H    0.065009
    82  H    0.073833
    83  H    0.063640
    84  H    0.046572
    85  H    0.051427
    86  H    0.033965
    87  H    0.040085
    88  H    0.030729
    89  H    0.033611
    90  H    0.046333
    91  H    0.021756
    92  H    0.035765
    93  H    0.030883
    94  H    0.052336
    95  H    0.016925
    96  H    0.060816
    97  H    0.064726
    98  H    0.072050
    99  H    0.066548
   100  H    0.063522
   101  H    0.067059
   102  H    0.054673
   103  H    0.070968
   104  H    0.027724
   105  H    0.047791
   106  H    0.040403
   107  H    0.017711
   108  H    0.032827
   109  H    0.001427
   110  H    0.032172
   111  H    0.031748
   112  H    0.016937
   113  H    0.013691
   114  H    0.021886
   115  H    0.020349
   116  H    0.028722
   117  H    0.022813
   118  H    0.017547
   119  H    0.028347
   120  H    0.018349
   121  H    0.016131
   122  H    0.006179
   123  H    0.004900
   124  H    0.031004
   125  H    0.028235
   126  H    0.032029
   127  H    0.020740
   128  H    0.017775
   129  H    0.023414
   130  H   -0.004073
   131  H    0.017374
   132  H   -0.001836
   133  H    0.002313
   134  H    0.019944
   135  H    0.033446
   136  H    0.025715
   137  H    0.019587
   138  H    0.031676
   139  H    0.022177
   140  H    0.026823
 Sum of Mulliken charges =  -0.00000

 Dipole moment (field-independent basis, Debye):
    X=              0.1112    Y=             -3.3319    Z=              1.1215  Tot=              3.5174
 Quadrupole moment (field-independent basis, Debye-Ang):
   XX=           -381.5494   YY=           -390.4085   ZZ=           -426.0141
   XY=              9.7955   XZ=             -6.7527   YZ=            -34.7423

 Normal termination of Gaussian 16 at Sat Apr 30 02:35:00 2022.
