 Gaussian 16, Revision A.03,
 Gaussian 16:  ES64L-G16RevA.03 25-Dec-2016

 --------------------
 #p ZINDO=(nstates=5)
 --------------------

 ---------------------------
 step_51_chromophore_8 ZINDO
 ---------------------------
 Symbolic Z-matrix:
 Charge =  0 Multiplicity = 1

                         Standard orientation:
 ---------------------------------------------------------------------
 Center     Atomic      Atomic             Coordinates (Angstroms)
 Number     Number       Type             X           Y           Z
 ---------------------------------------------------------------------
      1         12           0       -4.639684   -0.889815    0.047210
      2          6           0       -3.605979    2.318413    0.988858
      3          6           0       -4.053560    0.021459   -3.197283
      4          6           0       -5.082128   -4.135983   -0.715713
      5          6           0       -4.459181   -1.828697    3.510488
      6          7           0       -3.614692    0.912758   -0.914861
      7          6           0       -3.443611    2.128677   -0.354955
      8          6           0       -2.937809    3.123647   -1.434772
      9          6           0       -3.338979    2.436957   -2.730530
     10          6           0       -3.656285    0.963204   -2.264874
     11          6           0       -4.477173    3.077728   -3.581092
     12          6           0       -1.336445    3.409409   -1.405761
     13          6           0       -0.982944    4.818802   -1.375758
     14          6           0        0.491113    5.211547   -1.456904
     15          8           0        0.974739    5.801060   -2.410692
     16          8           0        1.167735    4.859627   -0.338552
     17          7           0       -4.776323   -1.835357   -1.694139
     18          6           0       -4.480844   -1.328807   -2.951148
     19          6           0       -4.688674   -2.352987   -3.925015
     20          6           0       -5.224037   -3.463264   -3.291365
     21          6           0       -5.035076   -3.163933   -1.790485
     22          6           0       -4.383843   -2.158610   -5.396997
     23          6           0       -5.826193   -4.709500   -3.987410
     24          8           0       -5.800838   -4.749592   -5.231183
     25          6           0       -6.359733   -5.917781   -3.284521
     26          7           0       -4.736803   -2.744913    1.218014
     27          6           0       -5.028385   -3.980289    0.660750
     28          6           0       -5.129175   -5.074539    1.704872
     29          6           0       -5.064282   -4.269245    3.066444
     30          6           0       -4.763696   -2.826250    2.565910
     31          6           0       -6.471363   -5.963562    1.570391
     32          6           0       -3.947087   -4.718875    4.041013
     33          6           0       -4.327153   -5.145452    5.510837
     34          7           0       -4.042491   -0.007197    1.910737
     35          6           0       -4.068180   -0.466912    3.209083
     36          6           0       -3.662566    0.621008    4.079351
     37          6           0       -3.602458    1.783735    3.348325
     38          6           0       -3.780252    1.332138    1.998533
     39          6           0       -3.408559    0.402892    5.523941
     40          6           0       -3.459025    3.231808    3.304971
     41          8           0       -3.229416    4.080894    4.182595
     42          6           0       -3.477959    3.693705    1.756549
     43          6           0       -4.683278    4.559293    1.338830
     44          8           0       -5.799623    4.110101    1.118419
     45          8           0       -4.222307    5.822042    1.033849
     46          6           0       -5.221452    6.818729    0.540713
     47          6           0        2.608562    4.993530   -0.427843
     48          6           0        3.213388    3.662397    0.003203
     49          6           0        4.408460    3.192915   -0.216075
     50          6           0        5.601051    3.833756   -0.924381
     51          6           0        4.662413    1.721236    0.219851
     52          6           0        3.938016    0.694748   -0.650232
     53          6           0        4.723552   -0.655073   -0.585169
     54          6           0        5.637935   -0.910726   -1.851848
     55          6           0        4.726056   -1.687672   -2.844725
     56          6           0        6.946375   -1.701837   -1.410529
     57          6           0        8.037958   -0.605202   -1.068912
     58          6           0        8.514338   -0.681224    0.435792
     59          6           0        9.863644   -1.487311    0.629542
     60          6           0        9.608653   -2.686347    1.527469
     61          6           0       10.991745   -0.562764    1.257000
     62          6           0       12.204318   -0.788758    0.400817
     63          6           0       13.098084   -1.946394    0.789510
     64          6           0       14.582859   -1.786250    0.473255
     65          6           0       15.568221   -2.469455    1.441211
     66          6           0       14.842737   -2.104033   -0.977071
     67          1           0       -3.887883    0.319883   -4.234247
     68          1           0       -5.230284   -5.176835   -1.011119
     69          1           0       -4.552661   -2.121616    4.557618
     70          1           0       -3.558697    3.995227   -1.229444
     71          1           0       -2.494212    2.429283   -3.419855
     72          1           0       -4.201968    3.295215   -4.613722
     73          1           0       -4.924436    3.906804   -3.033182
     74          1           0       -5.369550    2.470350   -3.732037
     75          1           0       -0.778581    3.077552   -2.281169
     76          1           0       -0.800138    2.939545   -0.580759
     77          1           0       -1.346836    5.236836   -0.437263
     78          1           0       -1.517612    5.293762   -2.198240
     79          1           0       -3.686681   -2.938803   -5.701847
     80          1           0       -3.834497   -1.244960   -5.621360
     81          1           0       -5.288570   -2.207605   -6.002530
     82          1           0       -5.565706   -6.662937   -3.244140
     83          1           0       -7.121031   -6.262109   -3.985772
     84          1           0       -6.765283   -5.725225   -2.291531
     85          1           0       -4.266253   -5.737734    1.657294
     86          1           0       -6.066522   -4.410326    3.470805
     87          1           0       -6.401544   -7.010654    1.277179
     88          1           0       -7.134781   -5.600766    0.785855
     89          1           0       -7.120452   -5.917500    2.445356
     90          1           0       -3.146139   -3.980203    4.033100
     91          1           0       -3.504538   -5.608276    3.591999
     92          1           0       -3.858866   -6.116621    5.674126
     93          1           0       -5.400172   -5.336472    5.491441
     94          1           0       -3.992072   -4.441631    6.272299
     95          1           0       -3.817241   -0.534004    5.903079
     96          1           0       -3.941028    1.166821    6.091158
     97          1           0       -2.322042    0.341788    5.587263
     98          1           0       -2.573720    4.207646    1.431818
     99          1           0       -4.637647    7.389730   -0.181596
    100          1           0       -5.549303    7.408509    1.395743
    101          1           0       -6.144229    6.424009    0.115134
    102          1           0        2.930063    5.730766    0.306618
    103          1           0        2.967141    5.226501   -1.431320
    104          1           0        2.506576    2.933000    0.398725
    105          1           0        6.214177    3.104094   -1.453019
    106          1           0        6.257234    4.348486   -0.223149
    107          1           0        5.245533    4.703039   -1.477741
    108          1           0        4.402803    1.736574    1.277890
    109          1           0        5.735071    1.537184    0.288428
    110          1           0        3.973747    1.041480   -1.682901
    111          1           0        2.976949    0.486961   -0.179802
    112          1           0        3.934819   -1.401692   -0.488940
    113          1           0        5.316063   -0.689169    0.328865
    114          1           0        5.896673    0.018660   -2.357602
    115          1           0        3.673178   -1.422984   -2.743531
    116          1           0        4.791593   -2.765526   -2.699782
    117          1           0        4.891347   -1.448166   -3.895634
    118          1           0        7.228094   -2.328208   -2.257195
    119          1           0        6.709067   -2.419647   -0.625824
    120          1           0        7.907877    0.461760   -1.252242
    121          1           0        8.902254   -0.755594   -1.716058
    122          1           0        7.757493   -1.031367    1.138321
    123          1           0        8.520942    0.358755    0.759168
    124          1           0       10.245852   -1.895965   -0.305705
    125          1           0       10.463641   -3.362285    1.504481
    126          1           0        8.637799   -3.105213    1.264187
    127          1           0        9.521296   -2.307171    2.545262
    128          1           0       11.248251   -0.873222    2.269090
    129          1           0       10.825065    0.513556    1.225031
    130          1           0       12.742025    0.148949    0.543042
    131          1           0       12.089320   -0.755273   -0.681747
    132          1           0       12.627646   -2.754113    0.229028
    133          1           0       12.909800   -2.385776    1.768656
    134          1           0       14.875232   -0.747946    0.631155
    135          1           0       15.789151   -1.830601    2.296021
    136          1           0       16.512349   -2.790595    1.000187
    137          1           0       15.108306   -3.371580    1.845669
    138          1           0       14.195335   -1.595823   -1.693034
    139          1           0       14.711918   -3.172609   -1.143917
    140          1           0       15.892839   -1.844244   -1.109262
 ---------------------------------------------------------------------

 SCF Done:  E(RZINDO/S) =  -474.080225509     A.U. after   20 cycles

 Excitation energies and oscillator strengths:

 Excited State   1:      Singlet-A      1.2175 eV 1018.31 nm  f=0.6049  <S**2>=0.000
     175 ->178         0.18670
     176 ->177         0.66281
 This state for optimization and/or second-order correction.
 Total Energy, E(CIS/TDA) =  -474.035481485
 Copying the excited state density for this state as the 1-particle RhoCI density.

 Excited State   2:      Singlet-A      1.8987 eV  653.01 nm  f=0.0258  <S**2>=0.000
     175 ->177         0.52903
     176 ->178        -0.44255

 Excited State   3:      Singlet-A      2.8735 eV  431.48 nm  f=0.1661  <S**2>=0.000
     175 ->177         0.15629
     176 ->178         0.25632
     176 ->179         0.54620
     176 ->180         0.19435
     176 ->181         0.16298

 Excited State   4:      Singlet-A      2.9448 eV  421.03 nm  f=0.5601  <S**2>=0.000
     168 ->179         0.15357
     169 ->177        -0.10417
     175 ->177         0.31147
     176 ->178         0.36601
     176 ->179        -0.31226
     176 ->180         0.10680
     176 ->181        -0.11173

 Excited State   5:      Singlet-A      2.9690 eV  417.59 nm  f=0.2023  <S**2>=0.000
     168 ->177         0.20764
     168 ->178        -0.16116
     168 ->179        -0.20453
     168 ->180        -0.18779
     168 ->181         0.23823
     168 ->185        -0.15545
     169 ->179        -0.17724
     169 ->181         0.12015
     169 ->185        -0.11333
     175 ->177         0.17535
     176 ->178         0.21043
     176 ->180         0.12017

 The electronic state is 1-A.
 Alpha  occ. eigenvalues --   -1.82989  -1.80624  -1.79285  -1.74912  -1.70861
 Alpha  occ. eigenvalues --   -1.69760  -1.65537  -1.61726  -1.58706  -1.56217
 Alpha  occ. eigenvalues --   -1.54869  -1.51699  -1.48704  -1.48318  -1.46668
 Alpha  occ. eigenvalues --   -1.45315  -1.43124  -1.39251  -1.39137  -1.38012
 Alpha  occ. eigenvalues --   -1.35531  -1.34304  -1.32779  -1.31835  -1.27773
 Alpha  occ. eigenvalues --   -1.27372  -1.25863  -1.22247  -1.20369  -1.18510
 Alpha  occ. eigenvalues --   -1.17394  -1.16017  -1.15099  -1.14321  -1.13317
 Alpha  occ. eigenvalues --   -1.12598  -1.10719  -1.09416  -1.04994  -1.04028
 Alpha  occ. eigenvalues --   -1.02363  -1.00419  -0.97821  -0.97376  -0.95451
 Alpha  occ. eigenvalues --   -0.95186  -0.94685  -0.94171  -0.93381  -0.93160
 Alpha  occ. eigenvalues --   -0.91896  -0.91466  -0.90200  -0.88319  -0.88302
 Alpha  occ. eigenvalues --   -0.86205  -0.85357  -0.84092  -0.82839  -0.80631
 Alpha  occ. eigenvalues --   -0.79932  -0.78680  -0.77249  -0.76288  -0.76024
 Alpha  occ. eigenvalues --   -0.75371  -0.74888  -0.74115  -0.73613  -0.73198
 Alpha  occ. eigenvalues --   -0.72958  -0.72565  -0.72143  -0.71139  -0.70759
 Alpha  occ. eigenvalues --   -0.70345  -0.69701  -0.69376  -0.69048  -0.68085
 Alpha  occ. eigenvalues --   -0.67774  -0.67492  -0.66521  -0.66311  -0.65533
 Alpha  occ. eigenvalues --   -0.65165  -0.64769  -0.64633  -0.64290  -0.63964
 Alpha  occ. eigenvalues --   -0.63624  -0.63190  -0.63071  -0.62837  -0.62315
 Alpha  occ. eigenvalues --   -0.61829  -0.61357  -0.60810  -0.59747  -0.59691
 Alpha  occ. eigenvalues --   -0.59251  -0.58794  -0.58142  -0.57992  -0.57904
 Alpha  occ. eigenvalues --   -0.57559  -0.57474  -0.57153  -0.56890  -0.56552
 Alpha  occ. eigenvalues --   -0.56369  -0.55845  -0.55533  -0.54887  -0.54726
 Alpha  occ. eigenvalues --   -0.54357  -0.53983  -0.53579  -0.53441  -0.53205
 Alpha  occ. eigenvalues --   -0.52786  -0.52567  -0.52167  -0.51986  -0.51774
 Alpha  occ. eigenvalues --   -0.51538  -0.51485  -0.51093  -0.51020  -0.50915
 Alpha  occ. eigenvalues --   -0.50560  -0.50230  -0.50031  -0.49410  -0.49358
 Alpha  occ. eigenvalues --   -0.49032  -0.48901  -0.48475  -0.48105  -0.47949
 Alpha  occ. eigenvalues --   -0.47790  -0.47544  -0.47160  -0.47041  -0.46953
 Alpha  occ. eigenvalues --   -0.46750  -0.46455  -0.45788  -0.45568  -0.45373
 Alpha  occ. eigenvalues --   -0.45192  -0.44965  -0.44666  -0.44308  -0.44119
 Alpha  occ. eigenvalues --   -0.43228  -0.43055  -0.42845  -0.42497  -0.42329
 Alpha  occ. eigenvalues --   -0.42081  -0.41209  -0.40245  -0.39175  -0.38911
 Alpha  occ. eigenvalues --   -0.38427  -0.37376  -0.36009  -0.35953  -0.34373
 Alpha  occ. eigenvalues --   -0.33503  -0.33144  -0.32944  -0.32697  -0.26903
 Alpha  occ. eigenvalues --   -0.21687
 Alpha virt. eigenvalues --   -0.08632  -0.02353  -0.00760   0.00925   0.01042
 Alpha virt. eigenvalues --    0.01644   0.02031   0.02819   0.04355   0.05634
 Alpha virt. eigenvalues --    0.06005   0.06585   0.06650   0.07466   0.07707

 Mulliken charges:
               1
     1  Mg   0.439886
     2  C   -0.034504
     3  C   -0.070475
     4  C   -0.091624
     5  C   -0.080765
     6  N   -0.278077
     7  C    0.120785
     8  C    0.008096
     9  C    0.002244
    10  C    0.131362
    11  C   -0.057033
    12  C   -0.017839
    13  C    0.013039
    14  C    0.469514
    15  O   -0.524276
    16  O   -0.260679
    17  N   -0.303378
    18  C    0.102082
    19  C    0.053573
    20  C   -0.054691
    21  C    0.134729
    22  C   -0.037258
    23  C    0.327527
    24  O   -0.531312
    25  C   -0.026355
    26  N   -0.284455
    27  C    0.140148
    28  C    0.007015
    29  C   -0.004007
    30  C    0.124553
    31  C   -0.064009
    32  C   -0.036040
    33  C   -0.060183
    34  N   -0.323954
    35  C    0.084263
    36  C    0.044336
    37  C   -0.046895
    38  C    0.110186
    39  C   -0.043707
    40  C    0.338915
    41  O   -0.520608
    42  C    0.039479
    43  C    0.485098
    44  O   -0.514660
    45  O   -0.271561
    46  C    0.072855
    47  C    0.103537
    48  C   -0.086309
    49  C   -0.013372
    50  C   -0.047140
    51  C   -0.031511
    52  C   -0.030862
    53  C   -0.043097
    54  C   -0.015982
    55  C   -0.060631
    56  C   -0.028939
    57  C   -0.041660
    58  C   -0.046421
    59  C   -0.012417
    60  C   -0.057195
    61  C   -0.034374
    62  C   -0.031296
    63  C   -0.031048
    64  C   -0.001737
    65  C   -0.055910
    66  C   -0.050652
    67  H    0.033816
    68  H    0.020936
    69  H    0.030463
    70  H    0.036399
    71  H    0.025599
    72  H    0.025770
    73  H    0.022973
    74  H    0.017807
    75  H    0.028406
    76  H    0.025253
    77  H    0.032471
    78  H    0.031539
    79  H    0.033743
    80  H    0.017011
    81  H    0.045256
    82  H    0.048671
    83  H    0.043673
    84  H    0.031095
    85  H    0.039348
    86  H    0.039591
    87  H    0.023951
    88  H    0.014812
    89  H    0.022089
    90  H    0.026974
    91  H    0.010723
    92  H    0.017446
    93  H    0.022239
    94  H    0.031616
    95  H    0.016588
    96  H    0.037339
    97  H    0.041064
    98  H    0.054056
    99  H    0.036527
   100  H    0.042806
   101  H    0.053224
   102  H    0.045988
   103  H    0.063358
   104  H    0.028619
   105  H    0.034578
   106  H    0.024945
   107  H    0.023190
   108  H    0.019939
   109  H    0.013095
   110  H    0.034594
   111  H    0.028716
   112  H    0.015495
   113  H    0.016957
   114  H    0.028992
   115  H    0.011949
   116  H    0.019405
   117  H    0.011865
   118  H    0.015627
   119  H    0.030997
   120  H    0.028835
   121  H    0.011541
   122  H    0.018976
   123  H    0.011131
   124  H    0.028670
   125  H    0.021200
   126  H    0.020037
   127  H    0.013703
   128  H    0.025599
   129  H    0.022783
   130  H   -0.006847
   131  H    0.023209
   132  H    0.006518
   133  H    0.017955
   134  H    0.012878
   135  H    0.016746
   136  H    0.020134
   137  H    0.011791
   138  H    0.021186
   139  H    0.016376
   140  H    0.013672
 Sum of Mulliken charges =  -0.00000

 Dipole moment (field-independent basis, Debye):
    X=              0.2662    Y=             -5.0374    Z=              1.0487  Tot=              5.1523
 N-N= 4.387291260834D+03 E-N= 0.000000000000D+00  KE=-9.448238997935D+03
 Leave Link  601 at Sat Apr 30 02:47:00 2022, MaxMem=  6710886400 cpu:               0.8 elap:               0.1
 (Enter /sw/apps/gaussian-16.0/g16/l9999.exe)
 1\1\GINC-BP1-COMPUTE159\SP\RZINDO CIS\STO-3G\C55H74Mg1N4O6\OF15641\30-
 Apr-2022\0\\#p ZINDO=(nstates=5)\\step_51_chromophore_8 ZINDO\\0,1\Mg,
 0,44.435,3.202,47.837\C,0,42.19,5.813,47.212\C,0,41.824,1.035,47.404\C
 ,0,46.744,0.756,47.869\C,0,47.104,5.584,47.504\N,0,42.3,3.454,47.06\C,
 0,41.586,4.599,47.04\C,0,40.111,4.277,46.676\C,0,40.007,2.795,46.999\C
 ,0,41.517,2.354,47.121\C,0,39.135,2.367,48.218\C,0,39.712,4.558,45.124
 \C,0,38.525,5.379,44.953\C,0,37.991,5.619,43.542\O,0,36.923,5.178,43.1

 Normal termination of Gaussian 16 at Sat Apr 30 02:47:01 2022.
