 Gaussian 16, Revision A.03,
 Gaussian 16:  ES64L-G16RevA.03 25-Dec-2016

 ------------------------------
 #p blyp/Def2SVP td=(nstates=5)
 ------------------------------

 ---------------------------------------------------
 step_1551_chromophore_27 TDDFT with blyp functional
 ---------------------------------------------------
 Symbolic Z-matrix:
 Charge =  0 Multiplicity = 1

                         Standard orientation:
 ---------------------------------------------------------------------
 Center     Atomic      Atomic             Coordinates (Angstroms)
 Number     Number       Type             X           Y           Z
 ---------------------------------------------------------------------
      1         12           0       -4.422843    0.773659    0.091232
      2          6           0       -3.713794   -2.697114    0.330822
      3          6           0       -1.063203    1.303088    0.542992
      4          6           0       -5.185052    4.029960    0.140872
      5          6           0       -8.031303    0.069889    0.363852
      6          7           0       -2.689072   -0.520318    0.433614
      7          6           0       -2.557022   -1.850687    0.312155
      8          6           0       -1.116370   -2.429068    0.130807
      9          6           0       -0.283166   -1.110703    0.566314
     10          6           0       -1.391623   -0.011131    0.512604
     11          6           0        0.236894   -1.197917    2.039092
     12          6           0       -0.942047   -2.958152   -1.345067
     13          6           0       -0.172706   -4.215111   -1.665227
     14          6           0        1.084168   -4.241850   -2.521564
     15          8           0        1.199931   -4.689294   -3.660667
     16          8           0        2.125937   -3.720224   -1.786283
     17          7           0       -3.321873    2.417714    0.238597
     18          6           0       -1.954653    2.433208    0.462596
     19          6           0       -1.515155    3.841376    0.525233
     20          6           0       -2.648086    4.704203    0.398677
     21          6           0       -3.793079    3.699717    0.218960
     22          6           0       -0.028267    4.231597    0.683152
     23          6           0       -2.701912    6.288533    0.359680
     24          8           0       -3.781258    6.889964    0.346676
     25          6           0       -1.450253    7.093407    0.422129
     26          7           0       -6.383202    1.915846    0.342684
     27          6           0       -6.357317    3.348004    0.250300
     28          6           0       -7.756304    3.899336    0.072175
     29          6           0       -8.642629    2.557604   -0.073005
     30          6           0       -7.687888    1.419349    0.213568
     31          6           0       -8.223239    4.912355    1.150468
     32          6           0       -9.428766    2.292258   -1.373334
     33          6           0      -10.434171    3.423556   -1.941733
     34          7           0       -5.656556   -0.927238    0.216346
     35          6           0       -7.022028   -1.036604    0.417999
     36          6           0       -7.349017   -2.468671    0.532727
     37          6           0       -6.121647   -3.120088    0.516274
     38          6           0       -5.086186   -2.188233    0.338287
     39          6           0       -8.711067   -3.074073    0.554393
     40          6           0       -5.487376   -4.458162    0.485606
     41          8           0       -5.973696   -5.605283    0.596569
     42          6           0       -3.931174   -4.203995    0.334278
     43          6           0       -3.217611   -4.832020    1.399426
     44          8           0       -3.537266   -4.743448    2.577630
     45          8           0       -2.192161   -5.624825    0.951812
     46          6           0       -1.742666   -6.573938    2.061189
     47          6           0        3.421609   -3.889577   -2.305899
     48          6           0        3.990373   -2.498123   -2.541104
     49          6           0        5.276852   -2.090823   -2.485190
     50          6           0        6.461515   -2.994163   -2.126168
     51          6           0        5.799224   -0.682405   -2.660446
     52          6           0        6.530924   -0.269521   -3.920259
     53          6           0        7.830451    0.495215   -3.706804
     54          6           0        7.620906    2.026168   -3.958559
     55          6           0        7.589201    2.342388   -5.446151
     56          6           0        8.786984    2.859687   -3.162297
     57          6           0        8.738253    2.997320   -1.573421
     58          6           0        9.917708    2.399290   -0.732263
     59          6           0        9.376945    1.651683    0.527158
     60          6           0        8.823954    0.209156    0.177925
     61          6           0       10.402045    1.480943    1.636496
     62          6           0        9.936669    1.586054    3.061727
     63          6           0       10.132532    0.181377    3.792251
     64          6           0       10.292666    0.321605    5.345307
     65          6           0       11.201092   -0.695883    5.923284
     66          6           0        8.959658    0.256835    6.065738
     67          1           0        0.015917    1.451687    0.613516
     68          1           0       -5.190111    5.085941    0.418636
     69          1           0       -9.098355   -0.143981    0.456485
     70          1           0       -0.811769   -3.192234    0.846160
     71          1           0        0.475032   -1.110522   -0.216903
     72          1           0        0.215234   -0.299727    2.654919
     73          1           0        1.264318   -1.535440    1.899918
     74          1           0       -0.368646   -1.922768    2.583041
     75          1           0       -0.594660   -2.058966   -1.853434
     76          1           0       -1.900794   -3.051871   -1.854321
     77          1           0       -0.830525   -5.014625   -2.007417
     78          1           0        0.075091   -4.537459   -0.654586
     79          1           0        0.102385    4.923530    1.514681
     80          1           0        0.248577    4.652704   -0.283820
     81          1           0        0.767751    3.494104    0.786598
     82          1           0       -0.988569    6.879854    1.385747
     83          1           0       -1.721675    8.136171    0.258456
     84          1           0       -0.767694    6.860440   -0.394295
     85          1           0       -7.721096    4.494552   -0.839413
     86          1           0       -9.404862    2.575025    0.706912
     87          1           0       -8.727654    5.763377    0.692327
     88          1           0       -7.297572    5.274318    1.596713
     89          1           0       -8.964074    4.588536    1.881657
     90          1           0      -10.076225    1.479756   -1.045045
     91          1           0       -8.799402    1.849141   -2.144415
     92          1           0      -10.518616    3.343284   -3.025425
     93          1           0      -10.184171    4.432925   -1.612384
     94          1           0      -11.455307    3.314026   -1.576288
     95          1           0       -9.454466   -2.398176    0.131380
     96          1           0       -9.011688   -3.306338    1.575582
     97          1           0       -8.770922   -3.974896   -0.056696
     98          1           0       -3.610564   -4.680617   -0.591573
     99          1           0       -2.642493   -7.106457    2.367563
    100          1           0       -1.307523   -5.974045    2.860030
    101          1           0       -0.929747   -7.190320    1.677532
    102          1           0        3.501973   -4.490659   -3.211502
    103          1           0        4.037719   -4.349905   -1.534065
    104          1           0        3.383747   -1.593162   -2.580175
    105          1           0        6.181971   -4.046577   -2.079891
    106          1           0        7.012234   -2.714858   -1.228034
    107          1           0        7.112473   -2.927977   -2.997391
    108          1           0        6.363750   -0.405621   -1.769312
    109          1           0        4.899912   -0.070263   -2.718912
    110          1           0        5.816413    0.220141   -4.581045
    111          1           0        6.897975   -1.156496   -4.437733
    112          1           0        8.651386    0.112191   -4.312831
    113          1           0        8.278791    0.321376   -2.728671
    114          1           0        6.624691    2.298175   -3.608819
    115          1           0        7.800435    1.389053   -5.930062
    116          1           0        8.415235    2.873508   -5.918843
    117          1           0        6.586693    2.690573   -5.696637
    118          1           0        8.851219    3.879874   -3.539901
    119          1           0        9.755463    2.444076   -3.440452
    120          1           0        7.797864    2.605226   -1.187214
    121          1           0        8.779066    4.081744   -1.466409
    122          1           0       10.589734    3.210034   -0.454517
    123          1           0       10.544258    1.715356   -1.305597
    124          1           0        8.561077    2.255285    0.924742
    125          1           0        8.887701   -0.428763    1.059508
    126          1           0        9.412383   -0.274812   -0.601897
    127          1           0        7.771547    0.264242   -0.101262
    128          1           0       11.052189    2.342849    1.482978
    129          1           0       11.031880    0.616141    1.425330
    130          1           0        8.854711    1.719433    3.094167
    131          1           0       10.355986    2.454820    3.569815
    132          1           0       10.889897   -0.427330    3.298978
    133          1           0        9.302175   -0.478884    3.539572
    134          1           0       10.685875    1.304968    5.602930
    135          1           0       12.130334   -0.140416    6.048194
    136          1           0       11.299058   -1.488626    5.181137
    137          1           0       10.904461   -0.887766    6.954082
    138          1           0        8.572520   -0.618533    6.588547
    139          1           0        8.256842    0.547770    5.284899
    140          1           0        8.847286    1.108935    6.736954
 ---------------------------------------------------------------------

 SCF Done:  E(RB-LYP) =  -3007.34617244     A.U. after   21 cycles

 Excitation energies and oscillator strengths:

 Excited State   1:      Singlet-A      1.7704 eV  700.32 nm  f=0.3008  <S**2>=0.000
     245 -> 248        0.17489
     246 -> 247        0.69264
     246 <- 247       -0.15685
 This state for optimization and/or second-order correction.
 Total Energy, E(TD-HF/TD-DFT) =  -3007.28111151
 Copying the excited state density for this state as the 1-particle RhoCI density.

 Excited State   2:      Singlet-A      1.9132 eV  648.05 nm  f=0.0339  <S**2>=0.000
     244 -> 247        0.56435
     245 -> 247        0.40487
     246 -> 248       -0.10618

 Excited State   3:      Singlet-A      2.0095 eV  616.98 nm  f=0.0690  <S**2>=0.000
     244 -> 247       -0.42303
     245 -> 247        0.51401
     246 -> 248       -0.18956

 Excited State   4:      Singlet-A      2.0961 eV  591.49 nm  f=0.0016  <S**2>=0.000
     243 -> 247        0.70418

 Excited State   5:      Singlet-A      2.2882 eV  541.84 nm  f=0.0004  <S**2>=0.000
     242 -> 247        0.70689

 The electronic state is 1-A.
 Alpha  occ. eigenvalues --  -46.27349 -18.82711 -18.82248 -18.77522 -18.76440
 Alpha  occ. eigenvalues --  -18.75984 -18.75919 -14.04065 -14.02557 -14.02057
 Alpha  occ. eigenvalues --  -14.01234 -10.04873 -10.03055 -10.01109 -10.00116
 Alpha  occ. eigenvalues --   -9.98325  -9.98032  -9.97575  -9.96873  -9.96498
 Alpha  occ. eigenvalues --   -9.96430  -9.96392  -9.96359  -9.96145  -9.95009
 Alpha  occ. eigenvalues --   -9.94967  -9.94817  -9.94625  -9.94544  -9.93981
 Alpha  occ. eigenvalues --   -9.93917  -9.93890  -9.93877  -9.93783  -9.93690
 Alpha  occ. eigenvalues --   -9.93664  -9.93547  -9.93409  -9.93193  -9.93039
 Alpha  occ. eigenvalues --   -9.92936  -9.92851  -9.92683  -9.92679  -9.92465
 Alpha  occ. eigenvalues --   -9.92234  -9.92024  -9.92007  -9.91952  -9.91885
 Alpha  occ. eigenvalues --   -9.91834  -9.91787  -9.91703  -9.91692  -9.91686
 Alpha  occ. eigenvalues --   -9.91636  -9.91573  -9.91545  -9.91524  -9.91508
 Alpha  occ. eigenvalues --   -9.91393  -9.91081  -9.90909  -9.90632  -9.90340
 Alpha  occ. eigenvalues --   -9.90324  -2.91971  -1.72387  -1.71873  -1.71677
 Alpha  occ. eigenvalues --   -0.99018  -0.97290  -0.91657  -0.90682  -0.89885
 Alpha  occ. eigenvalues --   -0.88831  -0.86434  -0.85031  -0.84683  -0.82846
 Alpha  occ. eigenvalues --   -0.75048  -0.73900  -0.73282  -0.73131  -0.71962
 Alpha  occ. eigenvalues --   -0.71877  -0.71407  -0.71020  -0.70676  -0.70039
 Alpha  occ. eigenvalues --   -0.69577  -0.69401  -0.68214  -0.67364  -0.67089
 Alpha  occ. eigenvalues --   -0.66612  -0.66044  -0.65408  -0.64867  -0.64342
 Alpha  occ. eigenvalues --   -0.64021  -0.62446  -0.62275  -0.61701  -0.60886
 Alpha  occ. eigenvalues --   -0.60690  -0.60474  -0.60029  -0.59897  -0.59176
 Alpha  occ. eigenvalues --   -0.58833  -0.57636  -0.56702  -0.56028  -0.54718
 Alpha  occ. eigenvalues --   -0.54234  -0.53466  -0.52946  -0.52597  -0.51348
 Alpha  occ. eigenvalues --   -0.51115  -0.50988  -0.50478  -0.50103  -0.50030
 Alpha  occ. eigenvalues --   -0.49679  -0.49585  -0.49001  -0.47713  -0.46766
 Alpha  occ. eigenvalues --   -0.46346  -0.46187  -0.45429  -0.45044  -0.44912
 Alpha  occ. eigenvalues --   -0.44576  -0.43708  -0.43101  -0.42858  -0.42300
 Alpha  occ. eigenvalues --   -0.42222  -0.41950  -0.41373  -0.41321  -0.41122
 Alpha  occ. eigenvalues --   -0.41082  -0.40786  -0.40690  -0.40465  -0.40262
 Alpha  occ. eigenvalues --   -0.40027  -0.39681  -0.39425  -0.39222  -0.39167
 Alpha  occ. eigenvalues --   -0.38989  -0.38674  -0.38383  -0.38220  -0.38109
 Alpha  occ. eigenvalues --   -0.37987  -0.37783  -0.37761  -0.37522  -0.37282
 Alpha  occ. eigenvalues --   -0.37018  -0.36794  -0.36652  -0.36600  -0.36513
 Alpha  occ. eigenvalues --   -0.36492  -0.36307  -0.36240  -0.36013  -0.35754
 Alpha  occ. eigenvalues --   -0.35548  -0.35403  -0.35342  -0.35170  -0.34727
 Alpha  occ. eigenvalues --   -0.34543  -0.34342  -0.34237  -0.34164  -0.34022
 Alpha  occ. eigenvalues --   -0.34020  -0.33714  -0.33606  -0.33479  -0.33159
 Alpha  occ. eigenvalues --   -0.33000  -0.32837  -0.32522  -0.32403  -0.32217
 Alpha  occ. eigenvalues --   -0.32067  -0.31979  -0.31920  -0.31604  -0.31528
 Alpha  occ. eigenvalues --   -0.31456  -0.31246  -0.30933  -0.30752  -0.30666
 Alpha  occ. eigenvalues --   -0.30598  -0.30478  -0.30331  -0.30112  -0.29784
 Alpha  occ. eigenvalues --   -0.29594  -0.29473  -0.29447  -0.29127  -0.28978
 Alpha  occ. eigenvalues --   -0.28897  -0.28332  -0.28071  -0.27915  -0.27587
 Alpha  occ. eigenvalues --   -0.27423  -0.27183  -0.27088  -0.27069  -0.26585
 Alpha  occ. eigenvalues --   -0.26572  -0.26171  -0.25787  -0.25700  -0.25416
 Alpha  occ. eigenvalues --   -0.25103  -0.25037  -0.24398  -0.24048  -0.23394
 Alpha  occ. eigenvalues --   -0.23198  -0.22708  -0.22224  -0.21395  -0.21176
 Alpha  occ. eigenvalues --   -0.20363  -0.20280  -0.19502  -0.18920  -0.17229
 Alpha  occ. eigenvalues --   -0.15976
 Alpha virt. eigenvalues --   -0.11872  -0.07017  -0.06164  -0.04983  -0.03850
 Alpha virt. eigenvalues --   -0.02605  -0.02588  -0.01767  -0.01722  -0.00280
 Alpha virt. eigenvalues --    0.00829   0.01582   0.02425   0.02509   0.02855

 Mulliken charges:
               1
     1  Mg   0.711702
     2  C    0.018464
     3  C   -0.066337
     4  C   -0.007821
     5  C   -0.060808
     6  N   -0.206772
     7  C   -0.074237
     8  C   -0.024621
     9  C   -0.013801
    10  C    0.039533
    11  C    0.125130
    12  C    0.112626
    13  C    0.180512
    14  C    0.075308
    15  O   -0.180098
    16  O   -0.262143
    17  N   -0.324647
    18  C    0.171842
    19  C   -0.146665
    20  C    0.015208
    21  C    0.018193
    22  C    0.150330
    23  C   -0.052698
    24  O   -0.166834
    25  C    0.148200
    26  N   -0.248006
    27  C    0.025358
    28  C    0.036692
    29  C    0.068682
    30  C    0.025410
    31  C    0.115965
    32  C    0.068520
    33  C    0.063243
    34  N   -0.280192
    35  C    0.105110
    36  C   -0.188090
    37  C    0.088020
    38  C    0.052223
    39  C    0.173301
    40  C   -0.008288
    41  O   -0.153794
    42  C    0.125893
    43  C    0.071042
    44  O   -0.190363
    45  O   -0.295895
    46  C    0.222819
    47  C    0.341025
    48  C   -0.070498
    49  C   -0.195250
    50  C    0.126629
    51  C    0.156739
    52  C    0.094770
    53  C    0.090963
    54  C   -0.064732
    55  C    0.128068
    56  C    0.072253
    57  C    0.076233
    58  C    0.112120
    59  C   -0.104448
    60  C    0.092026
    61  C    0.121437
    62  C    0.101910
    63  C    0.048929
    64  C   -0.084937
    65  C    0.160164
    66  C    0.106951
    67  H   -0.068403
    68  H   -0.022005
    69  H   -0.044175
    70  H   -0.013312
    71  H   -0.013488
    72  H    0.001551
    73  H    0.001059
    74  H    0.004634
    75  H   -0.033650
    76  H   -0.012666
    77  H   -0.001988
    78  H   -0.018656
    79  H    0.006503
    80  H    0.002210
    81  H   -0.015044
    82  H    0.020651
    83  H   -0.002566
    84  H    0.002642
    85  H   -0.012728
    86  H   -0.037018
    87  H   -0.014924
    88  H    0.002503
    89  H   -0.008267
    90  H   -0.025831
    91  H   -0.014896
    92  H    0.000713
    93  H   -0.005548
    94  H   -0.014414
    95  H   -0.021305
    96  H    0.010969
    97  H    0.007848
    98  H   -0.012997
    99  H    0.039169
   100  H    0.017339
   101  H    0.013311
   102  H    0.015628
   103  H   -0.006158
   104  H   -0.050195
   105  H   -0.027540
   106  H    0.007495
   107  H   -0.016626
   108  H   -0.022855
   109  H   -0.055008
   110  H   -0.024451
   111  H   -0.033556
   112  H   -0.044402
   113  H   -0.050363
   114  H   -0.040698
   115  H   -0.036091
   116  H   -0.019114
   117  H   -0.005740
   118  H   -0.041087
   119  H   -0.039345
   120  H   -0.021482
   121  H   -0.028795
   122  H   -0.036609
   123  H   -0.033360
   124  H   -0.041351
   125  H   -0.023762
   126  H    0.002782
   127  H   -0.003865
   128  H   -0.061601
   129  H   -0.035549
   130  H   -0.030259
   131  H   -0.020251
   132  H   -0.040032
   133  H   -0.032642
   134  H   -0.039451
   135  H   -0.032825
   136  H   -0.007636
   137  H   -0.025246
   138  H   -0.005967
   139  H   -0.043098
   140  H   -0.033684
 Sum of Mulliken charges =  -0.00000

 Dipole moment (field-independent basis, Debye):
    X=              4.3912    Y=              3.2365    Z=             -0.2846  Tot=              5.4624
 Quadrupole moment (field-independent basis, Debye-Ang):
   XX=           -378.2005   YY=           -432.5893   ZZ=           -420.3776
   XY=            -18.4076   XZ=             13.5547   YZ=             -5.2010

 Normal termination of Gaussian 16 at Thu Apr 28 13:29:06 2022.
