 Gaussian 16, Revision A.03,
 Gaussian 16:  ES64L-G16RevA.03 25-Dec-2016

 -----------------------------------
 #p cam-b3lyp/Def2SVP td=(nstates=5)
 -----------------------------------

 --------------------------------------------------------
 step_1551_chromophore_27 TDDFT with cam-b3lyp functional
 --------------------------------------------------------
 Symbolic Z-matrix:
 Charge =  0 Multiplicity = 1

                         Standard orientation:
 ---------------------------------------------------------------------
 Center     Atomic      Atomic             Coordinates (Angstroms)
 Number     Number       Type             X           Y           Z
 ---------------------------------------------------------------------
      1         12           0       -4.422843    0.773659    0.091232
      2          6           0       -3.713794   -2.697114    0.330822
      3          6           0       -1.063203    1.303088    0.542992
      4          6           0       -5.185052    4.029960    0.140872
      5          6           0       -8.031303    0.069889    0.363852
      6          7           0       -2.689072   -0.520318    0.433614
      7          6           0       -2.557022   -1.850687    0.312155
      8          6           0       -1.116370   -2.429068    0.130807
      9          6           0       -0.283166   -1.110703    0.566314
     10          6           0       -1.391623   -0.011131    0.512604
     11          6           0        0.236894   -1.197917    2.039092
     12          6           0       -0.942047   -2.958152   -1.345067
     13          6           0       -0.172706   -4.215111   -1.665227
     14          6           0        1.084168   -4.241850   -2.521564
     15          8           0        1.199931   -4.689294   -3.660667
     16          8           0        2.125937   -3.720224   -1.786283
     17          7           0       -3.321873    2.417714    0.238597
     18          6           0       -1.954653    2.433208    0.462596
     19          6           0       -1.515155    3.841376    0.525233
     20          6           0       -2.648086    4.704203    0.398677
     21          6           0       -3.793079    3.699717    0.218960
     22          6           0       -0.028267    4.231597    0.683152
     23          6           0       -2.701912    6.288533    0.359680
     24          8           0       -3.781258    6.889964    0.346676
     25          6           0       -1.450253    7.093407    0.422129
     26          7           0       -6.383202    1.915846    0.342684
     27          6           0       -6.357317    3.348004    0.250300
     28          6           0       -7.756304    3.899336    0.072175
     29          6           0       -8.642629    2.557604   -0.073005
     30          6           0       -7.687888    1.419349    0.213568
     31          6           0       -8.223239    4.912355    1.150468
     32          6           0       -9.428766    2.292258   -1.373334
     33          6           0      -10.434171    3.423556   -1.941733
     34          7           0       -5.656556   -0.927238    0.216346
     35          6           0       -7.022028   -1.036604    0.417999
     36          6           0       -7.349017   -2.468671    0.532727
     37          6           0       -6.121647   -3.120088    0.516274
     38          6           0       -5.086186   -2.188233    0.338287
     39          6           0       -8.711067   -3.074073    0.554393
     40          6           0       -5.487376   -4.458162    0.485606
     41          8           0       -5.973696   -5.605283    0.596569
     42          6           0       -3.931174   -4.203995    0.334278
     43          6           0       -3.217611   -4.832020    1.399426
     44          8           0       -3.537266   -4.743448    2.577630
     45          8           0       -2.192161   -5.624825    0.951812
     46          6           0       -1.742666   -6.573938    2.061189
     47          6           0        3.421609   -3.889577   -2.305899
     48          6           0        3.990373   -2.498123   -2.541104
     49          6           0        5.276852   -2.090823   -2.485190
     50          6           0        6.461515   -2.994163   -2.126168
     51          6           0        5.799224   -0.682405   -2.660446
     52          6           0        6.530924   -0.269521   -3.920259
     53          6           0        7.830451    0.495215   -3.706804
     54          6           0        7.620906    2.026168   -3.958559
     55          6           0        7.589201    2.342388   -5.446151
     56          6           0        8.786984    2.859687   -3.162297
     57          6           0        8.738253    2.997320   -1.573421
     58          6           0        9.917708    2.399290   -0.732263
     59          6           0        9.376945    1.651683    0.527158
     60          6           0        8.823954    0.209156    0.177925
     61          6           0       10.402045    1.480943    1.636496
     62          6           0        9.936669    1.586054    3.061727
     63          6           0       10.132532    0.181377    3.792251
     64          6           0       10.292666    0.321605    5.345307
     65          6           0       11.201092   -0.695883    5.923284
     66          6           0        8.959658    0.256835    6.065738
     67          1           0        0.015917    1.451687    0.613516
     68          1           0       -5.190111    5.085941    0.418636
     69          1           0       -9.098355   -0.143981    0.456485
     70          1           0       -0.811769   -3.192234    0.846160
     71          1           0        0.475032   -1.110522   -0.216903
     72          1           0        0.215234   -0.299727    2.654919
     73          1           0        1.264318   -1.535440    1.899918
     74          1           0       -0.368646   -1.922768    2.583041
     75          1           0       -0.594660   -2.058966   -1.853434
     76          1           0       -1.900794   -3.051871   -1.854321
     77          1           0       -0.830525   -5.014625   -2.007417
     78          1           0        0.075091   -4.537459   -0.654586
     79          1           0        0.102385    4.923530    1.514681
     80          1           0        0.248577    4.652704   -0.283820
     81          1           0        0.767751    3.494104    0.786598
     82          1           0       -0.988569    6.879854    1.385747
     83          1           0       -1.721675    8.136171    0.258456
     84          1           0       -0.767694    6.860440   -0.394295
     85          1           0       -7.721096    4.494552   -0.839413
     86          1           0       -9.404862    2.575025    0.706912
     87          1           0       -8.727654    5.763377    0.692327
     88          1           0       -7.297572    5.274318    1.596713
     89          1           0       -8.964074    4.588536    1.881657
     90          1           0      -10.076225    1.479756   -1.045045
     91          1           0       -8.799402    1.849141   -2.144415
     92          1           0      -10.518616    3.343284   -3.025425
     93          1           0      -10.184171    4.432925   -1.612384
     94          1           0      -11.455307    3.314026   -1.576288
     95          1           0       -9.454466   -2.398176    0.131380
     96          1           0       -9.011688   -3.306338    1.575582
     97          1           0       -8.770922   -3.974896   -0.056696
     98          1           0       -3.610564   -4.680617   -0.591573
     99          1           0       -2.642493   -7.106457    2.367563
    100          1           0       -1.307523   -5.974045    2.860030
    101          1           0       -0.929747   -7.190320    1.677532
    102          1           0        3.501973   -4.490659   -3.211502
    103          1           0        4.037719   -4.349905   -1.534065
    104          1           0        3.383747   -1.593162   -2.580175
    105          1           0        6.181971   -4.046577   -2.079891
    106          1           0        7.012234   -2.714858   -1.228034
    107          1           0        7.112473   -2.927977   -2.997391
    108          1           0        6.363750   -0.405621   -1.769312
    109          1           0        4.899912   -0.070263   -2.718912
    110          1           0        5.816413    0.220141   -4.581045
    111          1           0        6.897975   -1.156496   -4.437733
    112          1           0        8.651386    0.112191   -4.312831
    113          1           0        8.278791    0.321376   -2.728671
    114          1           0        6.624691    2.298175   -3.608819
    115          1           0        7.800435    1.389053   -5.930062
    116          1           0        8.415235    2.873508   -5.918843
    117          1           0        6.586693    2.690573   -5.696637
    118          1           0        8.851219    3.879874   -3.539901
    119          1           0        9.755463    2.444076   -3.440452
    120          1           0        7.797864    2.605226   -1.187214
    121          1           0        8.779066    4.081744   -1.466409
    122          1           0       10.589734    3.210034   -0.454517
    123          1           0       10.544258    1.715356   -1.305597
    124          1           0        8.561077    2.255285    0.924742
    125          1           0        8.887701   -0.428763    1.059508
    126          1           0        9.412383   -0.274812   -0.601897
    127          1           0        7.771547    0.264242   -0.101262
    128          1           0       11.052189    2.342849    1.482978
    129          1           0       11.031880    0.616141    1.425330
    130          1           0        8.854711    1.719433    3.094167
    131          1           0       10.355986    2.454820    3.569815
    132          1           0       10.889897   -0.427330    3.298978
    133          1           0        9.302175   -0.478884    3.539572
    134          1           0       10.685875    1.304968    5.602930
    135          1           0       12.130334   -0.140416    6.048194
    136          1           0       11.299058   -1.488626    5.181137
    137          1           0       10.904461   -0.887766    6.954082
    138          1           0        8.572520   -0.618533    6.588547
    139          1           0        8.256842    0.547770    5.284899
    140          1           0        8.847286    1.108935    6.736954
 ---------------------------------------------------------------------

 SCF Done:  E(RCAM-B3LYP) =  -3007.12061090     A.U. after   18 cycles

 Excitation energies and oscillator strengths:

 Excited State   1:      Singlet-A      1.6322 eV  759.62 nm  f=0.3734  <S**2>=0.000
     245 -> 248        0.17209
     246 -> 247        0.68827
     245 <- 248        0.10869
 This state for optimization and/or second-order correction.
 Total Energy, E(TD-HF/TD-DFT) =  -3007.06062930
 Copying the excited state density for this state as the 1-particle RhoCI density.

 Excited State   2:      Singlet-A      2.1635 eV  573.07 nm  f=0.1581  <S**2>=0.000
     245 -> 247        0.65448
     246 -> 248       -0.25547

 Excited State   3:      Singlet-A      3.2580 eV  380.55 nm  f=0.0004  <S**2>=0.000
     244 -> 247        0.67870
     246 -> 248        0.11076

 Excited State   4:      Singlet-A      3.4776 eV  356.52 nm  f=0.0216  <S**2>=0.000
     240 -> 247        0.25508
     240 -> 249        0.14223
     240 -> 250        0.10066
     241 -> 247        0.50917
     241 -> 249        0.24993
     241 -> 250        0.18068
     246 -> 248        0.11427

 Excited State   5:      Singlet-A      3.5806 eV  346.26 nm  f=0.5599  <S**2>=0.000
     240 -> 247       -0.11413
     242 -> 247        0.26624
     245 -> 247        0.22597
     246 -> 248        0.58916
     245 <- 247       -0.10260

 The electronic state is 1-A.
 Alpha  occ. eigenvalues --  -46.88871 -19.25590 -19.25342 -19.20580 -19.19601
 Alpha  occ. eigenvalues --  -19.19256 -19.19195 -14.43048 -14.41380 -14.40568
 Alpha  occ. eigenvalues --  -14.39697 -10.40267 -10.38542 -10.36314 -10.35675
 Alpha  occ. eigenvalues --  -10.32298 -10.32271 -10.32264 -10.31291 -10.30994
 Alpha  occ. eigenvalues --  -10.30905 -10.30727 -10.30611 -10.30530 -10.29461
 Alpha  occ. eigenvalues --  -10.29239 -10.29150 -10.28983 -10.28887 -10.28313
 Alpha  occ. eigenvalues --  -10.28217 -10.27959 -10.27949 -10.27813 -10.27781
 Alpha  occ. eigenvalues --  -10.27743 -10.27664 -10.27421 -10.27150 -10.27007
 Alpha  occ. eigenvalues --  -10.26925 -10.26662 -10.26612 -10.26510 -10.26114
 Alpha  occ. eigenvalues --  -10.26007 -10.25862 -10.25792 -10.25692 -10.25562
 Alpha  occ. eigenvalues --  -10.25555 -10.25554 -10.25538 -10.25507 -10.25375
 Alpha  occ. eigenvalues --  -10.25372 -10.25314 -10.25309 -10.25295 -10.25200
 Alpha  occ. eigenvalues --  -10.25185 -10.25111 -10.24497 -10.24267 -10.23909
 Alpha  occ. eigenvalues --  -10.23849  -3.17398  -1.92290  -1.91856  -1.91710
 Alpha  occ. eigenvalues --   -1.17500  -1.15971  -1.09986  -1.08647  -1.08334
 Alpha  occ. eigenvalues --   -1.06875  -1.04181  -1.02506  -1.02291  -1.00299
 Alpha  occ. eigenvalues --   -0.92268  -0.90808  -0.90110  -0.89941  -0.88658
 Alpha  occ. eigenvalues --   -0.88556  -0.88036  -0.87576  -0.87147  -0.86632
 Alpha  occ. eigenvalues --   -0.86034  -0.85895  -0.84489  -0.83540  -0.83278
 Alpha  occ. eigenvalues --   -0.82727  -0.82179  -0.81273  -0.80703  -0.80167
 Alpha  occ. eigenvalues --   -0.79811  -0.78071  -0.77945  -0.77210  -0.76339
 Alpha  occ. eigenvalues --   -0.76084  -0.75860  -0.75383  -0.75133  -0.74400
 Alpha  occ. eigenvalues --   -0.73952  -0.72676  -0.71572  -0.70856  -0.69292
 Alpha  occ. eigenvalues --   -0.68856  -0.68082  -0.67362  -0.67043  -0.65502
 Alpha  occ. eigenvalues --   -0.65244  -0.65136  -0.64392  -0.64070  -0.64053
 Alpha  occ. eigenvalues --   -0.63553  -0.63491  -0.62926  -0.61552  -0.60445
 Alpha  occ. eigenvalues --   -0.59843  -0.59748  -0.58942  -0.58660  -0.58281
 Alpha  occ. eigenvalues --   -0.58180  -0.57137  -0.56306  -0.56053  -0.55527
 Alpha  occ. eigenvalues --   -0.55420  -0.55234  -0.54254  -0.54065  -0.53878
 Alpha  occ. eigenvalues --   -0.53794  -0.53693  -0.53469  -0.53153  -0.53041
 Alpha  occ. eigenvalues --   -0.52580  -0.52374  -0.52267  -0.51799  -0.51648
 Alpha  occ. eigenvalues --   -0.51611  -0.50977  -0.50809  -0.50707  -0.50511
 Alpha  occ. eigenvalues --   -0.50414  -0.50124  -0.50097  -0.49895  -0.49572
 Alpha  occ. eigenvalues --   -0.49444  -0.49308  -0.49224  -0.49008  -0.48874
 Alpha  occ. eigenvalues --   -0.48619  -0.48504  -0.48278  -0.48121  -0.47989
 Alpha  occ. eigenvalues --   -0.47690  -0.47440  -0.47227  -0.47053  -0.46527
 Alpha  occ. eigenvalues --   -0.46337  -0.46277  -0.46264  -0.46171  -0.45870
 Alpha  occ. eigenvalues --   -0.45713  -0.45573  -0.45360  -0.45070  -0.44776
 Alpha  occ. eigenvalues --   -0.44630  -0.44502  -0.44453  -0.44122  -0.43973
 Alpha  occ. eigenvalues --   -0.43905  -0.43739  -0.43479  -0.43281  -0.42978
 Alpha  occ. eigenvalues --   -0.42899  -0.42740  -0.42643  -0.42330  -0.42250
 Alpha  occ. eigenvalues --   -0.42085  -0.42053  -0.41883  -0.41502  -0.41028
 Alpha  occ. eigenvalues --   -0.40789  -0.40782  -0.40600  -0.40245  -0.40052
 Alpha  occ. eigenvalues --   -0.39901  -0.39341  -0.39041  -0.38767  -0.38716
 Alpha  occ. eigenvalues --   -0.38291  -0.37989  -0.37955  -0.37854  -0.37661
 Alpha  occ. eigenvalues --   -0.37358  -0.37105  -0.37021  -0.36743  -0.36415
 Alpha  occ. eigenvalues --   -0.36193  -0.35664  -0.34864  -0.34849  -0.34423
 Alpha  occ. eigenvalues --   -0.34278  -0.34125  -0.32498  -0.31761  -0.31289
 Alpha  occ. eigenvalues --   -0.31030  -0.30635  -0.29942  -0.29743  -0.23928
 Alpha  occ. eigenvalues --   -0.21295
 Alpha virt. eigenvalues --   -0.09143  -0.01567   0.00414   0.01932   0.02514
 Alpha virt. eigenvalues --    0.03793   0.05059   0.05428   0.05634   0.06915
 Alpha virt. eigenvalues --    0.07458   0.08400   0.08622   0.08778   0.09180

 Mulliken charges:
               1
     1  Mg   0.841769
     2  C   -0.005474
     3  C   -0.072868
     4  C   -0.025443
     5  C   -0.072441
     6  N   -0.273715
     7  C   -0.036301
     8  C   -0.064046
     9  C   -0.060150
    10  C    0.041646
    11  C    0.067211
    12  C    0.057677
    13  C    0.106565
    14  C    0.159131
    15  O   -0.222637
    16  O   -0.325399
    17  N   -0.413188
    18  C    0.177951
    19  C   -0.157632
    20  C   -0.052381
    21  C    0.049170
    22  C    0.093543
    23  C    0.026881
    24  O   -0.208336
    25  C    0.065515
    26  N   -0.314944
    27  C    0.046368
    28  C   -0.021717
    29  C    0.013763
    30  C    0.045631
    31  C    0.062273
    32  C    0.012572
    33  C    0.005743
    34  N   -0.367883
    35  C    0.117962
    36  C   -0.188730
    37  C    0.012576
    38  C    0.086837
    39  C    0.121094
    40  C    0.093215
    41  O   -0.191599
    42  C    0.041030
    43  C    0.163327
    44  O   -0.226727
    45  O   -0.361011
    46  C    0.182181
    47  C    0.301977
    48  C   -0.092349
    49  C   -0.211610
    50  C    0.068630
    51  C    0.099960
    52  C    0.034235
    53  C    0.041347
    54  C   -0.117429
    55  C    0.062582
    56  C    0.025660
    57  C    0.019791
    58  C    0.060521
    59  C   -0.156283
    60  C    0.037321
    61  C    0.058955
    62  C    0.049971
    63  C   -0.007496
    64  C   -0.140359
    65  C    0.093963
    66  C    0.043780
    67  H   -0.032536
    68  H    0.010494
    69  H   -0.009082
    70  H    0.019572
    71  H    0.019709
    72  H    0.027772
    73  H    0.025510
    74  H    0.027600
    75  H   -0.000961
    76  H    0.020029
    77  H    0.031063
    78  H    0.015488
    79  H    0.030130
    80  H    0.027111
    81  H    0.013964
    82  H    0.045401
    83  H    0.032427
    84  H    0.030567
    85  H    0.022115
    86  H   -0.001844
    87  H    0.008741
    88  H    0.025979
    89  H    0.016103
    90  H    0.000896
    91  H    0.013973
    92  H    0.024446
    93  H    0.014731
    94  H    0.009014
    95  H    0.003776
    96  H    0.037987
    97  H    0.034835
    98  H    0.030993
    99  H    0.063244
   100  H    0.041577
   101  H    0.037996
   102  H    0.049398
   103  H    0.021026
   104  H   -0.017571
   105  H   -0.003050
   106  H    0.030484
   107  H    0.006831
   108  H    0.001691
   109  H   -0.023755
   110  H    0.004884
   111  H   -0.004008
   112  H   -0.013690
   113  H   -0.025999
   114  H   -0.009919
   115  H   -0.010463
   116  H    0.007610
   117  H    0.018207
   118  H   -0.011056
   119  H   -0.012674
   120  H    0.003730
   121  H    0.001108
   122  H   -0.006437
   123  H   -0.006711
   124  H   -0.009150
   125  H   -0.000773
   126  H    0.023366
   127  H    0.016033
   128  H   -0.028250
   129  H   -0.006544
   130  H   -0.003572
   131  H    0.008198
   132  H   -0.011457
   133  H   -0.005040
   134  H   -0.006689
   135  H   -0.007118
   136  H    0.015589
   137  H    0.001370
   138  H    0.019151
   139  H   -0.018656
   140  H   -0.007090
 Sum of Mulliken charges =  -0.00000

 Dipole moment (field-independent basis, Debye):
    X=              4.7133    Y=              3.2268    Z=             -0.2893  Tot=              5.7194
 Quadrupole moment (field-independent basis, Debye-Ang):
   XX=           -376.5796   YY=           -429.1539   ZZ=           -421.3392
   XY=            -17.5137   XZ=             13.9882   YZ=             -5.7597

 Normal termination of Gaussian 16 at Thu Apr 28 12:33:39 2022.
