 Gaussian 16, Revision A.03,
 Gaussian 16:  ES64L-G16RevA.03 25-Dec-2016

 ---------------------------------
 #p PBE1PBE/Def2SVP td=(nstates=5)
 ---------------------------------

 ------------------------------------------------------
 step_1551_chromophore_27 TDDFT with PBE1PBE functional
 ------------------------------------------------------
 Symbolic Z-matrix:
 Charge =  0 Multiplicity = 1

                         Standard orientation:
 ---------------------------------------------------------------------
 Center     Atomic      Atomic             Coordinates (Angstroms)
 Number     Number       Type             X           Y           Z
 ---------------------------------------------------------------------
      1         12           0       -4.422843    0.773659    0.091232
      2          6           0       -3.713794   -2.697114    0.330822
      3          6           0       -1.063203    1.303088    0.542992
      4          6           0       -5.185052    4.029960    0.140872
      5          6           0       -8.031303    0.069889    0.363852
      6          7           0       -2.689072   -0.520318    0.433614
      7          6           0       -2.557022   -1.850687    0.312155
      8          6           0       -1.116370   -2.429068    0.130807
      9          6           0       -0.283166   -1.110703    0.566314
     10          6           0       -1.391623   -0.011131    0.512604
     11          6           0        0.236894   -1.197917    2.039092
     12          6           0       -0.942047   -2.958152   -1.345067
     13          6           0       -0.172706   -4.215111   -1.665227
     14          6           0        1.084168   -4.241850   -2.521564
     15          8           0        1.199931   -4.689294   -3.660667
     16          8           0        2.125937   -3.720224   -1.786283
     17          7           0       -3.321873    2.417714    0.238597
     18          6           0       -1.954653    2.433208    0.462596
     19          6           0       -1.515155    3.841376    0.525233
     20          6           0       -2.648086    4.704203    0.398677
     21          6           0       -3.793079    3.699717    0.218960
     22          6           0       -0.028267    4.231597    0.683152
     23          6           0       -2.701912    6.288533    0.359680
     24          8           0       -3.781258    6.889964    0.346676
     25          6           0       -1.450253    7.093407    0.422129
     26          7           0       -6.383202    1.915846    0.342684
     27          6           0       -6.357317    3.348004    0.250300
     28          6           0       -7.756304    3.899336    0.072175
     29          6           0       -8.642629    2.557604   -0.073005
     30          6           0       -7.687888    1.419349    0.213568
     31          6           0       -8.223239    4.912355    1.150468
     32          6           0       -9.428766    2.292258   -1.373334
     33          6           0      -10.434171    3.423556   -1.941733
     34          7           0       -5.656556   -0.927238    0.216346
     35          6           0       -7.022028   -1.036604    0.417999
     36          6           0       -7.349017   -2.468671    0.532727
     37          6           0       -6.121647   -3.120088    0.516274
     38          6           0       -5.086186   -2.188233    0.338287
     39          6           0       -8.711067   -3.074073    0.554393
     40          6           0       -5.487376   -4.458162    0.485606
     41          8           0       -5.973696   -5.605283    0.596569
     42          6           0       -3.931174   -4.203995    0.334278
     43          6           0       -3.217611   -4.832020    1.399426
     44          8           0       -3.537266   -4.743448    2.577630
     45          8           0       -2.192161   -5.624825    0.951812
     46          6           0       -1.742666   -6.573938    2.061189
     47          6           0        3.421609   -3.889577   -2.305899
     48          6           0        3.990373   -2.498123   -2.541104
     49          6           0        5.276852   -2.090823   -2.485190
     50          6           0        6.461515   -2.994163   -2.126168
     51          6           0        5.799224   -0.682405   -2.660446
     52          6           0        6.530924   -0.269521   -3.920259
     53          6           0        7.830451    0.495215   -3.706804
     54          6           0        7.620906    2.026168   -3.958559
     55          6           0        7.589201    2.342388   -5.446151
     56          6           0        8.786984    2.859687   -3.162297
     57          6           0        8.738253    2.997320   -1.573421
     58          6           0        9.917708    2.399290   -0.732263
     59          6           0        9.376945    1.651683    0.527158
     60          6           0        8.823954    0.209156    0.177925
     61          6           0       10.402045    1.480943    1.636496
     62          6           0        9.936669    1.586054    3.061727
     63          6           0       10.132532    0.181377    3.792251
     64          6           0       10.292666    0.321605    5.345307
     65          6           0       11.201092   -0.695883    5.923284
     66          6           0        8.959658    0.256835    6.065738
     67          1           0        0.015917    1.451687    0.613516
     68          1           0       -5.190111    5.085941    0.418636
     69          1           0       -9.098355   -0.143981    0.456485
     70          1           0       -0.811769   -3.192234    0.846160
     71          1           0        0.475032   -1.110522   -0.216903
     72          1           0        0.215234   -0.299727    2.654919
     73          1           0        1.264318   -1.535440    1.899918
     74          1           0       -0.368646   -1.922768    2.583041
     75          1           0       -0.594660   -2.058966   -1.853434
     76          1           0       -1.900794   -3.051871   -1.854321
     77          1           0       -0.830525   -5.014625   -2.007417
     78          1           0        0.075091   -4.537459   -0.654586
     79          1           0        0.102385    4.923530    1.514681
     80          1           0        0.248577    4.652704   -0.283820
     81          1           0        0.767751    3.494104    0.786598
     82          1           0       -0.988569    6.879854    1.385747
     83          1           0       -1.721675    8.136171    0.258456
     84          1           0       -0.767694    6.860440   -0.394295
     85          1           0       -7.721096    4.494552   -0.839413
     86          1           0       -9.404862    2.575025    0.706912
     87          1           0       -8.727654    5.763377    0.692327
     88          1           0       -7.297572    5.274318    1.596713
     89          1           0       -8.964074    4.588536    1.881657
     90          1           0      -10.076225    1.479756   -1.045045
     91          1           0       -8.799402    1.849141   -2.144415
     92          1           0      -10.518616    3.343284   -3.025425
     93          1           0      -10.184171    4.432925   -1.612384
     94          1           0      -11.455307    3.314026   -1.576288
     95          1           0       -9.454466   -2.398176    0.131380
     96          1           0       -9.011688   -3.306338    1.575582
     97          1           0       -8.770922   -3.974896   -0.056696
     98          1           0       -3.610564   -4.680617   -0.591573
     99          1           0       -2.642493   -7.106457    2.367563
    100          1           0       -1.307523   -5.974045    2.860030
    101          1           0       -0.929747   -7.190320    1.677532
    102          1           0        3.501973   -4.490659   -3.211502
    103          1           0        4.037719   -4.349905   -1.534065
    104          1           0        3.383747   -1.593162   -2.580175
    105          1           0        6.181971   -4.046577   -2.079891
    106          1           0        7.012234   -2.714858   -1.228034
    107          1           0        7.112473   -2.927977   -2.997391
    108          1           0        6.363750   -0.405621   -1.769312
    109          1           0        4.899912   -0.070263   -2.718912
    110          1           0        5.816413    0.220141   -4.581045
    111          1           0        6.897975   -1.156496   -4.437733
    112          1           0        8.651386    0.112191   -4.312831
    113          1           0        8.278791    0.321376   -2.728671
    114          1           0        6.624691    2.298175   -3.608819
    115          1           0        7.800435    1.389053   -5.930062
    116          1           0        8.415235    2.873508   -5.918843
    117          1           0        6.586693    2.690573   -5.696637
    118          1           0        8.851219    3.879874   -3.539901
    119          1           0        9.755463    2.444076   -3.440452
    120          1           0        7.797864    2.605226   -1.187214
    121          1           0        8.779066    4.081744   -1.466409
    122          1           0       10.589734    3.210034   -0.454517
    123          1           0       10.544258    1.715356   -1.305597
    124          1           0        8.561077    2.255285    0.924742
    125          1           0        8.887701   -0.428763    1.059508
    126          1           0        9.412383   -0.274812   -0.601897
    127          1           0        7.771547    0.264242   -0.101262
    128          1           0       11.052189    2.342849    1.482978
    129          1           0       11.031880    0.616141    1.425330
    130          1           0        8.854711    1.719433    3.094167
    131          1           0       10.355986    2.454820    3.569815
    132          1           0       10.889897   -0.427330    3.298978
    133          1           0        9.302175   -0.478884    3.539572
    134          1           0       10.685875    1.304968    5.602930
    135          1           0       12.130334   -0.140416    6.048194
    136          1           0       11.299058   -1.488626    5.181137
    137          1           0       10.904461   -0.887766    6.954082
    138          1           0        8.572520   -0.618533    6.588547
    139          1           0        8.256842    0.547770    5.284899
    140          1           0        8.847286    1.108935    6.736954
 ---------------------------------------------------------------------

 SCF Done:  E(RPBE1PBE) =  -3005.30959399     A.U. after   16 cycles

 Excitation energies and oscillator strengths:

 Excited State   1:      Singlet-A      1.8033 eV  687.53 nm  f=0.3631  <S**2>=0.000
     245 -> 248        0.16304
     246 -> 247        0.69566
     246 <- 247       -0.11452
 This state for optimization and/or second-order correction.
 Total Energy, E(TD-HF/TD-DFT) =  -3005.24332303
 Copying the excited state density for this state as the 1-particle RhoCI density.

 Excited State   2:      Singlet-A      2.1826 eV  568.05 nm  f=0.1462  <S**2>=0.000
     245 -> 247        0.66117
     246 -> 248       -0.23526

 Excited State   3:      Singlet-A      2.9527 eV  419.90 nm  f=0.0024  <S**2>=0.000
     242 -> 247        0.30021
     243 -> 247        0.61976

 Excited State   4:      Singlet-A      3.0077 eV  412.23 nm  f=0.0027  <S**2>=0.000
     242 -> 247        0.60235
     242 -> 249        0.13447
     243 -> 247       -0.30738

 Excited State   5:      Singlet-A      3.2471 eV  381.83 nm  f=0.0123  <S**2>=0.000
     239 -> 247       -0.10908
     240 -> 247       -0.11201
     241 -> 247        0.67218

 The electronic state is 1-A.
 Alpha  occ. eigenvalues --  -46.92294 -19.26300 -19.25918 -19.20878 -19.19894
 Alpha  occ. eigenvalues --  -19.19434 -19.19361 -14.42516 -14.40985 -14.40243
 Alpha  occ. eigenvalues --  -14.39361 -10.37301 -10.35472 -10.33537 -10.32798
 Alpha  occ. eigenvalues --  -10.29951 -10.29706 -10.29440 -10.29093 -10.28684
 Alpha  occ. eigenvalues --  -10.28603 -10.28530 -10.28462 -10.28309 -10.27123
 Alpha  occ. eigenvalues --  -10.27058 -10.26945 -10.26799 -10.26729 -10.26190
 Alpha  occ. eigenvalues --  -10.25760 -10.25607 -10.25584 -10.25561 -10.25550
 Alpha  occ. eigenvalues --  -10.25508 -10.25139 -10.24912 -10.24780 -10.24667
 Alpha  occ. eigenvalues --  -10.24580 -10.24229 -10.24112 -10.23992 -10.23729
 Alpha  occ. eigenvalues --  -10.23576 -10.23432 -10.23287 -10.23159 -10.23123
 Alpha  occ. eigenvalues --  -10.23109 -10.23101 -10.23091 -10.23065 -10.22958
 Alpha  occ. eigenvalues --  -10.22934 -10.22923 -10.22906 -10.22888 -10.22830
 Alpha  occ. eigenvalues --  -10.22684 -10.22632 -10.21896 -10.21840 -10.21297
 Alpha  occ. eigenvalues --  -10.21215  -3.14401  -1.87233  -1.86777  -1.86636
 Alpha  occ. eigenvalues --   -1.12350  -1.10649  -1.04780  -1.03521  -1.02995
 Alpha  occ. eigenvalues --   -1.01627  -0.98755  -0.97226  -0.96912  -0.94878
 Alpha  occ. eigenvalues --   -0.86546  -0.84942  -0.84228  -0.84109  -0.82915
 Alpha  occ. eigenvalues --   -0.82764  -0.82187  -0.81896  -0.81457  -0.80921
 Alpha  occ. eigenvalues --   -0.80305  -0.80172  -0.78661  -0.77810  -0.77501
 Alpha  occ. eigenvalues --   -0.76977  -0.76404  -0.75520  -0.75004  -0.74408
 Alpha  occ. eigenvalues --   -0.74085  -0.72345  -0.72239  -0.71472  -0.70613
 Alpha  occ. eigenvalues --   -0.70232  -0.69953  -0.69538  -0.69487  -0.68616
 Alpha  occ. eigenvalues --   -0.68259  -0.67106  -0.65961  -0.65201  -0.63690
 Alpha  occ. eigenvalues --   -0.63095  -0.62562  -0.61632  -0.61467  -0.60014
 Alpha  occ. eigenvalues --   -0.59632  -0.59531  -0.58822  -0.58562  -0.58188
 Alpha  occ. eigenvalues --   -0.58050  -0.57741  -0.57132  -0.56084  -0.54933
 Alpha  occ. eigenvalues --   -0.54473  -0.54128  -0.53494  -0.53084  -0.52866
 Alpha  occ. eigenvalues --   -0.52658  -0.51710  -0.50903  -0.50611  -0.50025
 Alpha  occ. eigenvalues --   -0.49947  -0.49799  -0.48739  -0.48486  -0.48374
 Alpha  occ. eigenvalues --   -0.48303  -0.48133  -0.47956  -0.47812  -0.47494
 Alpha  occ. eigenvalues --   -0.47025  -0.46959  -0.46876  -0.46461  -0.46216
 Alpha  occ. eigenvalues --   -0.46145  -0.45501  -0.45333  -0.45263  -0.45108
 Alpha  occ. eigenvalues --   -0.44993  -0.44708  -0.44663  -0.44474  -0.44166
 Alpha  occ. eigenvalues --   -0.44016  -0.43893  -0.43746  -0.43619  -0.43491
 Alpha  occ. eigenvalues --   -0.43236  -0.43145  -0.42924  -0.42797  -0.42698
 Alpha  occ. eigenvalues --   -0.42364  -0.42110  -0.41871  -0.41755  -0.41141
 Alpha  occ. eigenvalues --   -0.41018  -0.40935  -0.40923  -0.40870  -0.40615
 Alpha  occ. eigenvalues --   -0.40323  -0.40302  -0.40121  -0.39771  -0.39632
 Alpha  occ. eigenvalues --   -0.39409  -0.39225  -0.39135  -0.38866  -0.38758
 Alpha  occ. eigenvalues --   -0.38620  -0.38526  -0.38281  -0.38031  -0.37898
 Alpha  occ. eigenvalues --   -0.37606  -0.37569  -0.37352  -0.37172  -0.37051
 Alpha  occ. eigenvalues --   -0.36905  -0.36805  -0.36711  -0.36409  -0.35901
 Alpha  occ. eigenvalues --   -0.35696  -0.35601  -0.35397  -0.35237  -0.34825
 Alpha  occ. eigenvalues --   -0.34791  -0.34149  -0.33845  -0.33674  -0.33555
 Alpha  occ. eigenvalues --   -0.33090  -0.32880  -0.32815  -0.32759  -0.32703
 Alpha  occ. eigenvalues --   -0.32193  -0.32117  -0.31936  -0.31714  -0.31277
 Alpha  occ. eigenvalues --   -0.31227  -0.30483  -0.29838  -0.29739  -0.29420
 Alpha  occ. eigenvalues --   -0.29407  -0.28897  -0.28078  -0.27032  -0.26488
 Alpha  occ. eigenvalues --   -0.26273  -0.25890  -0.25325  -0.25241  -0.20891
 Alpha  occ. eigenvalues --   -0.18921
 Alpha virt. eigenvalues --   -0.11530  -0.05189  -0.03861  -0.02450  -0.00767
 Alpha virt. eigenvalues --   -0.00281   0.00440   0.01026   0.01240   0.02769
 Alpha virt. eigenvalues --    0.03985   0.04123   0.05335   0.05402   0.05779

 Mulliken charges:
               1
     1  Mg   0.990925
     2  C   -0.008602
     3  C   -0.059277
     4  C   -0.025486
     5  C   -0.062091
     6  N   -0.376591
     7  C    0.019812
     8  C   -0.119826
     9  C   -0.137035
    10  C    0.065062
    11  C    0.012402
    12  C    0.015280
    13  C    0.025485
    14  C    0.225764
    15  O   -0.257241
    16  O   -0.355146
    17  N   -0.533801
    18  C    0.204558
    19  C   -0.190725
    20  C   -0.092801
    21  C    0.083257
    22  C    0.035605
    23  C    0.072369
    24  O   -0.243846
    25  C   -0.007067
    26  N   -0.403724
    27  C    0.077321
    28  C   -0.096314
    29  C   -0.058286
    30  C    0.080192
    31  C    0.005301
    32  C   -0.052071
    33  C   -0.064238
    34  N   -0.489526
    35  C    0.143986
    36  C   -0.215741
    37  C   -0.034812
    38  C    0.137381
    39  C    0.067909
    40  C    0.186260
    41  O   -0.236793
    42  C   -0.074046
    43  C    0.259610
    44  O   -0.260392
    45  O   -0.392862
    46  C    0.124323
    47  C    0.259517
    48  C   -0.108162
    49  C   -0.245761
    50  C    0.006513
    51  C    0.021820
    52  C   -0.026801
    53  C   -0.021362
    54  C   -0.205586
    55  C    0.006999
    56  C   -0.024934
    57  C   -0.046221
    58  C    0.009581
    59  C   -0.242407
    60  C   -0.028497
    61  C   -0.001745
    62  C   -0.007869
    63  C   -0.064389
    64  C   -0.231007
    65  C    0.029978
    66  C   -0.018010
    67  H   -0.000283
    68  H    0.042182
    69  H    0.021354
    70  H    0.056264
    71  H    0.054718
    72  H    0.055152
    73  H    0.053928
    74  H    0.054751
    75  H    0.031568
    76  H    0.053085
    77  H    0.062576
    78  H    0.049988
    79  H    0.057500
    80  H    0.055518
    81  H    0.040300
    82  H    0.072036
    83  H    0.059963
    84  H    0.057386
    85  H    0.059352
    86  H    0.036032
    87  H    0.035883
    88  H    0.054234
    89  H    0.042745
    90  H    0.035806
    91  H    0.046131
    92  H    0.051912
    93  H    0.042475
    94  H    0.036395
    95  H    0.030173
    96  H    0.065473
    97  H    0.061670
    98  H    0.068766
    99  H    0.084810
   100  H    0.063094
   101  H    0.059132
   102  H    0.075608
   103  H    0.048394
   104  H    0.012582
   105  H    0.024777
   106  H    0.057367
   107  H    0.036168
   108  H    0.042251
   109  H    0.010024
   110  H    0.036607
   111  H    0.029456
   112  H    0.018359
   113  H    0.015960
   114  H    0.028627
   115  H    0.017514
   116  H    0.034133
   117  H    0.044750
   118  H    0.021332
   119  H    0.019825
   120  H    0.035805
   121  H    0.034720
   122  H    0.025452
   123  H    0.024619
   124  H    0.029097
   125  H    0.030881
   126  H    0.048604
   127  H    0.046819
   128  H    0.007301
   129  H    0.025769
   130  H    0.029068
   131  H    0.038447
   132  H    0.019765
   133  H    0.027664
   134  H    0.030913
   135  H    0.022116
   136  H    0.042785
   137  H    0.029799
   138  H    0.045407
   139  H    0.011359
   140  H    0.021688
 Sum of Mulliken charges =  -0.00000

 Dipole moment (field-independent basis, Debye):
    X=              4.7247    Y=              3.4620    Z=             -0.3263  Tot=              5.8664
 Quadrupole moment (field-independent basis, Debye-Ang):
   XX=           -370.6413   YY=           -426.2271   ZZ=           -419.0244
   XY=            -18.9320   XZ=             14.1652   YZ=             -5.6161

 Normal termination of Gaussian 16 at Thu Apr 28 12:52:41 2022.
