 Gaussian 16, Revision A.03,
 Gaussian 16:  ES64L-G16RevA.03 25-Dec-2016

 --------------------------------
 #p wB97XD/Def2SVP td=(nstates=5)
 --------------------------------

 -----------------------------------------------------
 step_1551_chromophore_27 TDDFT with wB97XD functional
 -----------------------------------------------------
 Symbolic Z-matrix:
 Charge =  0 Multiplicity = 1

                         Standard orientation:
 ---------------------------------------------------------------------
 Center     Atomic      Atomic             Coordinates (Angstroms)
 Number     Number       Type             X           Y           Z
 ---------------------------------------------------------------------
      1         12           0       -4.422843    0.773659    0.091232
      2          6           0       -3.713794   -2.697114    0.330822
      3          6           0       -1.063203    1.303088    0.542992
      4          6           0       -5.185052    4.029960    0.140872
      5          6           0       -8.031303    0.069889    0.363852
      6          7           0       -2.689072   -0.520318    0.433614
      7          6           0       -2.557022   -1.850687    0.312155
      8          6           0       -1.116370   -2.429068    0.130807
      9          6           0       -0.283166   -1.110703    0.566314
     10          6           0       -1.391623   -0.011131    0.512604
     11          6           0        0.236894   -1.197917    2.039092
     12          6           0       -0.942047   -2.958152   -1.345067
     13          6           0       -0.172706   -4.215111   -1.665227
     14          6           0        1.084168   -4.241850   -2.521564
     15          8           0        1.199931   -4.689294   -3.660667
     16          8           0        2.125937   -3.720224   -1.786283
     17          7           0       -3.321873    2.417714    0.238597
     18          6           0       -1.954653    2.433208    0.462596
     19          6           0       -1.515155    3.841376    0.525233
     20          6           0       -2.648086    4.704203    0.398677
     21          6           0       -3.793079    3.699717    0.218960
     22          6           0       -0.028267    4.231597    0.683152
     23          6           0       -2.701912    6.288533    0.359680
     24          8           0       -3.781258    6.889964    0.346676
     25          6           0       -1.450253    7.093407    0.422129
     26          7           0       -6.383202    1.915846    0.342684
     27          6           0       -6.357317    3.348004    0.250300
     28          6           0       -7.756304    3.899336    0.072175
     29          6           0       -8.642629    2.557604   -0.073005
     30          6           0       -7.687888    1.419349    0.213568
     31          6           0       -8.223239    4.912355    1.150468
     32          6           0       -9.428766    2.292258   -1.373334
     33          6           0      -10.434171    3.423556   -1.941733
     34          7           0       -5.656556   -0.927238    0.216346
     35          6           0       -7.022028   -1.036604    0.417999
     36          6           0       -7.349017   -2.468671    0.532727
     37          6           0       -6.121647   -3.120088    0.516274
     38          6           0       -5.086186   -2.188233    0.338287
     39          6           0       -8.711067   -3.074073    0.554393
     40          6           0       -5.487376   -4.458162    0.485606
     41          8           0       -5.973696   -5.605283    0.596569
     42          6           0       -3.931174   -4.203995    0.334278
     43          6           0       -3.217611   -4.832020    1.399426
     44          8           0       -3.537266   -4.743448    2.577630
     45          8           0       -2.192161   -5.624825    0.951812
     46          6           0       -1.742666   -6.573938    2.061189
     47          6           0        3.421609   -3.889577   -2.305899
     48          6           0        3.990373   -2.498123   -2.541104
     49          6           0        5.276852   -2.090823   -2.485190
     50          6           0        6.461515   -2.994163   -2.126168
     51          6           0        5.799224   -0.682405   -2.660446
     52          6           0        6.530924   -0.269521   -3.920259
     53          6           0        7.830451    0.495215   -3.706804
     54          6           0        7.620906    2.026168   -3.958559
     55          6           0        7.589201    2.342388   -5.446151
     56          6           0        8.786984    2.859687   -3.162297
     57          6           0        8.738253    2.997320   -1.573421
     58          6           0        9.917708    2.399290   -0.732263
     59          6           0        9.376945    1.651683    0.527158
     60          6           0        8.823954    0.209156    0.177925
     61          6           0       10.402045    1.480943    1.636496
     62          6           0        9.936669    1.586054    3.061727
     63          6           0       10.132532    0.181377    3.792251
     64          6           0       10.292666    0.321605    5.345307
     65          6           0       11.201092   -0.695883    5.923284
     66          6           0        8.959658    0.256835    6.065738
     67          1           0        0.015917    1.451687    0.613516
     68          1           0       -5.190111    5.085941    0.418636
     69          1           0       -9.098355   -0.143981    0.456485
     70          1           0       -0.811769   -3.192234    0.846160
     71          1           0        0.475032   -1.110522   -0.216903
     72          1           0        0.215234   -0.299727    2.654919
     73          1           0        1.264318   -1.535440    1.899918
     74          1           0       -0.368646   -1.922768    2.583041
     75          1           0       -0.594660   -2.058966   -1.853434
     76          1           0       -1.900794   -3.051871   -1.854321
     77          1           0       -0.830525   -5.014625   -2.007417
     78          1           0        0.075091   -4.537459   -0.654586
     79          1           0        0.102385    4.923530    1.514681
     80          1           0        0.248577    4.652704   -0.283820
     81          1           0        0.767751    3.494104    0.786598
     82          1           0       -0.988569    6.879854    1.385747
     83          1           0       -1.721675    8.136171    0.258456
     84          1           0       -0.767694    6.860440   -0.394295
     85          1           0       -7.721096    4.494552   -0.839413
     86          1           0       -9.404862    2.575025    0.706912
     87          1           0       -8.727654    5.763377    0.692327
     88          1           0       -7.297572    5.274318    1.596713
     89          1           0       -8.964074    4.588536    1.881657
     90          1           0      -10.076225    1.479756   -1.045045
     91          1           0       -8.799402    1.849141   -2.144415
     92          1           0      -10.518616    3.343284   -3.025425
     93          1           0      -10.184171    4.432925   -1.612384
     94          1           0      -11.455307    3.314026   -1.576288
     95          1           0       -9.454466   -2.398176    0.131380
     96          1           0       -9.011688   -3.306338    1.575582
     97          1           0       -8.770922   -3.974896   -0.056696
     98          1           0       -3.610564   -4.680617   -0.591573
     99          1           0       -2.642493   -7.106457    2.367563
    100          1           0       -1.307523   -5.974045    2.860030
    101          1           0       -0.929747   -7.190320    1.677532
    102          1           0        3.501973   -4.490659   -3.211502
    103          1           0        4.037719   -4.349905   -1.534065
    104          1           0        3.383747   -1.593162   -2.580175
    105          1           0        6.181971   -4.046577   -2.079891
    106          1           0        7.012234   -2.714858   -1.228034
    107          1           0        7.112473   -2.927977   -2.997391
    108          1           0        6.363750   -0.405621   -1.769312
    109          1           0        4.899912   -0.070263   -2.718912
    110          1           0        5.816413    0.220141   -4.581045
    111          1           0        6.897975   -1.156496   -4.437733
    112          1           0        8.651386    0.112191   -4.312831
    113          1           0        8.278791    0.321376   -2.728671
    114          1           0        6.624691    2.298175   -3.608819
    115          1           0        7.800435    1.389053   -5.930062
    116          1           0        8.415235    2.873508   -5.918843
    117          1           0        6.586693    2.690573   -5.696637
    118          1           0        8.851219    3.879874   -3.539901
    119          1           0        9.755463    2.444076   -3.440452
    120          1           0        7.797864    2.605226   -1.187214
    121          1           0        8.779066    4.081744   -1.466409
    122          1           0       10.589734    3.210034   -0.454517
    123          1           0       10.544258    1.715356   -1.305597
    124          1           0        8.561077    2.255285    0.924742
    125          1           0        8.887701   -0.428763    1.059508
    126          1           0        9.412383   -0.274812   -0.601897
    127          1           0        7.771547    0.264242   -0.101262
    128          1           0       11.052189    2.342849    1.482978
    129          1           0       11.031880    0.616141    1.425330
    130          1           0        8.854711    1.719433    3.094167
    131          1           0       10.355986    2.454820    3.569815
    132          1           0       10.889897   -0.427330    3.298978
    133          1           0        9.302175   -0.478884    3.539572
    134          1           0       10.685875    1.304968    5.602930
    135          1           0       12.130334   -0.140416    6.048194
    136          1           0       11.299058   -1.488626    5.181137
    137          1           0       10.904461   -0.887766    6.954082
    138          1           0        8.572520   -0.618533    6.588547
    139          1           0        8.256842    0.547770    5.284899
    140          1           0        8.847286    1.108935    6.736954
 ---------------------------------------------------------------------

 SCF Done:  E(RwB97XD) =  -3007.81861667     A.U. after   20 cycles

 Excitation energies and oscillator strengths:

 Excited State   1:      Singlet-A      1.5706 eV  789.42 nm  f=0.3721  <S**2>=0.000
     245 -> 248        0.17845
     246 -> 247        0.68598
     245 <- 248        0.11881
 This state for optimization and/or second-order correction.
 Total Energy, E(TD-HF/TD-DFT) =  -3007.76089920
 Copying the excited state density for this state as the 1-particle RhoCI density.

 Excited State   2:      Singlet-A      2.1076 eV  588.28 nm  f=0.1539  <S**2>=0.000
     245 -> 247        0.65233
     246 -> 248       -0.25931

 Excited State   3:      Singlet-A      3.2681 eV  379.38 nm  f=0.0004  <S**2>=0.000
     244 -> 247        0.67247
     246 -> 248        0.12784

 Excited State   4:      Singlet-A      3.5059 eV  353.65 nm  f=0.0258  <S**2>=0.000
     240 -> 247       -0.14080
     241 -> 247        0.53578
     241 -> 249        0.29019
     241 -> 250       -0.20437
     246 -> 248        0.11942

 Excited State   5:      Singlet-A      3.6033 eV  344.09 nm  f=0.6171  <S**2>=0.000
     242 -> 247        0.24810
     245 -> 247        0.23511
     246 -> 248        0.59262
     245 <- 247       -0.11039

 The electronic state is 1-A.
 Alpha  occ. eigenvalues --  -46.95208 -19.30867 -19.30562 -19.25568 -19.24611
 Alpha  occ. eigenvalues --  -19.24373 -19.24148 -14.47673 -14.46019 -14.45153
 Alpha  occ. eigenvalues --  -14.44324 -10.44116 -10.42379 -10.40278 -10.39767
 Alpha  occ. eigenvalues --  -10.36335 -10.36202 -10.36033 -10.35326 -10.35100
 Alpha  occ. eigenvalues --  -10.34946 -10.34748 -10.34634 -10.34545 -10.33538
 Alpha  occ. eigenvalues --  -10.33343 -10.33281 -10.33175 -10.32951 -10.32417
 Alpha  occ. eigenvalues --  -10.32266 -10.32127 -10.31941 -10.31900 -10.31826
 Alpha  occ. eigenvalues --  -10.31778 -10.31592 -10.31347 -10.31183 -10.31021
 Alpha  occ. eigenvalues --  -10.30888 -10.30515 -10.30512 -10.30475 -10.30002
 Alpha  occ. eigenvalues --  -10.29958 -10.29818 -10.29690 -10.29583 -10.29540
 Alpha  occ. eigenvalues --  -10.29514 -10.29476 -10.29471 -10.29401 -10.29396
 Alpha  occ. eigenvalues --  -10.29314 -10.29298 -10.29253 -10.29249 -10.29113
 Alpha  occ. eigenvalues --  -10.29078 -10.29065 -10.28326 -10.28193 -10.27718
 Alpha  occ. eigenvalues --  -10.27640  -3.21183  -1.94764  -1.94308  -1.94159
 Alpha  occ. eigenvalues --   -1.19735  -1.18135  -1.12182  -1.10881  -1.10610
 Alpha  occ. eigenvalues --   -1.09089  -1.06190  -1.04526  -1.04350  -1.02293
 Alpha  occ. eigenvalues --   -0.94268  -0.92623  -0.91892  -0.91772  -0.90499
 Alpha  occ. eigenvalues --   -0.90421  -0.89843  -0.89489  -0.89022  -0.88547
 Alpha  occ. eigenvalues --   -0.87998  -0.87813  -0.86323  -0.85468  -0.85174
 Alpha  occ. eigenvalues --   -0.84617  -0.84074  -0.83162  -0.82644  -0.82050
 Alpha  occ. eigenvalues --   -0.81735  -0.79982  -0.79894  -0.79129  -0.78274
 Alpha  occ. eigenvalues --   -0.77925  -0.77635  -0.77192  -0.77082  -0.76259
 Alpha  occ. eigenvalues --   -0.75874  -0.74683  -0.73516  -0.72796  -0.71234
 Alpha  occ. eigenvalues --   -0.70734  -0.70130  -0.69249  -0.69023  -0.67506
 Alpha  occ. eigenvalues --   -0.67133  -0.67119  -0.66352  -0.66021  -0.65878
 Alpha  occ. eigenvalues --   -0.65486  -0.65388  -0.64761  -0.63579  -0.62414
 Alpha  occ. eigenvalues --   -0.61847  -0.61661  -0.60929  -0.60597  -0.60259
 Alpha  occ. eigenvalues --   -0.60167  -0.59154  -0.58287  -0.58014  -0.57457
 Alpha  occ. eigenvalues --   -0.57370  -0.57214  -0.56190  -0.55923  -0.55800
 Alpha  occ. eigenvalues --   -0.55710  -0.55562  -0.55370  -0.55077  -0.54993
 Alpha  occ. eigenvalues --   -0.54433  -0.54313  -0.54203  -0.53753  -0.53563
 Alpha  occ. eigenvalues --   -0.53519  -0.52866  -0.52746  -0.52630  -0.52441
 Alpha  occ. eigenvalues --   -0.52322  -0.52037  -0.52000  -0.51788  -0.51497
 Alpha  occ. eigenvalues --   -0.51355  -0.51249  -0.51132  -0.50963  -0.50773
 Alpha  occ. eigenvalues --   -0.50520  -0.50404  -0.50178  -0.50033  -0.49915
 Alpha  occ. eigenvalues --   -0.49621  -0.49369  -0.49112  -0.48979  -0.48391
 Alpha  occ. eigenvalues --   -0.48259  -0.48230  -0.48157  -0.48084  -0.47807
 Alpha  occ. eigenvalues --   -0.47557  -0.47512  -0.47311  -0.46951  -0.46700
 Alpha  occ. eigenvalues --   -0.46558  -0.46449  -0.46334  -0.46069  -0.45912
 Alpha  occ. eigenvalues --   -0.45787  -0.45677  -0.45415  -0.45166  -0.44903
 Alpha  occ. eigenvalues --   -0.44772  -0.44676  -0.44653  -0.44319  -0.44169
 Alpha  occ. eigenvalues --   -0.44004  -0.43932  -0.43826  -0.43461  -0.42927
 Alpha  occ. eigenvalues --   -0.42712  -0.42698  -0.42482  -0.42220  -0.41897
 Alpha  occ. eigenvalues --   -0.41812  -0.41213  -0.40908  -0.40637  -0.40603
 Alpha  occ. eigenvalues --   -0.40135  -0.39840  -0.39820  -0.39792  -0.39562
 Alpha  occ. eigenvalues --   -0.39238  -0.39152  -0.39003  -0.38758  -0.38279
 Alpha  occ. eigenvalues --   -0.38226  -0.37506  -0.36813  -0.36688  -0.36286
 Alpha  occ. eigenvalues --   -0.36265  -0.36077  -0.34752  -0.33768  -0.33390
 Alpha  occ. eigenvalues --   -0.33079  -0.32805  -0.31984  -0.31952  -0.25841
 Alpha  occ. eigenvalues --   -0.23097
 Alpha virt. eigenvalues --   -0.07504   0.00353   0.02443   0.04036   0.05608
 Alpha virt. eigenvalues --    0.06029   0.07165   0.07739   0.07913   0.09498
 Alpha virt. eigenvalues --    0.10272   0.10903   0.12009   0.12139   0.12541

 Mulliken charges:
               1
     1  Mg   0.980519
     2  C   -0.017731
     3  C   -0.077571
     4  C   -0.035050
     5  C   -0.083524
     6  N   -0.342509
     7  C   -0.002026
     8  C   -0.098821
     9  C   -0.110384
    10  C    0.055384
    11  C    0.020277
    12  C    0.020131
    13  C    0.045677
    14  C    0.216428
    15  O   -0.254974
    16  O   -0.354274
    17  N   -0.501447
    18  C    0.193834
    19  C   -0.177774
    20  C   -0.091719
    21  C    0.073531
    22  C    0.047349
    23  C    0.071228
    24  O   -0.239319
    25  C    0.003426
    26  N   -0.377346
    27  C    0.068813
    28  C   -0.075683
    29  C   -0.033958
    30  C    0.070940
    31  C    0.016705
    32  C   -0.036424
    33  C   -0.047430
    34  N   -0.455159
    35  C    0.136841
    36  C   -0.207793
    37  C   -0.029635
    38  C    0.122083
    39  C    0.078838
    40  C    0.167769
    41  O   -0.226397
    42  C   -0.031182
    43  C    0.233923
    44  O   -0.255665
    45  O   -0.391650
    46  C    0.140930
    47  C    0.272988
    48  C   -0.114657
    49  C   -0.236129
    50  C    0.021118
    51  C    0.057100
    52  C   -0.015959
    53  C    0.008902
    54  C   -0.175679
    55  C    0.013332
    56  C   -0.009864
    57  C   -0.028296
    58  C    0.020848
    59  C   -0.210071
    60  C   -0.011396
    61  C    0.017840
    62  C    0.005509
    63  C   -0.046316
    64  C   -0.200663
    65  C    0.040973
    66  C   -0.006986
    67  H   -0.007485
    68  H    0.032698
    69  H    0.016612
    70  H    0.040779
    71  H    0.046270
    72  H    0.049927
    73  H    0.048589
    74  H    0.048277
    75  H    0.023456
    76  H    0.044502
    77  H    0.058707
    78  H    0.041404
    79  H    0.051408
    80  H    0.048682
    81  H    0.037023
    82  H    0.066093
    83  H    0.058654
    84  H    0.052159
    85  H    0.049502
    86  H    0.025294
    87  H    0.030166
    88  H    0.047363
    89  H    0.037516
    90  H    0.025023
    91  H    0.038806
    92  H    0.046733
    93  H    0.034977
    94  H    0.030504
    95  H    0.024577
    96  H    0.061608
    97  H    0.058169
    98  H    0.061816
    99  H    0.080810
   100  H    0.058794
   101  H    0.056696
   102  H    0.072336
   103  H    0.042215
   104  H    0.007966
   105  H    0.018694
   106  H    0.052634
   107  H    0.027829
   108  H    0.021279
   109  H    0.001299
   110  H    0.029458
   111  H    0.020154
   112  H    0.010379
   113  H   -0.009580
   114  H    0.016123
   115  H    0.009500
   116  H    0.029970
   117  H    0.040760
   118  H    0.013876
   119  H    0.009483
   120  H    0.024150
   121  H    0.027919
   122  H    0.018122
   123  H    0.014641
   124  H    0.015695
   125  H    0.021404
   126  H    0.042745
   127  H    0.037258
   128  H   -0.002373
   129  H    0.015473
   130  H    0.018247
   131  H    0.032313
   132  H    0.009057
   133  H    0.016599
   134  H    0.019932
   135  H    0.016121
   136  H    0.036953
   137  H    0.024178
   138  H    0.041049
   139  H    0.001929
   140  H    0.016331
 Sum of Mulliken charges =  -0.00000

 Dipole moment (field-independent basis, Debye):
    X=              4.7568    Y=              3.2232    Z=             -0.3129  Tot=              5.7545
 Quadrupole moment (field-independent basis, Debye-Ang):
   XX=           -371.0201   YY=           -424.8600   ZZ=           -418.6856
   XY=            -17.4061   XZ=             14.3523   YZ=             -6.0268

 Normal termination of Gaussian 16 at Thu Apr 28 13:17:25 2022.
