 Gaussian 16, Revision A.03,
 Gaussian 16:  ES64L-G16RevA.03 25-Dec-2016

 --------------------
 #p ZINDO=(nstates=5)
 --------------------

 ------------------------------
 step_1551_chromophore_27 ZINDO
 ------------------------------
 Symbolic Z-matrix:
 Charge =  0 Multiplicity = 1

                         Standard orientation:
 ---------------------------------------------------------------------
 Center     Atomic      Atomic             Coordinates (Angstroms)
 Number     Number       Type             X           Y           Z
 ---------------------------------------------------------------------
      1         12           0       -4.422843    0.773659    0.091232
      2          6           0       -3.713794   -2.697114    0.330822
      3          6           0       -1.063203    1.303088    0.542992
      4          6           0       -5.185052    4.029960    0.140872
      5          6           0       -8.031303    0.069889    0.363852
      6          7           0       -2.689072   -0.520318    0.433614
      7          6           0       -2.557022   -1.850687    0.312155
      8          6           0       -1.116370   -2.429068    0.130807
      9          6           0       -0.283166   -1.110703    0.566314
     10          6           0       -1.391623   -0.011131    0.512604
     11          6           0        0.236894   -1.197917    2.039092
     12          6           0       -0.942047   -2.958152   -1.345067
     13          6           0       -0.172706   -4.215111   -1.665227
     14          6           0        1.084168   -4.241850   -2.521564
     15          8           0        1.199931   -4.689294   -3.660667
     16          8           0        2.125937   -3.720224   -1.786283
     17          7           0       -3.321873    2.417714    0.238597
     18          6           0       -1.954653    2.433208    0.462596
     19          6           0       -1.515155    3.841376    0.525233
     20          6           0       -2.648086    4.704203    0.398677
     21          6           0       -3.793079    3.699717    0.218960
     22          6           0       -0.028267    4.231597    0.683152
     23          6           0       -2.701912    6.288533    0.359680
     24          8           0       -3.781258    6.889964    0.346676
     25          6           0       -1.450253    7.093407    0.422129
     26          7           0       -6.383202    1.915846    0.342684
     27          6           0       -6.357317    3.348004    0.250300
     28          6           0       -7.756304    3.899336    0.072175
     29          6           0       -8.642629    2.557604   -0.073005
     30          6           0       -7.687888    1.419349    0.213568
     31          6           0       -8.223239    4.912355    1.150468
     32          6           0       -9.428766    2.292258   -1.373334
     33          6           0      -10.434171    3.423556   -1.941733
     34          7           0       -5.656556   -0.927238    0.216346
     35          6           0       -7.022028   -1.036604    0.417999
     36          6           0       -7.349017   -2.468671    0.532727
     37          6           0       -6.121647   -3.120088    0.516274
     38          6           0       -5.086186   -2.188233    0.338287
     39          6           0       -8.711067   -3.074073    0.554393
     40          6           0       -5.487376   -4.458162    0.485606
     41          8           0       -5.973696   -5.605283    0.596569
     42          6           0       -3.931174   -4.203995    0.334278
     43          6           0       -3.217611   -4.832020    1.399426
     44          8           0       -3.537266   -4.743448    2.577630
     45          8           0       -2.192161   -5.624825    0.951812
     46          6           0       -1.742666   -6.573938    2.061189
     47          6           0        3.421609   -3.889577   -2.305899
     48          6           0        3.990373   -2.498123   -2.541104
     49          6           0        5.276852   -2.090823   -2.485190
     50          6           0        6.461515   -2.994163   -2.126168
     51          6           0        5.799224   -0.682405   -2.660446
     52          6           0        6.530924   -0.269521   -3.920259
     53          6           0        7.830451    0.495215   -3.706804
     54          6           0        7.620906    2.026168   -3.958559
     55          6           0        7.589201    2.342388   -5.446151
     56          6           0        8.786984    2.859687   -3.162297
     57          6           0        8.738253    2.997320   -1.573421
     58          6           0        9.917708    2.399290   -0.732263
     59          6           0        9.376945    1.651683    0.527158
     60          6           0        8.823954    0.209156    0.177925
     61          6           0       10.402045    1.480943    1.636496
     62          6           0        9.936669    1.586054    3.061727
     63          6           0       10.132532    0.181377    3.792251
     64          6           0       10.292666    0.321605    5.345307
     65          6           0       11.201092   -0.695883    5.923284
     66          6           0        8.959658    0.256835    6.065738
     67          1           0        0.015917    1.451687    0.613516
     68          1           0       -5.190111    5.085941    0.418636
     69          1           0       -9.098355   -0.143981    0.456485
     70          1           0       -0.811769   -3.192234    0.846160
     71          1           0        0.475032   -1.110522   -0.216903
     72          1           0        0.215234   -0.299727    2.654919
     73          1           0        1.264318   -1.535440    1.899918
     74          1           0       -0.368646   -1.922768    2.583041
     75          1           0       -0.594660   -2.058966   -1.853434
     76          1           0       -1.900794   -3.051871   -1.854321
     77          1           0       -0.830525   -5.014625   -2.007417
     78          1           0        0.075091   -4.537459   -0.654586
     79          1           0        0.102385    4.923530    1.514681
     80          1           0        0.248577    4.652704   -0.283820
     81          1           0        0.767751    3.494104    0.786598
     82          1           0       -0.988569    6.879854    1.385747
     83          1           0       -1.721675    8.136171    0.258456
     84          1           0       -0.767694    6.860440   -0.394295
     85          1           0       -7.721096    4.494552   -0.839413
     86          1           0       -9.404862    2.575025    0.706912
     87          1           0       -8.727654    5.763377    0.692327
     88          1           0       -7.297572    5.274318    1.596713
     89          1           0       -8.964074    4.588536    1.881657
     90          1           0      -10.076225    1.479756   -1.045045
     91          1           0       -8.799402    1.849141   -2.144415
     92          1           0      -10.518616    3.343284   -3.025425
     93          1           0      -10.184171    4.432925   -1.612384
     94          1           0      -11.455307    3.314026   -1.576288
     95          1           0       -9.454466   -2.398176    0.131380
     96          1           0       -9.011688   -3.306338    1.575582
     97          1           0       -8.770922   -3.974896   -0.056696
     98          1           0       -3.610564   -4.680617   -0.591573
     99          1           0       -2.642493   -7.106457    2.367563
    100          1           0       -1.307523   -5.974045    2.860030
    101          1           0       -0.929747   -7.190320    1.677532
    102          1           0        3.501973   -4.490659   -3.211502
    103          1           0        4.037719   -4.349905   -1.534065
    104          1           0        3.383747   -1.593162   -2.580175
    105          1           0        6.181971   -4.046577   -2.079891
    106          1           0        7.012234   -2.714858   -1.228034
    107          1           0        7.112473   -2.927977   -2.997391
    108          1           0        6.363750   -0.405621   -1.769312
    109          1           0        4.899912   -0.070263   -2.718912
    110          1           0        5.816413    0.220141   -4.581045
    111          1           0        6.897975   -1.156496   -4.437733
    112          1           0        8.651386    0.112191   -4.312831
    113          1           0        8.278791    0.321376   -2.728671
    114          1           0        6.624691    2.298175   -3.608819
    115          1           0        7.800435    1.389053   -5.930062
    116          1           0        8.415235    2.873508   -5.918843
    117          1           0        6.586693    2.690573   -5.696637
    118          1           0        8.851219    3.879874   -3.539901
    119          1           0        9.755463    2.444076   -3.440452
    120          1           0        7.797864    2.605226   -1.187214
    121          1           0        8.779066    4.081744   -1.466409
    122          1           0       10.589734    3.210034   -0.454517
    123          1           0       10.544258    1.715356   -1.305597
    124          1           0        8.561077    2.255285    0.924742
    125          1           0        8.887701   -0.428763    1.059508
    126          1           0        9.412383   -0.274812   -0.601897
    127          1           0        7.771547    0.264242   -0.101262
    128          1           0       11.052189    2.342849    1.482978
    129          1           0       11.031880    0.616141    1.425330
    130          1           0        8.854711    1.719433    3.094167
    131          1           0       10.355986    2.454820    3.569815
    132          1           0       10.889897   -0.427330    3.298978
    133          1           0        9.302175   -0.478884    3.539572
    134          1           0       10.685875    1.304968    5.602930
    135          1           0       12.130334   -0.140416    6.048194
    136          1           0       11.299058   -1.488626    5.181137
    137          1           0       10.904461   -0.887766    6.954082
    138          1           0        8.572520   -0.618533    6.588547
    139          1           0        8.256842    0.547770    5.284899
    140          1           0        8.847286    1.108935    6.736954
 ---------------------------------------------------------------------

 SCF Done:  E(RZINDO/S) =  -473.766680524     A.U. after   20 cycles

 Excitation energies and oscillator strengths:

 Excited State   1:      Singlet-A      1.1896 eV 1042.24 nm  f=0.6105  <S**2>=0.000
     175 ->178         0.18203
     176 ->177         0.66520
 This state for optimization and/or second-order correction.
 Total Energy, E(CIS/TDA) =  -473.722963625
 Copying the excited state density for this state as the 1-particle RhoCI density.

 Excited State   2:      Singlet-A      1.8762 eV  660.83 nm  f=0.0957  <S**2>=0.000
     175 ->177         0.57932
     176 ->178        -0.37399

 Excited State   3:      Singlet-A      2.9729 eV  417.05 nm  f=0.7260  <S**2>=0.000
     168 ->177         0.16989
     168 ->179        -0.17508
     168 ->181         0.10833
     171 ->177        -0.18056
     172 ->177         0.14400
     175 ->177         0.27872
     176 ->178         0.47651

 Excited State   4:      Singlet-A      2.9975 eV  413.62 nm  f=0.2102  <S**2>=0.000
     168 ->177         0.31249
     168 ->178        -0.16343
     168 ->179        -0.33807
     168 ->180        -0.10320
     168 ->181         0.22236
     168 ->185        -0.17148
     175 ->177        -0.15170
     176 ->178        -0.25566

 Excited State   5:      Singlet-A      3.0831 eV  402.14 nm  f=0.0720  <S**2>=0.000
     172 ->177         0.10057
     176 ->179         0.63324
     176 ->181         0.17247

 The electronic state is 1-A.
 Alpha  occ. eigenvalues --   -1.81983  -1.78443  -1.76065  -1.74768  -1.73297
 Alpha  occ. eigenvalues --   -1.68092  -1.64672  -1.61713  -1.57678  -1.56965
 Alpha  occ. eigenvalues --   -1.56159  -1.51609  -1.48238  -1.46276  -1.46044
 Alpha  occ. eigenvalues --   -1.43523  -1.42983  -1.39891  -1.38907  -1.37576
 Alpha  occ. eigenvalues --   -1.36066  -1.33477  -1.32971  -1.31821  -1.27081
 Alpha  occ. eigenvalues --   -1.26341  -1.23959  -1.21494  -1.20446  -1.18191
 Alpha  occ. eigenvalues --   -1.16724  -1.16342  -1.15706  -1.15114  -1.14320
 Alpha  occ. eigenvalues --   -1.13585  -1.10524  -1.10383  -1.04228  -1.03939
 Alpha  occ. eigenvalues --   -1.03297  -1.00711  -0.99256  -0.98135  -0.97408
 Alpha  occ. eigenvalues --   -0.95568  -0.94553  -0.93403  -0.92505  -0.91418
 Alpha  occ. eigenvalues --   -0.90787  -0.90417  -0.89138  -0.87894  -0.87055
 Alpha  occ. eigenvalues --   -0.85600  -0.84973  -0.83260  -0.82257  -0.80320
 Alpha  occ. eigenvalues --   -0.79669  -0.78996  -0.76830  -0.76715  -0.76592
 Alpha  occ. eigenvalues --   -0.76229  -0.75423  -0.75030  -0.74325  -0.73709
 Alpha  occ. eigenvalues --   -0.73144  -0.72849  -0.71956  -0.71767  -0.71415
 Alpha  occ. eigenvalues --   -0.70865  -0.69599  -0.69093  -0.68898  -0.68239
 Alpha  occ. eigenvalues --   -0.67880  -0.67499  -0.67005  -0.66783  -0.65399
 Alpha  occ. eigenvalues --   -0.65281  -0.64675  -0.64236  -0.63859  -0.63437
 Alpha  occ. eigenvalues --   -0.63241  -0.63210  -0.62535  -0.62241  -0.62029
 Alpha  occ. eigenvalues --   -0.61600  -0.61414  -0.60803  -0.60345  -0.59837
 Alpha  occ. eigenvalues --   -0.59683  -0.59297  -0.59141  -0.58610  -0.57916
 Alpha  occ. eigenvalues --   -0.57883  -0.57764  -0.57278  -0.56966  -0.56857
 Alpha  occ. eigenvalues --   -0.56647  -0.56388  -0.55615  -0.55533  -0.54988
 Alpha  occ. eigenvalues --   -0.54797  -0.54083  -0.53552  -0.53349  -0.53139
 Alpha  occ. eigenvalues --   -0.52834  -0.52515  -0.52485  -0.52102  -0.51493
 Alpha  occ. eigenvalues --   -0.51366  -0.51039  -0.50897  -0.50724  -0.50339
 Alpha  occ. eigenvalues --   -0.50026  -0.49905  -0.49223  -0.49160  -0.48925
 Alpha  occ. eigenvalues --   -0.48465  -0.48364  -0.47939  -0.47902  -0.47484
 Alpha  occ. eigenvalues --   -0.47348  -0.47210  -0.46896  -0.46835  -0.46620
 Alpha  occ. eigenvalues --   -0.46593  -0.46071  -0.46016  -0.45479  -0.45239
 Alpha  occ. eigenvalues --   -0.45030  -0.44723  -0.44489  -0.44274  -0.44055
 Alpha  occ. eigenvalues --   -0.43986  -0.42921  -0.42727  -0.42606  -0.42534
 Alpha  occ. eigenvalues --   -0.42447  -0.42091  -0.41903  -0.39786  -0.38713
 Alpha  occ. eigenvalues --   -0.38005  -0.37901  -0.35877  -0.35551  -0.34467
 Alpha  occ. eigenvalues --   -0.33259  -0.33089  -0.32561  -0.32424  -0.26780
 Alpha  occ. eigenvalues --   -0.21965
 Alpha virt. eigenvalues --   -0.09182  -0.01973  -0.00474   0.01080   0.01104
 Alpha virt. eigenvalues --    0.02256   0.02329   0.02640   0.04293   0.04560
 Alpha virt. eigenvalues --    0.05893   0.06274   0.06582   0.07204   0.07376

 Mulliken charges:
               1
     1  Mg   0.432849
     2  C   -0.057956
     3  C   -0.060796
     4  C   -0.071074
     5  C   -0.086140
     6  N   -0.270048
     7  C    0.152717
     8  C   -0.010644
     9  C   -0.010291
    10  C    0.103176
    11  C   -0.047974
    12  C   -0.016500
    13  C    0.009334
    14  C    0.474017
    15  O   -0.508649
    16  O   -0.265345
    17  N   -0.291419
    18  C    0.076574
    19  C    0.000652
    20  C   -0.071758
    21  C    0.136220
    22  C   -0.050227
    23  C    0.334535
    24  O   -0.522104
    25  C   -0.024008
    26  N   -0.323206
    27  C    0.133832
    28  C    0.009849
    29  C    0.012548
    30  C    0.149788
    31  C   -0.052709
    32  C   -0.030666
    33  C   -0.062746
    34  N   -0.323202
    35  C    0.114957
    36  C    0.045012
    37  C   -0.036042
    38  C    0.103989
    39  C   -0.033101
    40  C    0.333260
    41  O   -0.517006
    42  C    0.070237
    43  C    0.497096
    44  O   -0.530046
    45  O   -0.289154
    46  C    0.073658
    47  C    0.119248
    48  C   -0.093597
    49  C   -0.013214
    50  C   -0.053649
    51  C   -0.018344
    52  C   -0.022409
    53  C   -0.031252
    54  C   -0.009555
    55  C   -0.063281
    56  C   -0.050057
    57  C   -0.042072
    58  C   -0.031910
    59  C   -0.011374
    60  C   -0.060890
    61  C   -0.030514
    62  C   -0.032673
    63  C   -0.041680
    64  C   -0.003713
    65  C   -0.060661
    66  C   -0.062328
    67  H    0.028892
    68  H    0.039135
    69  H    0.039744
    70  H    0.039909
    71  H    0.041244
    72  H    0.030681
    73  H    0.017856
    74  H    0.027534
    75  H    0.022193
    76  H    0.023584
    77  H    0.037974
    78  H    0.033896
    79  H    0.028323
    80  H    0.024503
    81  H    0.024791
    82  H    0.046193
    83  H    0.038601
    84  H    0.033692
    85  H    0.035246
    86  H    0.027447
    87  H    0.015234
    88  H    0.030386
    89  H    0.026247
    90  H    0.011778
    91  H    0.030434
    92  H    0.023734
    93  H    0.024131
    94  H    0.017336
    95  H    0.018570
    96  H    0.040032
    97  H    0.035046
    98  H    0.049923
    99  H    0.061153
   100  H    0.044524
   101  H    0.031946
   102  H    0.064410
   103  H    0.036855
   104  H    0.034673
   105  H    0.012800
   106  H    0.033770
   107  H    0.023018
   108  H    0.029149
   109  H    0.006351
   110  H    0.027244
   111  H    0.011309
   112  H    0.015985
   113  H    0.015129
   114  H    0.022609
   115  H    0.009961
   116  H    0.028516
   117  H    0.024915
   118  H    0.012022
   119  H    0.017000
   120  H    0.024407
   121  H    0.017389
   122  H    0.017878
   123  H    0.020351
   124  H    0.019475
   125  H    0.015727
   126  H    0.023439
   127  H    0.015946
   128  H    0.000012
   129  H    0.022611
   130  H    0.014830
   131  H    0.029000
   132  H    0.017682
   133  H    0.015472
   134  H    0.019688
   135  H    0.007707
   136  H    0.033923
   137  H    0.025050
   138  H    0.031206
   139  H    0.003442
   140  H    0.009567
 Sum of Mulliken charges =  -0.00000

 Dipole moment (field-independent basis, Debye):
    X=              5.7269    Y=              2.5382    Z=             -0.8675  Tot=              6.3240
 N-N= 4.377161384656D+03 E-N= 0.000000000000D+00  KE=-9.427629284250D+03
 Leave Link  601 at Thu Apr 28 13:29:15 2022, MaxMem=  6710886400 cpu:               1.1 elap:               0.1
 (Enter /sw/apps/gaussian-16.0/g16/l9999.exe)
 1\1\GINC-BP1-COMPUTE148\SP\RZINDO CIS\STO-3G\C55H74Mg1N4O6\OF15641\28-
 Apr-2022\0\\#p ZINDO=(nstates=5)\\step_1551_chromophore_27 ZINDO\\0,1\
 Mg,0,-5.812,24.829,26.253\C,0,-3.748,26.501,28.609\C,0,-6.501,22.567,2
 8.739\C,0,-7.513,23.142,23.919\C,0,-4.401,26.884,23.537\N,0,-5.165,24.
 574,28.33\C,0,-4.51,25.413,29.148\C,0,-4.627,25.173,30.688\C,0,-5.24,2
 3.675,30.641\C,0,-5.684,23.568,29.147\C,0,-4.152,22.581,30.899\C,0,-5.
 508,26.311,31.334\C,0,-5.19,26.91,32.681\C,0,-6.117,26.825,33.884\O,0,

 Normal termination of Gaussian 16 at Thu Apr 28 13:29:15 2022.
