 Gaussian 16, Revision A.03,
 Gaussian 16:  ES64L-G16RevA.03 25-Dec-2016

 ------------------------------
 #p blyp/Def2SVP td=(nstates=5)
 ------------------------------

 --------------------------------------------------
 step_601_chromophore_25 TDDFT with blyp functional
 --------------------------------------------------
 Symbolic Z-matrix:
 Charge =  0 Multiplicity = 1

                         Standard orientation:
 ---------------------------------------------------------------------
 Center     Atomic      Atomic             Coordinates (Angstroms)
 Number     Number       Type             X           Y           Z
 ---------------------------------------------------------------------
      1         12           0        5.931064    0.425501    0.201742
      2          6           0        3.769045   -2.281637    0.148301
      3          6           0        3.328527    2.554419    0.197096
      4          6           0        8.069756    2.920753   -0.335967
      5          6           0        8.681951   -1.793922    0.329607
      6          7           0        3.745839    0.070685    0.120791
      7          6           0        3.081742   -1.093403    0.210186
      8          6           0        1.532018   -0.817432    0.184855
      9          6           0        1.431649    0.813024    0.280245
     10          6           0        2.916216    1.205363    0.137586
     11          6           0        0.467946    1.431902   -0.742538
     12          6           0        0.911189   -1.417784    1.384603
     13          6           0       -0.168754   -2.392384    1.112072
     14          6           0       -1.539823   -1.929694    1.710395
     15          8           0       -1.942280   -2.286114    2.793567
     16          8           0       -2.198857   -1.112375    0.844593
     17          7           0        5.705695    2.410141   -0.099248
     18          6           0        4.581302    3.143269   -0.088694
     19          6           0        4.817473    4.583064   -0.034096
     20          6           0        6.215069    4.713853   -0.409821
     21          6           0        6.749390    3.270265   -0.248511
     22          6           0        3.702890    5.600226    0.103949
     23          6           0        7.095473    5.986557   -0.742061
     24          8           0        8.284890    5.912105   -0.862038
     25          6           0        6.412970    7.282761   -0.940979
     26          7           0        8.057850    0.547885    0.064791
     27          6           0        8.678680    1.701787   -0.221963
     28          6           0       10.204137    1.476423   -0.313169
     29          6           0       10.385542    0.098480    0.301579
     30          6           0        8.945118   -0.455743    0.211215
     31          6           0       10.724410    1.585950   -1.757468
     32          6           0       10.984339    0.108029    1.804729
     33          6           0       12.234254   -0.747947    1.977873
     34          7           0        6.176262   -1.653882    0.322644
     35          6           0        7.348826   -2.402001    0.314863
     36          6           0        7.053432   -3.802093    0.257078
     37          6           0        5.587530   -3.862922    0.189521
     38          6           0        5.161390   -2.508997    0.213655
     39          6           0        8.018338   -4.969896    0.371679
     40          6           0        4.426881   -4.671438    0.016733
     41          8           0        4.373840   -5.893832   -0.154831
     42          6           0        3.226259   -3.678243    0.011072
     43          6           0        2.460525   -3.868892   -1.292493
     44          8           0        2.734521   -3.378048   -2.386277
     45          8           0        1.307891   -4.553109   -1.027165
     46          6           0        0.441249   -4.838557   -2.150597
     47          6           0       -3.623179   -0.817074    1.283182
     48          6           0       -4.516239   -0.787715    0.057069
     49          6           0       -5.751725   -0.316592   -0.029106
     50          6           0       -6.587776    0.216682    1.085890
     51          6           0       -6.339947   -0.086894   -1.465812
     52          6           0       -7.762216   -0.643361   -1.636271
     53          6           0       -8.814709    0.428988   -1.799099
     54          6           0      -10.006679    0.152308   -2.772498
     55          6           0       -9.567989    0.610820   -4.151932
     56          6           0      -11.308550    0.788261   -2.326613
     57          6           0      -12.538414   -0.060859   -2.498134
     58          6           0      -13.787525    0.696905   -1.831760
     59          6           0      -14.222672    0.061199   -0.500691
     60          6           0      -15.427422   -0.991295   -0.714317
     61          6           0      -14.670226    1.069534    0.540173
     62          6           0      -14.313501    0.696704    1.960595
     63          6           0      -13.428027    1.717135    2.708988
     64          6           0      -12.134528    1.155176    3.247783
     65          6           0      -11.685050    1.641367    4.639830
     66          6           0      -10.915414    1.378954    2.256334
     67          1           0        2.402159    3.057862    0.484614
     68          1           0        8.786129    3.717114   -0.546547
     69          1           0        9.469726   -2.525828    0.520512
     70          1           0        1.150571   -1.157135   -0.778604
     71          1           0        1.166882    1.235845    1.250031
     72          1           0       -0.325100    1.927603   -0.183374
     73          1           0        0.062423    0.533392   -1.208464
     74          1           0        1.013703    2.150356   -1.354005
     75          1           0        0.663660   -0.618253    2.083017
     76          1           0        1.683332   -1.955328    1.935587
     77          1           0        0.111831   -3.338478    1.574166
     78          1           0       -0.268131   -2.475782    0.029148
     79          1           0        2.922113    5.207361    0.754911
     80          1           0        3.238214    5.869752   -0.844438
     81          1           0        4.235269    6.471676    0.486022
     82          1           0        7.185111    7.970420   -1.286078
     83          1           0        6.001770    7.850619   -0.105531
     84          1           0        5.565693    7.284551   -1.625929
     85          1           0       10.736379    2.235464    0.261534
     86          1           0       11.038664   -0.581226   -0.245027
     87          1           0        9.942961    1.232585   -2.430715
     88          1           0       11.618670    0.968276   -1.841986
     89          1           0       11.226233    2.510567   -2.044081
     90          1           0       10.210127   -0.325139    2.437508
     91          1           0       11.074331    1.120137    2.198849
     92          1           0       12.782855   -0.634737    1.043874
     93          1           0       11.979252   -1.772069    2.253078
     94          1           0       12.933605   -0.431889    2.751141
     95          1           0        7.799665   -5.582483    1.245510
     96          1           0        9.041659   -4.626453    0.517089
     97          1           0        7.883507   -5.640651   -0.476826
     98          1           0        2.549973   -3.903641    0.835476
     99          1           0       -0.433326   -4.194000   -2.076267
    100          1           0        0.119427   -5.852697   -1.913777
    101          1           0        0.909793   -4.704121   -3.125073
    102          1           0       -3.706381    0.213932    1.626618
    103          1           0       -4.029878   -1.490399    2.038417
    104          1           0       -4.031243   -1.020811   -0.891641
    105          1           0       -6.469484    1.299866    1.041415
    106          1           0       -6.453034   -0.356253    2.003606
    107          1           0       -7.636576    0.189280    0.792120
    108          1           0       -5.701505   -0.605090   -2.180580
    109          1           0       -6.227448    0.987992   -1.609538
    110          1           0       -8.028899   -1.248391   -0.768914
    111          1           0       -7.682385   -1.308476   -2.496719
    112          1           0       -8.423334    1.435840   -1.948236
    113          1           0       -9.346874    0.478781   -0.849239
    114          1           0      -10.181040   -0.921048   -2.842921
    115          1           0      -10.301084    0.388809   -4.927556
    116          1           0       -8.723365    0.007156   -4.486219
    117          1           0       -9.332090    1.674757   -4.168262
    118          1           0      -11.484530    1.577791   -3.057341
    119          1           0      -11.205844    1.147816   -1.302539
    120          1           0      -12.238793   -0.977805   -1.990268
    121          1           0      -12.761742   -0.147577   -3.562240
    122          1           0      -14.675662    0.716935   -2.462722
    123          1           0      -13.415135    1.709365   -1.680036
    124          1           0      -13.382104   -0.539672   -0.153233
    125          1           0      -15.447982   -1.540337    0.226971
    126          1           0      -15.229061   -1.652134   -1.558444
    127          1           0      -16.275669   -0.445179   -1.127751
    128          1           0      -15.696096    1.419677    0.426820
    129          1           0      -14.083582    1.981746    0.432730
    130          1           0      -13.826348   -0.276929    1.986275
    131          1           0      -15.285592    0.645939    2.450335
    132          1           0      -14.034639    2.144138    3.507587
    133          1           0      -13.140021    2.531481    2.044901
    134          1           0      -12.124947    0.077329    3.407663
    135          1           0      -10.799098    2.273223    4.575886
    136          1           0      -11.381462    0.815442    5.281980
    137          1           0      -12.486010    2.208227    5.114302
    138          1           0      -10.150654    0.658056    2.547350
    139          1           0      -10.539702    2.398208    2.345633
    140          1           0      -11.203083    1.165510    1.227042
 ---------------------------------------------------------------------

 SCF Done:  E(RB-LYP) =  -3007.37122874     A.U. after   21 cycles

 Excitation energies and oscillator strengths:

 Excited State   1:      Singlet-A      1.7950 eV  690.72 nm  f=0.0128  <S**2>=0.000
     244 -> 247        0.68470
     245 -> 247       -0.12204
     246 -> 247       -0.12041
 This state for optimization and/or second-order correction.
 Total Energy, E(TD-HF/TD-DFT) =  -3007.30526387
 Copying the excited state density for this state as the 1-particle RhoCI density.

 Excited State   2:      Singlet-A      1.8456 eV  671.77 nm  f=0.3051  <S**2>=0.000
     245 -> 247       -0.13744
     245 -> 248        0.15816
     245 -> 249        0.12839
     246 -> 247        0.66688
     246 <- 247       -0.14136

 Excited State   3:      Singlet-A      2.0077 eV  617.55 nm  f=0.1164  <S**2>=0.000
     244 -> 247        0.14239
     245 -> 247        0.63556
     246 -> 247        0.12159
     246 -> 248       -0.16469
     246 -> 249       -0.15042

 Excited State   4:      Singlet-A      2.3574 eV  525.94 nm  f=0.0001  <S**2>=0.000
     241 -> 247        0.41385
     242 -> 247        0.54088
     243 -> 247       -0.17594

 Excited State   5:      Singlet-A      2.3605 eV  525.24 nm  f=0.0002  <S**2>=0.000
     241 -> 247        0.57329
     242 -> 247       -0.39042
     243 -> 247        0.12525

 The electronic state is 1-A.
 Alpha  occ. eigenvalues --  -46.26600 -18.82995 -18.82077 -18.76990 -18.76680
 Alpha  occ. eigenvalues --  -18.76527 -18.74634 -14.03001 -14.02687 -14.01675
 Alpha  occ. eigenvalues --  -14.00262 -10.03888 -10.03782 -10.01211  -9.98706
 Alpha  occ. eigenvalues --   -9.98416  -9.97318  -9.96604  -9.96272  -9.96263
 Alpha  occ. eigenvalues --   -9.96128  -9.95838  -9.95647  -9.95191  -9.94653
 Alpha  occ. eigenvalues --   -9.94234  -9.94138  -9.93956  -9.93924  -9.93769
 Alpha  occ. eigenvalues --   -9.93565  -9.93562  -9.93275  -9.93205  -9.93076
 Alpha  occ. eigenvalues --   -9.93027  -9.92831  -9.92645  -9.92608  -9.92527
 Alpha  occ. eigenvalues --   -9.92517  -9.92420  -9.92349  -9.92327  -9.92155
 Alpha  occ. eigenvalues --   -9.92127  -9.92015  -9.91884  -9.91862  -9.91857
 Alpha  occ. eigenvalues --   -9.91736  -9.91641  -9.91479  -9.91427  -9.91342
 Alpha  occ. eigenvalues --   -9.91259  -9.91206  -9.91198  -9.91144  -9.91092
 Alpha  occ. eigenvalues --   -9.90861  -9.90861  -9.90764  -9.90642  -9.90533
 Alpha  occ. eigenvalues --   -9.90380  -2.91305  -1.71745  -1.71153  -1.71042
 Alpha  occ. eigenvalues --   -0.97940  -0.97787  -0.94132  -0.90142  -0.89782
 Alpha  occ. eigenvalues --   -0.89393  -0.86980  -0.86158  -0.85534  -0.84436
 Alpha  occ. eigenvalues --   -0.75399  -0.74232  -0.73804  -0.73361  -0.72741
 Alpha  occ. eigenvalues --   -0.72357  -0.71664  -0.71162  -0.71043  -0.70489
 Alpha  occ. eigenvalues --   -0.69266  -0.69099  -0.68560  -0.67362  -0.67172
 Alpha  occ. eigenvalues --   -0.66843  -0.66518  -0.65719  -0.65320  -0.64590
 Alpha  occ. eigenvalues --   -0.64303  -0.62549  -0.62417  -0.61535  -0.61081
 Alpha  occ. eigenvalues --   -0.60488  -0.59990  -0.59946  -0.59543  -0.59319
 Alpha  occ. eigenvalues --   -0.58095  -0.57766  -0.56559  -0.55098  -0.54105
 Alpha  occ. eigenvalues --   -0.54007  -0.53547  -0.52893  -0.52221  -0.51776
 Alpha  occ. eigenvalues --   -0.51529  -0.50958  -0.50569  -0.50174  -0.49954
 Alpha  occ. eigenvalues --   -0.49766  -0.49375  -0.48778  -0.48182  -0.47045
 Alpha  occ. eigenvalues --   -0.46085  -0.45898  -0.45685  -0.45085  -0.44570
 Alpha  occ. eigenvalues --   -0.44127  -0.43988  -0.43360  -0.42674  -0.42483
 Alpha  occ. eigenvalues --   -0.42330  -0.42095  -0.41714  -0.41507  -0.41307
 Alpha  occ. eigenvalues --   -0.41147  -0.40786  -0.40532  -0.40468  -0.40289
 Alpha  occ. eigenvalues --   -0.40050  -0.39856  -0.39704  -0.39541  -0.39422
 Alpha  occ. eigenvalues --   -0.39385  -0.39283  -0.38915  -0.38486  -0.38340
 Alpha  occ. eigenvalues --   -0.38178  -0.38008  -0.37812  -0.37739  -0.37493
 Alpha  occ. eigenvalues --   -0.37351  -0.37218  -0.36994  -0.36843  -0.36624
 Alpha  occ. eigenvalues --   -0.36523  -0.36342  -0.36177  -0.35942  -0.35778
 Alpha  occ. eigenvalues --   -0.35568  -0.35542  -0.35207  -0.34875  -0.34714
 Alpha  occ. eigenvalues --   -0.34512  -0.34256  -0.34123  -0.34038  -0.33991
 Alpha  occ. eigenvalues --   -0.33732  -0.33672  -0.33488  -0.33164  -0.33011
 Alpha  occ. eigenvalues --   -0.32939  -0.32641  -0.32559  -0.32315  -0.32265
 Alpha  occ. eigenvalues --   -0.32245  -0.31930  -0.31881  -0.31753  -0.31712
 Alpha  occ. eigenvalues --   -0.31452  -0.31227  -0.31081  -0.31017  -0.30936
 Alpha  occ. eigenvalues --   -0.30639  -0.30410  -0.30218  -0.29904  -0.29817
 Alpha  occ. eigenvalues --   -0.29752  -0.29452  -0.29174  -0.29042  -0.28930
 Alpha  occ. eigenvalues --   -0.28757  -0.28636  -0.28168  -0.27846  -0.27823
 Alpha  occ. eigenvalues --   -0.27627  -0.27343  -0.27031  -0.26515  -0.26495
 Alpha  occ. eigenvalues --   -0.26354  -0.26204  -0.25990  -0.25918  -0.25066
 Alpha  occ. eigenvalues --   -0.24861  -0.24791  -0.24690  -0.24323  -0.23491
 Alpha  occ. eigenvalues --   -0.23159  -0.22315  -0.21727  -0.21563  -0.21287
 Alpha  occ. eigenvalues --   -0.20216  -0.20061  -0.19654  -0.18050  -0.17097
 Alpha  occ. eigenvalues --   -0.15956
 Alpha virt. eigenvalues --   -0.11546  -0.06784  -0.06249  -0.04360  -0.02384
 Alpha virt. eigenvalues --   -0.02166  -0.01599  -0.00990  -0.00715   0.00162
 Alpha virt. eigenvalues --    0.01148   0.01303   0.01856   0.02173   0.02572

 Mulliken charges:
               1
     1  Mg   0.698847
     2  C    0.097254
     3  C   -0.043569
     4  C   -0.066714
     5  C   -0.074816
     6  N   -0.219141
     7  C   -0.118277
     8  C    0.010143
     9  C   -0.058175
    10  C   -0.042920
    11  C    0.161924
    12  C    0.136763
    13  C    0.175421
    14  C    0.047753
    15  O   -0.178076
    16  O   -0.281380
    17  N   -0.276660
    18  C    0.182918
    19  C   -0.168465
    20  C   -0.012209
    21  C    0.132239
    22  C    0.159436
    23  C   -0.013459
    24  O   -0.125882
    25  C    0.085348
    26  N   -0.197789
    27  C    0.025349
    28  C    0.034887
    29  C    0.010879
    30  C    0.054137
    31  C    0.134615
    32  C    0.102163
    33  C    0.059059
    34  N   -0.238761
    35  C    0.083344
    36  C   -0.168870
    37  C    0.112625
    38  C    0.021444
    39  C    0.175640
    40  C   -0.073598
    41  O   -0.150162
    42  C    0.033930
    43  C    0.112246
    44  O   -0.189138
    45  O   -0.263440
    46  C    0.202333
    47  C    0.309661
    48  C   -0.116819
    49  C   -0.199130
    50  C    0.196509
    51  C    0.122686
    52  C    0.089908
    53  C    0.083320
    54  C   -0.056495
    55  C    0.113603
    56  C    0.081665
    57  C    0.058834
    58  C    0.119648
    59  C   -0.077185
    60  C    0.096443
    61  C    0.114568
    62  C    0.082636
    63  C    0.137940
    64  C   -0.112416
    65  C    0.103996
    66  C    0.057755
    67  H   -0.066267
    68  H   -0.049581
    69  H   -0.062638
    70  H    0.004448
    71  H   -0.009540
    72  H   -0.017005
    73  H   -0.006162
    74  H    0.002335
    75  H   -0.023831
    76  H   -0.023342
    77  H   -0.000382
    78  H   -0.010124
    79  H    0.005788
    80  H    0.015523
    81  H   -0.004531
    82  H   -0.007976
    83  H    0.017689
    84  H    0.009512
    85  H   -0.033792
    86  H   -0.036846
    87  H    0.004311
    88  H   -0.027559
    89  H   -0.008002
    90  H   -0.028837
    91  H   -0.022529
    92  H   -0.006061
    93  H    0.002424
    94  H   -0.015006
    95  H    0.003858
    96  H   -0.022921
    97  H    0.014047
    98  H   -0.004462
    99  H    0.006700
   100  H    0.020577
   101  H    0.033881
   102  H    0.005159
   103  H    0.029435
   104  H   -0.039278
   105  H   -0.009184
   106  H    0.009463
   107  H   -0.033534
   108  H   -0.037867
   109  H   -0.012536
   110  H   -0.017340
   111  H   -0.025566
   112  H   -0.033967
   113  H   -0.038504
   114  H   -0.051752
   115  H   -0.028689
   116  H   -0.028748
   117  H   -0.013645
   118  H   -0.042387
   119  H   -0.025386
   120  H   -0.021592
   121  H   -0.027342
   122  H   -0.042693
   123  H   -0.034511
   124  H   -0.043421
   125  H   -0.000784
   126  H   -0.027186
   127  H   -0.013402
   128  H   -0.035698
   129  H   -0.057405
   130  H   -0.025917
   131  H   -0.036523
   132  H   -0.038753
   133  H   -0.031240
   134  H   -0.033778
   135  H   -0.027147
   136  H   -0.017540
   137  H   -0.020661
   138  H   -0.011818
   139  H   -0.004621
   140  H   -0.003669
 Sum of Mulliken charges =  -0.00000

 Dipole moment (field-independent basis, Debye):
    X=             -2.8499    Y=              5.6770    Z=              0.8637  Tot=              6.4106
 Quadrupole moment (field-independent basis, Debye-Ang):
   XX=           -372.3948   YY=           -422.5352   ZZ=           -413.9480
   XY=              4.2497   XZ=             18.4966   YZ=              4.7358

 Normal termination of Gaussian 16 at Sat Apr 30 06:20:08 2022.
