 Gaussian 16, Revision A.03,
 Gaussian 16:  ES64L-G16RevA.03 25-Dec-2016

 -----------------------------------
 #p cam-b3lyp/Def2SVP td=(nstates=5)
 -----------------------------------

 -------------------------------------------------------
 step_601_chromophore_25 TDDFT with cam-b3lyp functional
 -------------------------------------------------------
 Symbolic Z-matrix:
 Charge =  0 Multiplicity = 1

                         Standard orientation:
 ---------------------------------------------------------------------
 Center     Atomic      Atomic             Coordinates (Angstroms)
 Number     Number       Type             X           Y           Z
 ---------------------------------------------------------------------
      1         12           0        5.931064    0.425501    0.201742
      2          6           0        3.769045   -2.281637    0.148301
      3          6           0        3.328527    2.554419    0.197096
      4          6           0        8.069756    2.920753   -0.335967
      5          6           0        8.681951   -1.793922    0.329607
      6          7           0        3.745839    0.070685    0.120791
      7          6           0        3.081742   -1.093403    0.210186
      8          6           0        1.532018   -0.817432    0.184855
      9          6           0        1.431649    0.813024    0.280245
     10          6           0        2.916216    1.205363    0.137586
     11          6           0        0.467946    1.431902   -0.742538
     12          6           0        0.911189   -1.417784    1.384603
     13          6           0       -0.168754   -2.392384    1.112072
     14          6           0       -1.539823   -1.929694    1.710395
     15          8           0       -1.942280   -2.286114    2.793567
     16          8           0       -2.198857   -1.112375    0.844593
     17          7           0        5.705695    2.410141   -0.099248
     18          6           0        4.581302    3.143269   -0.088694
     19          6           0        4.817473    4.583064   -0.034096
     20          6           0        6.215069    4.713853   -0.409821
     21          6           0        6.749390    3.270265   -0.248511
     22          6           0        3.702890    5.600226    0.103949
     23          6           0        7.095473    5.986557   -0.742061
     24          8           0        8.284890    5.912105   -0.862038
     25          6           0        6.412970    7.282761   -0.940979
     26          7           0        8.057850    0.547885    0.064791
     27          6           0        8.678680    1.701787   -0.221963
     28          6           0       10.204137    1.476423   -0.313169
     29          6           0       10.385542    0.098480    0.301579
     30          6           0        8.945118   -0.455743    0.211215
     31          6           0       10.724410    1.585950   -1.757468
     32          6           0       10.984339    0.108029    1.804729
     33          6           0       12.234254   -0.747947    1.977873
     34          7           0        6.176262   -1.653882    0.322644
     35          6           0        7.348826   -2.402001    0.314863
     36          6           0        7.053432   -3.802093    0.257078
     37          6           0        5.587530   -3.862922    0.189521
     38          6           0        5.161390   -2.508997    0.213655
     39          6           0        8.018338   -4.969896    0.371679
     40          6           0        4.426881   -4.671438    0.016733
     41          8           0        4.373840   -5.893832   -0.154831
     42          6           0        3.226259   -3.678243    0.011072
     43          6           0        2.460525   -3.868892   -1.292493
     44          8           0        2.734521   -3.378048   -2.386277
     45          8           0        1.307891   -4.553109   -1.027165
     46          6           0        0.441249   -4.838557   -2.150597
     47          6           0       -3.623179   -0.817074    1.283182
     48          6           0       -4.516239   -0.787715    0.057069
     49          6           0       -5.751725   -0.316592   -0.029106
     50          6           0       -6.587776    0.216682    1.085890
     51          6           0       -6.339947   -0.086894   -1.465812
     52          6           0       -7.762216   -0.643361   -1.636271
     53          6           0       -8.814709    0.428988   -1.799099
     54          6           0      -10.006679    0.152308   -2.772498
     55          6           0       -9.567989    0.610820   -4.151932
     56          6           0      -11.308550    0.788261   -2.326613
     57          6           0      -12.538414   -0.060859   -2.498134
     58          6           0      -13.787525    0.696905   -1.831760
     59          6           0      -14.222672    0.061199   -0.500691
     60          6           0      -15.427422   -0.991295   -0.714317
     61          6           0      -14.670226    1.069534    0.540173
     62          6           0      -14.313501    0.696704    1.960595
     63          6           0      -13.428027    1.717135    2.708988
     64          6           0      -12.134528    1.155176    3.247783
     65          6           0      -11.685050    1.641367    4.639830
     66          6           0      -10.915414    1.378954    2.256334
     67          1           0        2.402159    3.057862    0.484614
     68          1           0        8.786129    3.717114   -0.546547
     69          1           0        9.469726   -2.525828    0.520512
     70          1           0        1.150571   -1.157135   -0.778604
     71          1           0        1.166882    1.235845    1.250031
     72          1           0       -0.325100    1.927603   -0.183374
     73          1           0        0.062423    0.533392   -1.208464
     74          1           0        1.013703    2.150356   -1.354005
     75          1           0        0.663660   -0.618253    2.083017
     76          1           0        1.683332   -1.955328    1.935587
     77          1           0        0.111831   -3.338478    1.574166
     78          1           0       -0.268131   -2.475782    0.029148
     79          1           0        2.922113    5.207361    0.754911
     80          1           0        3.238214    5.869752   -0.844438
     81          1           0        4.235269    6.471676    0.486022
     82          1           0        7.185111    7.970420   -1.286078
     83          1           0        6.001770    7.850619   -0.105531
     84          1           0        5.565693    7.284551   -1.625929
     85          1           0       10.736379    2.235464    0.261534
     86          1           0       11.038664   -0.581226   -0.245027
     87          1           0        9.942961    1.232585   -2.430715
     88          1           0       11.618670    0.968276   -1.841986
     89          1           0       11.226233    2.510567   -2.044081
     90          1           0       10.210127   -0.325139    2.437508
     91          1           0       11.074331    1.120137    2.198849
     92          1           0       12.782855   -0.634737    1.043874
     93          1           0       11.979252   -1.772069    2.253078
     94          1           0       12.933605   -0.431889    2.751141
     95          1           0        7.799665   -5.582483    1.245510
     96          1           0        9.041659   -4.626453    0.517089
     97          1           0        7.883507   -5.640651   -0.476826
     98          1           0        2.549973   -3.903641    0.835476
     99          1           0       -0.433326   -4.194000   -2.076267
    100          1           0        0.119427   -5.852697   -1.913777
    101          1           0        0.909793   -4.704121   -3.125073
    102          1           0       -3.706381    0.213932    1.626618
    103          1           0       -4.029878   -1.490399    2.038417
    104          1           0       -4.031243   -1.020811   -0.891641
    105          1           0       -6.469484    1.299866    1.041415
    106          1           0       -6.453034   -0.356253    2.003606
    107          1           0       -7.636576    0.189280    0.792120
    108          1           0       -5.701505   -0.605090   -2.180580
    109          1           0       -6.227448    0.987992   -1.609538
    110          1           0       -8.028899   -1.248391   -0.768914
    111          1           0       -7.682385   -1.308476   -2.496719
    112          1           0       -8.423334    1.435840   -1.948236
    113          1           0       -9.346874    0.478781   -0.849239
    114          1           0      -10.181040   -0.921048   -2.842921
    115          1           0      -10.301084    0.388809   -4.927556
    116          1           0       -8.723365    0.007156   -4.486219
    117          1           0       -9.332090    1.674757   -4.168262
    118          1           0      -11.484530    1.577791   -3.057341
    119          1           0      -11.205844    1.147816   -1.302539
    120          1           0      -12.238793   -0.977805   -1.990268
    121          1           0      -12.761742   -0.147577   -3.562240
    122          1           0      -14.675662    0.716935   -2.462722
    123          1           0      -13.415135    1.709365   -1.680036
    124          1           0      -13.382104   -0.539672   -0.153233
    125          1           0      -15.447982   -1.540337    0.226971
    126          1           0      -15.229061   -1.652134   -1.558444
    127          1           0      -16.275669   -0.445179   -1.127751
    128          1           0      -15.696096    1.419677    0.426820
    129          1           0      -14.083582    1.981746    0.432730
    130          1           0      -13.826348   -0.276929    1.986275
    131          1           0      -15.285592    0.645939    2.450335
    132          1           0      -14.034639    2.144138    3.507587
    133          1           0      -13.140021    2.531481    2.044901
    134          1           0      -12.124947    0.077329    3.407663
    135          1           0      -10.799098    2.273223    4.575886
    136          1           0      -11.381462    0.815442    5.281980
    137          1           0      -12.486010    2.208227    5.114302
    138          1           0      -10.150654    0.658056    2.547350
    139          1           0      -10.539702    2.398208    2.345633
    140          1           0      -11.203083    1.165510    1.227042
 ---------------------------------------------------------------------

 SCF Done:  E(RCAM-B3LYP) =  -3007.17184442     A.U. after   17 cycles

 Excitation energies and oscillator strengths:

 Excited State   1:      Singlet-A      1.7880 eV  693.44 nm  f=0.4062  <S**2>=0.000
     245 -> 248       -0.17325
     246 -> 247        0.68526
     245 <- 248       -0.10108
 This state for optimization and/or second-order correction.
 Total Energy, E(TD-HF/TD-DFT) =  -3007.10613782
 Copying the excited state density for this state as the 1-particle RhoCI density.

 Excited State   2:      Singlet-A      2.2290 eV  556.22 nm  f=0.1569  <S**2>=0.000
     245 -> 247        0.65247
     246 -> 248        0.25227

 Excited State   3:      Singlet-A      3.2703 eV  379.12 nm  f=0.0090  <S**2>=0.000
     241 -> 247       -0.10052
     244 -> 247        0.68644

 Excited State   4:      Singlet-A      3.4640 eV  357.92 nm  f=0.0004  <S**2>=0.000
     243 -> 247        0.59375
     243 -> 249       -0.22982
     243 -> 250       -0.25746

 Excited State   5:      Singlet-A      3.6174 eV  342.75 nm  f=0.3255  <S**2>=0.000
     240 -> 247       -0.20726
     241 -> 247       -0.37181
     245 -> 247       -0.17572
     246 -> 248        0.52154

 The electronic state is 1-A.
 Alpha  occ. eigenvalues --  -46.88090 -19.25870 -19.24867 -19.20723 -19.19595
 Alpha  occ. eigenvalues --  -19.19446 -19.17318 -14.41903 -14.41490 -14.40442
 Alpha  occ. eigenvalues --  -14.38340 -10.39107 -10.39080 -10.36883 -10.33632
 Alpha  occ. eigenvalues --  -10.32561 -10.31515 -10.31288 -10.31162 -10.31107
 Alpha  occ. eigenvalues --  -10.30635 -10.30433 -10.29955 -10.29619 -10.29145
 Alpha  occ. eigenvalues --  -10.28801 -10.28279 -10.28274 -10.28103 -10.27727
 Alpha  occ. eigenvalues --  -10.27716 -10.27390 -10.27381 -10.27236 -10.27070
 Alpha  occ. eigenvalues --  -10.27037 -10.26961 -10.26726 -10.26584 -10.26369
 Alpha  occ. eigenvalues --  -10.26328 -10.26143 -10.26121 -10.26053 -10.25950
 Alpha  occ. eigenvalues --  -10.25734 -10.25609 -10.25586 -10.25432 -10.25415
 Alpha  occ. eigenvalues --  -10.25371 -10.25361 -10.25358 -10.25340 -10.25172
 Alpha  occ. eigenvalues --  -10.25101 -10.24978 -10.24877 -10.24844 -10.24734
 Alpha  occ. eigenvalues --  -10.24481 -10.24474 -10.24374 -10.24299 -10.24026
 Alpha  occ. eigenvalues --  -10.24003  -3.16703  -1.91619  -1.91125  -1.91041
 Alpha  occ. eigenvalues --   -1.16371  -1.16164  -1.13091  -1.07962  -1.07702
 Alpha  occ. eigenvalues --   -1.07202  -1.04907  -1.03974  -1.02979  -1.01757
 Alpha  occ. eigenvalues --   -0.92296  -0.91176  -0.90615  -0.90209  -0.89516
 Alpha  occ. eigenvalues --   -0.89318  -0.88256  -0.87816  -0.87658  -0.87539
 Alpha  occ. eigenvalues --   -0.85652  -0.85330  -0.84810  -0.83498  -0.83203
 Alpha  occ. eigenvalues --   -0.83125  -0.82891  -0.81569  -0.81070  -0.80442
 Alpha  occ. eigenvalues --   -0.80077  -0.78557  -0.78037  -0.76940  -0.76523
 Alpha  occ. eigenvalues --   -0.75821  -0.75292  -0.75278  -0.74839  -0.74596
 Alpha  occ. eigenvalues --   -0.73083  -0.72667  -0.71481  -0.69918  -0.68781
 Alpha  occ. eigenvalues --   -0.68545  -0.68201  -0.67330  -0.66569  -0.65979
 Alpha  occ. eigenvalues --   -0.65577  -0.65069  -0.64711  -0.64055  -0.63996
 Alpha  occ. eigenvalues --   -0.63590  -0.63373  -0.62697  -0.61818  -0.61026
 Alpha  occ. eigenvalues --   -0.59530  -0.59370  -0.59266  -0.58462  -0.57889
 Alpha  occ. eigenvalues --   -0.57578  -0.57436  -0.56874  -0.55782  -0.55625
 Alpha  occ. eigenvalues --   -0.55227  -0.55152  -0.54620  -0.54483  -0.54137
 Alpha  occ. eigenvalues --   -0.53998  -0.53765  -0.53483  -0.53129  -0.53044
 Alpha  occ. eigenvalues --   -0.52739  -0.52697  -0.52630  -0.52410  -0.51955
 Alpha  occ. eigenvalues --   -0.51795  -0.51770  -0.51342  -0.51216  -0.50969
 Alpha  occ. eigenvalues --   -0.50755  -0.50747  -0.50345  -0.50258  -0.49963
 Alpha  occ. eigenvalues --   -0.49828  -0.49540  -0.49389  -0.49030  -0.48848
 Alpha  occ. eigenvalues --   -0.48776  -0.48411  -0.48379  -0.48052  -0.47961
 Alpha  occ. eigenvalues --   -0.47865  -0.47473  -0.47376  -0.46905  -0.46672
 Alpha  occ. eigenvalues --   -0.46468  -0.46228  -0.45856  -0.45822  -0.45735
 Alpha  occ. eigenvalues --   -0.45581  -0.45345  -0.45230  -0.44930  -0.44908
 Alpha  occ. eigenvalues --   -0.44622  -0.44362  -0.44272  -0.44068  -0.44015
 Alpha  occ. eigenvalues --   -0.43774  -0.43527  -0.43390  -0.43291  -0.43222
 Alpha  occ. eigenvalues --   -0.42896  -0.42835  -0.42675  -0.42563  -0.42509
 Alpha  occ. eigenvalues --   -0.42101  -0.41694  -0.41636  -0.41397  -0.41236
 Alpha  occ. eigenvalues --   -0.41036  -0.40779  -0.40218  -0.40157  -0.40093
 Alpha  occ. eigenvalues --   -0.39869  -0.39628  -0.39202  -0.38957  -0.38686
 Alpha  occ. eigenvalues --   -0.38538  -0.38243  -0.38148  -0.37604  -0.37281
 Alpha  occ. eigenvalues --   -0.37252  -0.36974  -0.36806  -0.36662  -0.36049
 Alpha  occ. eigenvalues --   -0.35760  -0.35718  -0.35311  -0.34785  -0.34209
 Alpha  occ. eigenvalues --   -0.34058  -0.33176  -0.32913  -0.32614  -0.31520
 Alpha  occ. eigenvalues --   -0.30860  -0.30035  -0.29802  -0.28360  -0.23849
 Alpha  occ. eigenvalues --   -0.21359
 Alpha virt. eigenvalues --   -0.08662  -0.01350  -0.00065   0.02597   0.03365
 Alpha virt. eigenvalues --    0.05317   0.05782   0.06267   0.06513   0.06906
 Alpha virt. eigenvalues --    0.07336   0.07609   0.08366   0.08901   0.09187

 Mulliken charges:
               1
     1  Mg   0.834316
     2  C    0.065518
     3  C   -0.072327
     4  C   -0.090031
     5  C   -0.072004
     6  N   -0.290225
     7  C   -0.073066
     8  C   -0.045256
     9  C   -0.105546
    10  C   -0.009653
    11  C    0.103455
    12  C    0.079955
    13  C    0.107113
    14  C    0.129012
    15  O   -0.220985
    16  O   -0.345391
    17  N   -0.367287
    18  C    0.199281
    19  C   -0.168840
    20  C   -0.068558
    21  C    0.160196
    22  C    0.105108
    23  C    0.064700
    24  O   -0.163408
    25  C   -0.000726
    26  N   -0.273161
    27  C    0.047004
    28  C   -0.025202
    29  C   -0.042450
    30  C    0.064034
    31  C    0.076991
    32  C    0.049067
    33  C   -0.003097
    34  N   -0.328710
    35  C    0.080256
    36  C   -0.169552
    37  C    0.037303
    38  C    0.057785
    39  C    0.127988
    40  C    0.020635
    41  O   -0.193889
    42  C   -0.039553
    43  C    0.198795
    44  O   -0.227340
    45  O   -0.326397
    46  C    0.164874
    47  C    0.279271
    48  C   -0.139109
    49  C   -0.217028
    50  C    0.131998
    51  C    0.066622
    52  C    0.026679
    53  C    0.032343
    54  C   -0.113587
    55  C    0.057693
    56  C    0.030237
    57  C    0.007381
    58  C    0.065898
    59  C   -0.134178
    60  C    0.042853
    61  C    0.058946
    62  C    0.026718
    63  C    0.077969
    64  C   -0.171355
    65  C    0.045727
    66  C    0.011337
    67  H   -0.032050
    68  H   -0.007454
    69  H   -0.029390
    70  H    0.036181
    71  H    0.023180
    72  H    0.008669
    73  H    0.018934
    74  H    0.027459
    75  H    0.008355
    76  H    0.011613
    77  H    0.033341
    78  H    0.018271
    79  H    0.033397
    80  H    0.043599
    81  H    0.020166
    82  H    0.028794
    83  H    0.047229
    84  H    0.038380
    85  H    0.003306
    86  H   -0.000353
    87  H    0.029482
    88  H   -0.001398
    89  H    0.017676
    90  H    0.002160
    91  H    0.004626
    92  H    0.014309
    93  H    0.024416
    94  H    0.010423
    95  H    0.027729
    96  H   -0.001471
    97  H    0.037868
    98  H    0.036304
    99  H    0.024570
   100  H    0.043327
   101  H    0.059785
   102  H    0.031089
   103  H    0.059954
   104  H   -0.003932
   105  H    0.017647
   106  H    0.033838
   107  H   -0.010429
   108  H   -0.005519
   109  H    0.015539
   110  H    0.012540
   111  H    0.003599
   112  H   -0.005761
   113  H   -0.013270
   114  H   -0.018185
   115  H   -0.003440
   116  H   -0.004008
   117  H    0.009685
   118  H   -0.013018
   119  H   -0.001377
   120  H    0.003745
   121  H    0.000839
   122  H   -0.013126
   123  H   -0.004880
   124  H   -0.013496
   125  H    0.021963
   126  H   -0.002282
   127  H    0.008870
   128  H   -0.005565
   129  H   -0.027710
   130  H    0.000959
   131  H   -0.005510
   132  H   -0.007629
   133  H   -0.003353
   134  H   -0.001624
   135  H   -0.002923
   136  H    0.007222
   137  H    0.003780
   138  H    0.010210
   139  H    0.017095
   140  H    0.009882
 Sum of Mulliken charges =  -0.00000

 Dipole moment (field-independent basis, Debye):
    X=             -3.0603    Y=              7.4582    Z=              0.7083  Tot=              8.0927
 Quadrupole moment (field-independent basis, Debye-Ang):
   XX=           -372.4225   YY=           -417.4773   ZZ=           -414.2350
   XY=             13.1113   XZ=             18.5751   YZ=              4.4730

 Normal termination of Gaussian 16 at Sat Apr 30 05:20:06 2022.
