 Gaussian 16, Revision A.03,
 Gaussian 16:  ES64L-G16RevA.03 25-Dec-2016

 ---------------------------------
 #p PBE1PBE/Def2SVP td=(nstates=5)
 ---------------------------------

 -----------------------------------------------------
 step_601_chromophore_25 TDDFT with PBE1PBE functional
 -----------------------------------------------------
 Symbolic Z-matrix:
 Charge =  0 Multiplicity = 1

                         Standard orientation:
 ---------------------------------------------------------------------
 Center     Atomic      Atomic             Coordinates (Angstroms)
 Number     Number       Type             X           Y           Z
 ---------------------------------------------------------------------
      1         12           0        5.931064    0.425501    0.201742
      2          6           0        3.769045   -2.281637    0.148301
      3          6           0        3.328527    2.554419    0.197096
      4          6           0        8.069756    2.920753   -0.335967
      5          6           0        8.681951   -1.793922    0.329607
      6          7           0        3.745839    0.070685    0.120791
      7          6           0        3.081742   -1.093403    0.210186
      8          6           0        1.532018   -0.817432    0.184855
      9          6           0        1.431649    0.813024    0.280245
     10          6           0        2.916216    1.205363    0.137586
     11          6           0        0.467946    1.431902   -0.742538
     12          6           0        0.911189   -1.417784    1.384603
     13          6           0       -0.168754   -2.392384    1.112072
     14          6           0       -1.539823   -1.929694    1.710395
     15          8           0       -1.942280   -2.286114    2.793567
     16          8           0       -2.198857   -1.112375    0.844593
     17          7           0        5.705695    2.410141   -0.099248
     18          6           0        4.581302    3.143269   -0.088694
     19          6           0        4.817473    4.583064   -0.034096
     20          6           0        6.215069    4.713853   -0.409821
     21          6           0        6.749390    3.270265   -0.248511
     22          6           0        3.702890    5.600226    0.103949
     23          6           0        7.095473    5.986557   -0.742061
     24          8           0        8.284890    5.912105   -0.862038
     25          6           0        6.412970    7.282761   -0.940979
     26          7           0        8.057850    0.547885    0.064791
     27          6           0        8.678680    1.701787   -0.221963
     28          6           0       10.204137    1.476423   -0.313169
     29          6           0       10.385542    0.098480    0.301579
     30          6           0        8.945118   -0.455743    0.211215
     31          6           0       10.724410    1.585950   -1.757468
     32          6           0       10.984339    0.108029    1.804729
     33          6           0       12.234254   -0.747947    1.977873
     34          7           0        6.176262   -1.653882    0.322644
     35          6           0        7.348826   -2.402001    0.314863
     36          6           0        7.053432   -3.802093    0.257078
     37          6           0        5.587530   -3.862922    0.189521
     38          6           0        5.161390   -2.508997    0.213655
     39          6           0        8.018338   -4.969896    0.371679
     40          6           0        4.426881   -4.671438    0.016733
     41          8           0        4.373840   -5.893832   -0.154831
     42          6           0        3.226259   -3.678243    0.011072
     43          6           0        2.460525   -3.868892   -1.292493
     44          8           0        2.734521   -3.378048   -2.386277
     45          8           0        1.307891   -4.553109   -1.027165
     46          6           0        0.441249   -4.838557   -2.150597
     47          6           0       -3.623179   -0.817074    1.283182
     48          6           0       -4.516239   -0.787715    0.057069
     49          6           0       -5.751725   -0.316592   -0.029106
     50          6           0       -6.587776    0.216682    1.085890
     51          6           0       -6.339947   -0.086894   -1.465812
     52          6           0       -7.762216   -0.643361   -1.636271
     53          6           0       -8.814709    0.428988   -1.799099
     54          6           0      -10.006679    0.152308   -2.772498
     55          6           0       -9.567989    0.610820   -4.151932
     56          6           0      -11.308550    0.788261   -2.326613
     57          6           0      -12.538414   -0.060859   -2.498134
     58          6           0      -13.787525    0.696905   -1.831760
     59          6           0      -14.222672    0.061199   -0.500691
     60          6           0      -15.427422   -0.991295   -0.714317
     61          6           0      -14.670226    1.069534    0.540173
     62          6           0      -14.313501    0.696704    1.960595
     63          6           0      -13.428027    1.717135    2.708988
     64          6           0      -12.134528    1.155176    3.247783
     65          6           0      -11.685050    1.641367    4.639830
     66          6           0      -10.915414    1.378954    2.256334
     67          1           0        2.402159    3.057862    0.484614
     68          1           0        8.786129    3.717114   -0.546547
     69          1           0        9.469726   -2.525828    0.520512
     70          1           0        1.150571   -1.157135   -0.778604
     71          1           0        1.166882    1.235845    1.250031
     72          1           0       -0.325100    1.927603   -0.183374
     73          1           0        0.062423    0.533392   -1.208464
     74          1           0        1.013703    2.150356   -1.354005
     75          1           0        0.663660   -0.618253    2.083017
     76          1           0        1.683332   -1.955328    1.935587
     77          1           0        0.111831   -3.338478    1.574166
     78          1           0       -0.268131   -2.475782    0.029148
     79          1           0        2.922113    5.207361    0.754911
     80          1           0        3.238214    5.869752   -0.844438
     81          1           0        4.235269    6.471676    0.486022
     82          1           0        7.185111    7.970420   -1.286078
     83          1           0        6.001770    7.850619   -0.105531
     84          1           0        5.565693    7.284551   -1.625929
     85          1           0       10.736379    2.235464    0.261534
     86          1           0       11.038664   -0.581226   -0.245027
     87          1           0        9.942961    1.232585   -2.430715
     88          1           0       11.618670    0.968276   -1.841986
     89          1           0       11.226233    2.510567   -2.044081
     90          1           0       10.210127   -0.325139    2.437508
     91          1           0       11.074331    1.120137    2.198849
     92          1           0       12.782855   -0.634737    1.043874
     93          1           0       11.979252   -1.772069    2.253078
     94          1           0       12.933605   -0.431889    2.751141
     95          1           0        7.799665   -5.582483    1.245510
     96          1           0        9.041659   -4.626453    0.517089
     97          1           0        7.883507   -5.640651   -0.476826
     98          1           0        2.549973   -3.903641    0.835476
     99          1           0       -0.433326   -4.194000   -2.076267
    100          1           0        0.119427   -5.852697   -1.913777
    101          1           0        0.909793   -4.704121   -3.125073
    102          1           0       -3.706381    0.213932    1.626618
    103          1           0       -4.029878   -1.490399    2.038417
    104          1           0       -4.031243   -1.020811   -0.891641
    105          1           0       -6.469484    1.299866    1.041415
    106          1           0       -6.453034   -0.356253    2.003606
    107          1           0       -7.636576    0.189280    0.792120
    108          1           0       -5.701505   -0.605090   -2.180580
    109          1           0       -6.227448    0.987992   -1.609538
    110          1           0       -8.028899   -1.248391   -0.768914
    111          1           0       -7.682385   -1.308476   -2.496719
    112          1           0       -8.423334    1.435840   -1.948236
    113          1           0       -9.346874    0.478781   -0.849239
    114          1           0      -10.181040   -0.921048   -2.842921
    115          1           0      -10.301084    0.388809   -4.927556
    116          1           0       -8.723365    0.007156   -4.486219
    117          1           0       -9.332090    1.674757   -4.168262
    118          1           0      -11.484530    1.577791   -3.057341
    119          1           0      -11.205844    1.147816   -1.302539
    120          1           0      -12.238793   -0.977805   -1.990268
    121          1           0      -12.761742   -0.147577   -3.562240
    122          1           0      -14.675662    0.716935   -2.462722
    123          1           0      -13.415135    1.709365   -1.680036
    124          1           0      -13.382104   -0.539672   -0.153233
    125          1           0      -15.447982   -1.540337    0.226971
    126          1           0      -15.229061   -1.652134   -1.558444
    127          1           0      -16.275669   -0.445179   -1.127751
    128          1           0      -15.696096    1.419677    0.426820
    129          1           0      -14.083582    1.981746    0.432730
    130          1           0      -13.826348   -0.276929    1.986275
    131          1           0      -15.285592    0.645939    2.450335
    132          1           0      -14.034639    2.144138    3.507587
    133          1           0      -13.140021    2.531481    2.044901
    134          1           0      -12.124947    0.077329    3.407663
    135          1           0      -10.799098    2.273223    4.575886
    136          1           0      -11.381462    0.815442    5.281980
    137          1           0      -12.486010    2.208227    5.114302
    138          1           0      -10.150654    0.658056    2.547350
    139          1           0      -10.539702    2.398208    2.345633
    140          1           0      -11.203083    1.165510    1.227042
 ---------------------------------------------------------------------

 SCF Done:  E(RPBE1PBE) =  -3005.36077619     A.U. after   15 cycles

 Excitation energies and oscillator strengths:

 Excited State   1:      Singlet-A      1.9058 eV  650.56 nm  f=0.3913  <S**2>=0.000
     245 -> 248       -0.16822
     246 -> 247        0.68986
     246 <- 247       -0.10353
 This state for optimization and/or second-order correction.
 Total Energy, E(TD-HF/TD-DFT) =  -3005.29073958
 Copying the excited state density for this state as the 1-particle RhoCI density.

 Excited State   2:      Singlet-A      2.2218 eV  558.03 nm  f=0.1511  <S**2>=0.000
     245 -> 247        0.66196
     246 -> 248        0.22115

 Excited State   3:      Singlet-A      2.8703 eV  431.95 nm  f=0.0012  <S**2>=0.000
     243 -> 247        0.58444
     243 -> 249       -0.12053
     243 -> 250       -0.11143
     244 -> 247        0.35563

 Excited State   4:      Singlet-A      2.8950 eV  428.27 nm  f=0.0089  <S**2>=0.000
     243 -> 247       -0.35017
     244 -> 247        0.59969

 Excited State   5:      Singlet-A      3.3013 eV  375.56 nm  f=0.0124  <S**2>=0.000
     239 -> 247        0.12606
     240 -> 247        0.14895
     241 -> 247        0.66240

 The electronic state is 1-A.
 Alpha  occ. eigenvalues --  -46.91492 -19.26593 -19.25611 -19.20622 -19.19929
 Alpha  occ. eigenvalues --  -19.19787 -19.17887 -14.41417 -14.40988 -14.39895
 Alpha  occ. eigenvalues --  -14.38202 -10.36230 -10.36185 -10.33719 -10.31035
 Alpha  occ. eigenvalues --  -10.29993 -10.29018 -10.28611 -10.28456 -10.28370
 Alpha  occ. eigenvalues --  -10.28369 -10.28067 -10.27569 -10.27223 -10.26982
 Alpha  occ. eigenvalues --  -10.26543 -10.26144 -10.26052 -10.25722 -10.25544
 Alpha  occ. eigenvalues --  -10.25490 -10.25249 -10.24972 -10.24970 -10.24945
 Alpha  occ. eigenvalues --  -10.24941 -10.24263 -10.24254 -10.24166 -10.24043
 Alpha  occ. eigenvalues --  -10.23826 -10.23715 -10.23695 -10.23543 -10.23535
 Alpha  occ. eigenvalues --  -10.23411 -10.23316 -10.23129 -10.23052 -10.23005
 Alpha  occ. eigenvalues --  -10.22984 -10.22888 -10.22860 -10.22848 -10.22731
 Alpha  occ. eigenvalues --  -10.22563 -10.22510 -10.22463 -10.22282 -10.22260
 Alpha  occ. eigenvalues --  -10.22189 -10.22012 -10.21864 -10.21845 -10.21766
 Alpha  occ. eigenvalues --  -10.21552  -3.13684  -1.86542  -1.86024  -1.85946
 Alpha  occ. eigenvalues --   -1.11222  -1.11036  -1.07563  -1.02886  -1.02712
 Alpha  occ. eigenvalues --   -1.02127  -0.99392  -0.98509  -0.97742  -0.96554
 Alpha  occ. eigenvalues --   -0.86822  -0.85307  -0.84855  -0.84339  -0.83643
 Alpha  occ. eigenvalues --   -0.83510  -0.82541  -0.82095  -0.81775  -0.81557
 Alpha  occ. eigenvalues --   -0.79974  -0.79664  -0.79148  -0.77714  -0.77519
 Alpha  occ. eigenvalues --   -0.77188  -0.77045  -0.75859  -0.75415  -0.74794
 Alpha  occ. eigenvalues --   -0.74293  -0.72651  -0.72357  -0.71318  -0.70687
 Alpha  occ. eigenvalues --   -0.70224  -0.69621  -0.69375  -0.69000  -0.68742
 Alpha  occ. eigenvalues --   -0.67512  -0.67133  -0.65893  -0.64207  -0.63031
 Alpha  occ. eigenvalues --   -0.62864  -0.62573  -0.61851  -0.60825  -0.60414
 Alpha  occ. eigenvalues --   -0.60031  -0.59574  -0.58980  -0.58629  -0.58137
 Alpha  occ. eigenvalues --   -0.58077  -0.57521  -0.56886  -0.56453  -0.55376
 Alpha  occ. eigenvalues --   -0.54153  -0.53789  -0.53777  -0.53054  -0.52605
 Alpha  occ. eigenvalues --   -0.52098  -0.51875  -0.51306  -0.50306  -0.50115
 Alpha  occ. eigenvalues --   -0.49785  -0.49517  -0.49182  -0.48964  -0.48578
 Alpha  occ. eigenvalues --   -0.48539  -0.48412  -0.48075  -0.47677  -0.47497
 Alpha  occ. eigenvalues --   -0.47309  -0.47165  -0.47065  -0.46910  -0.46480
 Alpha  occ. eigenvalues --   -0.46340  -0.46259  -0.45732  -0.45695  -0.45484
 Alpha  occ. eigenvalues --   -0.45392  -0.45271  -0.44888  -0.44836  -0.44707
 Alpha  occ. eigenvalues --   -0.44354  -0.44085  -0.43930  -0.43613  -0.43426
 Alpha  occ. eigenvalues --   -0.43410  -0.43032  -0.42972  -0.42884  -0.42585
 Alpha  occ. eigenvalues --   -0.42568  -0.42181  -0.41989  -0.41548  -0.41338
 Alpha  occ. eigenvalues --   -0.41154  -0.40967  -0.40604  -0.40581  -0.40450
 Alpha  occ. eigenvalues --   -0.40353  -0.40020  -0.39927  -0.39807  -0.39628
 Alpha  occ. eigenvalues --   -0.39358  -0.39146  -0.39042  -0.38833  -0.38756
 Alpha  occ. eigenvalues --   -0.38445  -0.38301  -0.38104  -0.38076  -0.37986
 Alpha  occ. eigenvalues --   -0.37631  -0.37545  -0.37504  -0.37433  -0.37254
 Alpha  occ. eigenvalues --   -0.37011  -0.36549  -0.36403  -0.36198  -0.36156
 Alpha  occ. eigenvalues --   -0.35923  -0.35694  -0.35145  -0.35072  -0.34866
 Alpha  occ. eigenvalues --   -0.34808  -0.34411  -0.34108  -0.33866  -0.33472
 Alpha  occ. eigenvalues --   -0.33340  -0.33180  -0.32987  -0.32616  -0.32212
 Alpha  occ. eigenvalues --   -0.32037  -0.31878  -0.31842  -0.31494  -0.31063
 Alpha  occ. eigenvalues --   -0.30812  -0.30678  -0.30238  -0.29726  -0.29370
 Alpha  occ. eigenvalues --   -0.29042  -0.28268  -0.28166  -0.27559  -0.26971
 Alpha  occ. eigenvalues --   -0.26216  -0.25290  -0.24909  -0.24362  -0.20767
 Alpha  occ. eigenvalues --   -0.18934
 Alpha virt. eigenvalues --   -0.11150  -0.04936  -0.04150  -0.01815   0.00504
 Alpha virt. eigenvalues --    0.00826   0.01228   0.01974   0.02222   0.03121
 Alpha virt. eigenvalues --    0.03697   0.04111   0.04912   0.05062   0.05626

 Mulliken charges:
               1
     1  Mg   0.987480
     2  C    0.043766
     3  C   -0.076085
     4  C   -0.077282
     5  C   -0.059321
     6  N   -0.393553
     7  C    0.010010
     8  C   -0.130541
     9  C   -0.173822
    10  C    0.030466
    11  C    0.044766
    12  C    0.042340
    13  C    0.020700
    14  C    0.199681
    15  O   -0.254423
    16  O   -0.373682
    17  N   -0.484152
    18  C    0.219193
    19  C   -0.188936
    20  C   -0.105059
    21  C    0.181380
    22  C    0.040314
    23  C    0.107069
    24  O   -0.203258
    25  C   -0.066892
    26  N   -0.383535
    27  C    0.081623
    28  C   -0.109389
    29  C   -0.113620
    30  C    0.096690
    31  C    0.024154
    32  C   -0.004346
    33  C   -0.078696
    34  N   -0.457284
    35  C    0.106750
    36  C   -0.185067
    37  C   -0.001303
    38  C    0.113140
    39  C    0.073692
    40  C    0.109451
    41  O   -0.238191
    42  C   -0.144281
    43  C    0.289571
    44  O   -0.261886
    45  O   -0.358891
    46  C    0.111545
    47  C    0.237095
    48  C   -0.149288
    49  C   -0.261699
    50  C    0.064356
    51  C    0.008170
    52  C   -0.040345
    53  C   -0.026830
    54  C   -0.195602
    55  C   -0.002499
    56  C   -0.033695
    57  C   -0.058650
    58  C    0.012918
    59  C   -0.219625
    60  C   -0.018736
    61  C    0.004257
    62  C   -0.033042
    63  C    0.019007
    64  C   -0.259994
    65  C   -0.011768
    66  C   -0.063316
    67  H    0.000164
    68  H    0.025013
    69  H    0.003199
    70  H    0.070575
    71  H    0.058043
    72  H    0.036195
    73  H    0.046319
    74  H    0.055128
    75  H    0.040285
    76  H    0.045353
    77  H    0.065496
    78  H    0.054449
    79  H    0.058867
    80  H    0.069187
    81  H    0.049084
    82  H    0.054936
    83  H    0.070800
    84  H    0.064130
    85  H    0.039479
    86  H    0.035386
    87  H    0.056834
    88  H    0.025991
    89  H    0.044690
    90  H    0.036221
    91  H    0.036903
    92  H    0.042245
    93  H    0.051110
    94  H    0.039379
    95  H    0.056923
    96  H    0.027282
    97  H    0.066416
    98  H    0.075853
    99  H    0.046447
   100  H    0.065416
   101  H    0.080068
   102  H    0.058617
   103  H    0.084679
   104  H    0.025498
   105  H    0.046350
   106  H    0.060458
   107  H    0.021593
   108  H    0.026280
   109  H    0.048215
   110  H    0.046067
   111  H    0.035874
   112  H    0.025272
   113  H    0.023293
   114  H    0.019705
   115  H    0.025659
   116  H    0.025361
   117  H    0.037041
   118  H    0.022207
   119  H    0.037101
   120  H    0.035179
   121  H    0.034125
   122  H    0.019368
   123  H    0.026790
   124  H    0.024436
   125  H    0.050321
   126  H    0.026914
   127  H    0.035972
   128  H    0.025682
   129  H    0.006772
   130  H    0.032106
   131  H    0.028307
   132  H    0.024858
   133  H    0.028380
   134  H    0.036324
   135  H    0.024300
   136  H    0.034422
   137  H    0.031051
   138  H    0.038913
   139  H    0.044250
   140  H    0.047393
 Sum of Mulliken charges =  -0.00000

 Dipole moment (field-independent basis, Debye):
    X=             -2.9516    Y=              6.6945    Z=              0.7979  Tot=              7.3597
 Quadrupole moment (field-independent basis, Debye-Ang):
   XX=           -365.5945   YY=           -415.3741   ZZ=           -411.6420
   XY=              7.6320   XZ=             19.6043   YZ=              4.5169

 Normal termination of Gaussian 16 at Sat Apr 30 05:40:35 2022.
