 Gaussian 16, Revision A.03,
 Gaussian 16:  ES64L-G16RevA.03 25-Dec-2016

 --------------------------------
 #p wB97XD/Def2SVP td=(nstates=5)
 --------------------------------

 ----------------------------------------------------
 step_601_chromophore_25 TDDFT with wB97XD functional
 ----------------------------------------------------
 Symbolic Z-matrix:
 Charge =  0 Multiplicity = 1

                         Standard orientation:
 ---------------------------------------------------------------------
 Center     Atomic      Atomic             Coordinates (Angstroms)
 Number     Number       Type             X           Y           Z
 ---------------------------------------------------------------------
      1         12           0        5.931064    0.425501    0.201742
      2          6           0        3.769045   -2.281637    0.148301
      3          6           0        3.328527    2.554419    0.197096
      4          6           0        8.069756    2.920753   -0.335967
      5          6           0        8.681951   -1.793922    0.329607
      6          7           0        3.745839    0.070685    0.120791
      7          6           0        3.081742   -1.093403    0.210186
      8          6           0        1.532018   -0.817432    0.184855
      9          6           0        1.431649    0.813024    0.280245
     10          6           0        2.916216    1.205363    0.137586
     11          6           0        0.467946    1.431902   -0.742538
     12          6           0        0.911189   -1.417784    1.384603
     13          6           0       -0.168754   -2.392384    1.112072
     14          6           0       -1.539823   -1.929694    1.710395
     15          8           0       -1.942280   -2.286114    2.793567
     16          8           0       -2.198857   -1.112375    0.844593
     17          7           0        5.705695    2.410141   -0.099248
     18          6           0        4.581302    3.143269   -0.088694
     19          6           0        4.817473    4.583064   -0.034096
     20          6           0        6.215069    4.713853   -0.409821
     21          6           0        6.749390    3.270265   -0.248511
     22          6           0        3.702890    5.600226    0.103949
     23          6           0        7.095473    5.986557   -0.742061
     24          8           0        8.284890    5.912105   -0.862038
     25          6           0        6.412970    7.282761   -0.940979
     26          7           0        8.057850    0.547885    0.064791
     27          6           0        8.678680    1.701787   -0.221963
     28          6           0       10.204137    1.476423   -0.313169
     29          6           0       10.385542    0.098480    0.301579
     30          6           0        8.945118   -0.455743    0.211215
     31          6           0       10.724410    1.585950   -1.757468
     32          6           0       10.984339    0.108029    1.804729
     33          6           0       12.234254   -0.747947    1.977873
     34          7           0        6.176262   -1.653882    0.322644
     35          6           0        7.348826   -2.402001    0.314863
     36          6           0        7.053432   -3.802093    0.257078
     37          6           0        5.587530   -3.862922    0.189521
     38          6           0        5.161390   -2.508997    0.213655
     39          6           0        8.018338   -4.969896    0.371679
     40          6           0        4.426881   -4.671438    0.016733
     41          8           0        4.373840   -5.893832   -0.154831
     42          6           0        3.226259   -3.678243    0.011072
     43          6           0        2.460525   -3.868892   -1.292493
     44          8           0        2.734521   -3.378048   -2.386277
     45          8           0        1.307891   -4.553109   -1.027165
     46          6           0        0.441249   -4.838557   -2.150597
     47          6           0       -3.623179   -0.817074    1.283182
     48          6           0       -4.516239   -0.787715    0.057069
     49          6           0       -5.751725   -0.316592   -0.029106
     50          6           0       -6.587776    0.216682    1.085890
     51          6           0       -6.339947   -0.086894   -1.465812
     52          6           0       -7.762216   -0.643361   -1.636271
     53          6           0       -8.814709    0.428988   -1.799099
     54          6           0      -10.006679    0.152308   -2.772498
     55          6           0       -9.567989    0.610820   -4.151932
     56          6           0      -11.308550    0.788261   -2.326613
     57          6           0      -12.538414   -0.060859   -2.498134
     58          6           0      -13.787525    0.696905   -1.831760
     59          6           0      -14.222672    0.061199   -0.500691
     60          6           0      -15.427422   -0.991295   -0.714317
     61          6           0      -14.670226    1.069534    0.540173
     62          6           0      -14.313501    0.696704    1.960595
     63          6           0      -13.428027    1.717135    2.708988
     64          6           0      -12.134528    1.155176    3.247783
     65          6           0      -11.685050    1.641367    4.639830
     66          6           0      -10.915414    1.378954    2.256334
     67          1           0        2.402159    3.057862    0.484614
     68          1           0        8.786129    3.717114   -0.546547
     69          1           0        9.469726   -2.525828    0.520512
     70          1           0        1.150571   -1.157135   -0.778604
     71          1           0        1.166882    1.235845    1.250031
     72          1           0       -0.325100    1.927603   -0.183374
     73          1           0        0.062423    0.533392   -1.208464
     74          1           0        1.013703    2.150356   -1.354005
     75          1           0        0.663660   -0.618253    2.083017
     76          1           0        1.683332   -1.955328    1.935587
     77          1           0        0.111831   -3.338478    1.574166
     78          1           0       -0.268131   -2.475782    0.029148
     79          1           0        2.922113    5.207361    0.754911
     80          1           0        3.238214    5.869752   -0.844438
     81          1           0        4.235269    6.471676    0.486022
     82          1           0        7.185111    7.970420   -1.286078
     83          1           0        6.001770    7.850619   -0.105531
     84          1           0        5.565693    7.284551   -1.625929
     85          1           0       10.736379    2.235464    0.261534
     86          1           0       11.038664   -0.581226   -0.245027
     87          1           0        9.942961    1.232585   -2.430715
     88          1           0       11.618670    0.968276   -1.841986
     89          1           0       11.226233    2.510567   -2.044081
     90          1           0       10.210127   -0.325139    2.437508
     91          1           0       11.074331    1.120137    2.198849
     92          1           0       12.782855   -0.634737    1.043874
     93          1           0       11.979252   -1.772069    2.253078
     94          1           0       12.933605   -0.431889    2.751141
     95          1           0        7.799665   -5.582483    1.245510
     96          1           0        9.041659   -4.626453    0.517089
     97          1           0        7.883507   -5.640651   -0.476826
     98          1           0        2.549973   -3.903641    0.835476
     99          1           0       -0.433326   -4.194000   -2.076267
    100          1           0        0.119427   -5.852697   -1.913777
    101          1           0        0.909793   -4.704121   -3.125073
    102          1           0       -3.706381    0.213932    1.626618
    103          1           0       -4.029878   -1.490399    2.038417
    104          1           0       -4.031243   -1.020811   -0.891641
    105          1           0       -6.469484    1.299866    1.041415
    106          1           0       -6.453034   -0.356253    2.003606
    107          1           0       -7.636576    0.189280    0.792120
    108          1           0       -5.701505   -0.605090   -2.180580
    109          1           0       -6.227448    0.987992   -1.609538
    110          1           0       -8.028899   -1.248391   -0.768914
    111          1           0       -7.682385   -1.308476   -2.496719
    112          1           0       -8.423334    1.435840   -1.948236
    113          1           0       -9.346874    0.478781   -0.849239
    114          1           0      -10.181040   -0.921048   -2.842921
    115          1           0      -10.301084    0.388809   -4.927556
    116          1           0       -8.723365    0.007156   -4.486219
    117          1           0       -9.332090    1.674757   -4.168262
    118          1           0      -11.484530    1.577791   -3.057341
    119          1           0      -11.205844    1.147816   -1.302539
    120          1           0      -12.238793   -0.977805   -1.990268
    121          1           0      -12.761742   -0.147577   -3.562240
    122          1           0      -14.675662    0.716935   -2.462722
    123          1           0      -13.415135    1.709365   -1.680036
    124          1           0      -13.382104   -0.539672   -0.153233
    125          1           0      -15.447982   -1.540337    0.226971
    126          1           0      -15.229061   -1.652134   -1.558444
    127          1           0      -16.275669   -0.445179   -1.127751
    128          1           0      -15.696096    1.419677    0.426820
    129          1           0      -14.083582    1.981746    0.432730
    130          1           0      -13.826348   -0.276929    1.986275
    131          1           0      -15.285592    0.645939    2.450335
    132          1           0      -14.034639    2.144138    3.507587
    133          1           0      -13.140021    2.531481    2.044901
    134          1           0      -12.124947    0.077329    3.407663
    135          1           0      -10.799098    2.273223    4.575886
    136          1           0      -11.381462    0.815442    5.281980
    137          1           0      -12.486010    2.208227    5.114302
    138          1           0      -10.150654    0.658056    2.547350
    139          1           0      -10.539702    2.398208    2.345633
    140          1           0      -11.203083    1.165510    1.227042
 ---------------------------------------------------------------------

 SCF Done:  E(RwB97XD) =  -3007.86946444     A.U. after   19 cycles

 Excitation energies and oscillator strengths:

 Excited State   1:      Singlet-A      1.7510 eV  708.06 nm  f=0.4060  <S**2>=0.000
     245 -> 248       -0.17619
     246 -> 247        0.68349
     245 <- 248       -0.10827
 This state for optimization and/or second-order correction.
 Total Energy, E(TD-HF/TD-DFT) =  -3007.80511506
 Copying the excited state density for this state as the 1-particle RhoCI density.

 Excited State   2:      Singlet-A      2.1803 eV  568.67 nm  f=0.1516  <S**2>=0.000
     245 -> 247        0.64964
     246 -> 248        0.25572

 Excited State   3:      Singlet-A      3.3349 eV  371.77 nm  f=0.0075  <S**2>=0.000
     241 -> 247       -0.12845
     244 -> 247        0.67463
     244 -> 249       -0.10622

 Excited State   4:      Singlet-A      3.5282 eV  351.41 nm  f=0.0006  <S**2>=0.000
     243 -> 247        0.57053
     243 -> 249       -0.25061
     243 -> 250       -0.29263

 Excited State   5:      Singlet-A      3.6295 eV  341.61 nm  f=0.2798  <S**2>=0.000
     240 -> 247       -0.21702
     241 -> 247       -0.41355
     245 -> 247       -0.15640
     246 -> 248        0.48451

 The electronic state is 1-A.
 Alpha  occ. eigenvalues --  -46.94431 -19.31125 -19.30068 -19.25792 -19.24559
 Alpha  occ. eigenvalues --  -19.24366 -19.22322 -14.46506 -14.46076 -14.45082
 Alpha  occ. eigenvalues --  -14.42896 -10.42938 -10.42917 -10.40909 -10.37589
 Alpha  occ. eigenvalues --  -10.36485 -10.35623 -10.35427 -10.35247 -10.34873
 Alpha  occ. eigenvalues --  -10.34701 -10.34401 -10.34209 -10.33573 -10.33378
 Alpha  occ. eigenvalues --  -10.32739 -10.32352 -10.32337 -10.32096 -10.31726
 Alpha  occ. eigenvalues --  -10.31647 -10.31478 -10.31431 -10.31275 -10.31150
 Alpha  occ. eigenvalues --  -10.31085 -10.30881 -10.30644 -10.30595 -10.30367
 Alpha  occ. eigenvalues --  -10.30175 -10.30034 -10.30017 -10.29989 -10.29910
 Alpha  occ. eigenvalues --  -10.29677 -10.29591 -10.29447 -10.29399 -10.29371
 Alpha  occ. eigenvalues --  -10.29349 -10.29287 -10.29229 -10.29169 -10.29101
 Alpha  occ. eigenvalues --  -10.28942 -10.28934 -10.28820 -10.28694 -10.28638
 Alpha  occ. eigenvalues --  -10.28377 -10.28321 -10.28224 -10.28182 -10.28009
 Alpha  occ. eigenvalues --  -10.27916  -3.20466  -1.94076  -1.93560  -1.93477
 Alpha  occ. eigenvalues --   -1.18569  -1.18317  -1.15368  -1.10188  -1.09872
 Alpha  occ. eigenvalues --   -1.09367  -1.06969  -1.06022  -1.04958  -1.03751
 Alpha  occ. eigenvalues --   -0.94237  -0.92979  -0.92450  -0.91999  -0.91310
 Alpha  occ. eigenvalues --   -0.91291  -0.90112  -0.89755  -0.89533  -0.89437
 Alpha  occ. eigenvalues --   -0.87550  -0.87195  -0.86684  -0.85365  -0.85112
 Alpha  occ. eigenvalues --   -0.85026  -0.84784  -0.83457  -0.82987  -0.82380
 Alpha  occ. eigenvalues --   -0.81941  -0.80577  -0.79934  -0.78844  -0.78372
 Alpha  occ. eigenvalues --   -0.77779  -0.77201  -0.77079  -0.76665  -0.76430
 Alpha  occ. eigenvalues --   -0.75011  -0.74612  -0.73465  -0.71855  -0.70723
 Alpha  occ. eigenvalues --   -0.70432  -0.70155  -0.69336  -0.68453  -0.67930
 Alpha  occ. eigenvalues --   -0.67510  -0.67061  -0.66592  -0.66036  -0.65792
 Alpha  occ. eigenvalues --   -0.65580  -0.65197  -0.64528  -0.63783  -0.63062
 Alpha  occ. eigenvalues --   -0.61511  -0.61296  -0.61207  -0.60418  -0.59845
 Alpha  occ. eigenvalues --   -0.59545  -0.59358  -0.58887  -0.57708  -0.57584
 Alpha  occ. eigenvalues --   -0.57103  -0.57003  -0.56567  -0.56408  -0.55998
 Alpha  occ. eigenvalues --   -0.55916  -0.55730  -0.55418  -0.55051  -0.54933
 Alpha  occ. eigenvalues --   -0.54728  -0.54626  -0.54536  -0.54342  -0.53844
 Alpha  occ. eigenvalues --   -0.53656  -0.53634  -0.53337  -0.53088  -0.52919
 Alpha  occ. eigenvalues --   -0.52704  -0.52652  -0.52285  -0.52171  -0.51866
 Alpha  occ. eigenvalues --   -0.51766  -0.51501  -0.51302  -0.50929  -0.50741
 Alpha  occ. eigenvalues --   -0.50707  -0.50354  -0.50298  -0.50012  -0.49845
 Alpha  occ. eigenvalues --   -0.49796  -0.49389  -0.49258  -0.48831  -0.48592
 Alpha  occ. eigenvalues --   -0.48410  -0.48156  -0.47765  -0.47723  -0.47615
 Alpha  occ. eigenvalues --   -0.47488  -0.47180  -0.47164  -0.46852  -0.46797
 Alpha  occ. eigenvalues --   -0.46527  -0.46312  -0.46193  -0.46013  -0.45938
 Alpha  occ. eigenvalues --   -0.45643  -0.45450  -0.45253  -0.45219  -0.45124
 Alpha  occ. eigenvalues --   -0.44906  -0.44701  -0.44636  -0.44436  -0.44381
 Alpha  occ. eigenvalues --   -0.44053  -0.43562  -0.43543  -0.43267  -0.43177
 Alpha  occ. eigenvalues --   -0.42899  -0.42709  -0.42112  -0.42070  -0.41955
 Alpha  occ. eigenvalues --   -0.41772  -0.41470  -0.41127  -0.40907  -0.40517
 Alpha  occ. eigenvalues --   -0.40394  -0.40154  -0.39997  -0.39518  -0.39198
 Alpha  occ. eigenvalues --   -0.39112  -0.38953  -0.38857  -0.38496  -0.38035
 Alpha  occ. eigenvalues --   -0.37670  -0.37600  -0.37152  -0.36628  -0.36170
 Alpha  occ. eigenvalues --   -0.35996  -0.35109  -0.34969  -0.34818  -0.33736
 Alpha  occ. eigenvalues --   -0.33099  -0.32082  -0.31718  -0.30479  -0.25785
 Alpha  occ. eigenvalues --   -0.23183
 Alpha virt. eigenvalues --   -0.06996   0.00579   0.01965   0.04743   0.06416
 Alpha virt. eigenvalues --    0.07695   0.08022   0.08660   0.08965   0.09482
 Alpha virt. eigenvalues --    0.10115   0.10717   0.11628   0.11861   0.12362

 Mulliken charges:
               1
     1  Mg   0.976267
     2  C    0.047795
     3  C   -0.090942
     4  C   -0.099239
     5  C   -0.075104
     6  N   -0.360652
     7  C   -0.025149
     8  C   -0.100366
     9  C   -0.149744
    10  C    0.020553
    11  C    0.055752
    12  C    0.047616
    13  C    0.044159
    14  C    0.189030
    15  O   -0.252899
    16  O   -0.373905
    17  N   -0.453364
    18  C    0.216380
    19  C   -0.181315
    20  C   -0.103661
    21  C    0.181078
    22  C    0.057362
    23  C    0.110212
    24  O   -0.195753
    25  C   -0.063734
    26  N   -0.347537
    27  C    0.069792
    28  C   -0.080368
    29  C   -0.086694
    30  C    0.082207
    31  C    0.030266
    32  C    0.004927
    33  C   -0.059909
    34  N   -0.418003
    35  C    0.094066
    36  C   -0.185670
    37  C   -0.001982
    38  C    0.091612
    39  C    0.087248
    40  C    0.092979
    41  O   -0.231253
    42  C   -0.104714
    43  C    0.263362
    44  O   -0.256651
    45  O   -0.356253
    46  C    0.126364
    47  C    0.251661
    48  C   -0.158017
    49  C   -0.247287
    50  C    0.080150
    51  C    0.024070
    52  C   -0.023267
    53  C   -0.003530
    54  C   -0.170030
    55  C    0.010027
    56  C   -0.006405
    57  C   -0.040434
    58  C    0.028649
    59  C   -0.189580
    60  C   -0.004590
    61  C    0.023068
    62  C   -0.019969
    63  C    0.036504
    64  C   -0.232433
    65  C   -0.000524
    66  C   -0.037656
    67  H   -0.007955
    68  H    0.020812
    69  H   -0.004169
    70  H    0.058099
    71  H    0.047270
    72  H    0.031909
    73  H    0.041264
    74  H    0.048427
    75  H    0.032669
    76  H    0.036287
    77  H    0.061683
    78  H    0.041153
    79  H    0.056045
    80  H    0.066796
    81  H    0.041470
    82  H    0.054873
    83  H    0.068950
    84  H    0.060905
    85  H    0.030841
    86  H    0.022767
    87  H    0.051810
    88  H    0.020288
    89  H    0.040198
    90  H    0.027167
    91  H    0.028859
    92  H    0.033845
    93  H    0.045687
    94  H    0.033855
    95  H    0.050026
    96  H    0.019640
    97  H    0.060391
    98  H    0.065102
    99  H    0.041591
   100  H    0.061694
   101  H    0.076650
   102  H    0.052587
   103  H    0.080869
   104  H    0.022364
   105  H    0.040788
   106  H    0.056777
   107  H    0.009983
   108  H    0.019826
   109  H    0.039135
   110  H    0.036926
   111  H    0.028251
   112  H    0.015781
   113  H    0.006577
   114  H    0.007746
   115  H    0.019240
   116  H    0.018162
   117  H    0.030407
   118  H    0.010889
   119  H    0.017994
   120  H    0.024396
   121  H    0.026623
   122  H    0.011987
   123  H    0.016014
   124  H    0.008582
   125  H    0.044399
   126  H    0.020115
   127  H    0.028580
   128  H    0.019315
   129  H   -0.008723
   130  H    0.020460
   131  H    0.021558
   132  H    0.017583
   133  H    0.018015
   134  H    0.024637
   135  H    0.017395
   136  H    0.029425
   137  H    0.024803
   138  H    0.032398
   139  H    0.036948
   140  H    0.029719
 Sum of Mulliken charges =  -0.00000

 Dipole moment (field-independent basis, Debye):
    X=             -3.1160    Y=              7.7710    Z=              0.6766  Tot=              8.3998
 Quadrupole moment (field-independent basis, Debye-Ang):
   XX=           -367.5813   YY=           -413.0084   ZZ=           -411.3374
   XY=             14.1810   XZ=             18.9965   YZ=              4.3910

 Normal termination of Gaussian 16 at Sat Apr 30 06:06:00 2022.
