 Gaussian 16, Revision A.03,
 Gaussian 16:  ES64L-G16RevA.03 25-Dec-2016

 --------------------
 #p ZINDO=(nstates=5)
 --------------------

 -----------------------------
 step_601_chromophore_25 ZINDO
 -----------------------------
 Symbolic Z-matrix:
 Charge =  0 Multiplicity = 1

                         Standard orientation:
 ---------------------------------------------------------------------
 Center     Atomic      Atomic             Coordinates (Angstroms)
 Number     Number       Type             X           Y           Z
 ---------------------------------------------------------------------
      1         12           0        5.931064    0.425501    0.201742
      2          6           0        3.769045   -2.281637    0.148301
      3          6           0        3.328527    2.554419    0.197096
      4          6           0        8.069756    2.920753   -0.335967
      5          6           0        8.681951   -1.793922    0.329607
      6          7           0        3.745839    0.070685    0.120791
      7          6           0        3.081742   -1.093403    0.210186
      8          6           0        1.532018   -0.817432    0.184855
      9          6           0        1.431649    0.813024    0.280245
     10          6           0        2.916216    1.205363    0.137586
     11          6           0        0.467946    1.431902   -0.742538
     12          6           0        0.911189   -1.417784    1.384603
     13          6           0       -0.168754   -2.392384    1.112072
     14          6           0       -1.539823   -1.929694    1.710395
     15          8           0       -1.942280   -2.286114    2.793567
     16          8           0       -2.198857   -1.112375    0.844593
     17          7           0        5.705695    2.410141   -0.099248
     18          6           0        4.581302    3.143269   -0.088694
     19          6           0        4.817473    4.583064   -0.034096
     20          6           0        6.215069    4.713853   -0.409821
     21          6           0        6.749390    3.270265   -0.248511
     22          6           0        3.702890    5.600226    0.103949
     23          6           0        7.095473    5.986557   -0.742061
     24          8           0        8.284890    5.912105   -0.862038
     25          6           0        6.412970    7.282761   -0.940979
     26          7           0        8.057850    0.547885    0.064791
     27          6           0        8.678680    1.701787   -0.221963
     28          6           0       10.204137    1.476423   -0.313169
     29          6           0       10.385542    0.098480    0.301579
     30          6           0        8.945118   -0.455743    0.211215
     31          6           0       10.724410    1.585950   -1.757468
     32          6           0       10.984339    0.108029    1.804729
     33          6           0       12.234254   -0.747947    1.977873
     34          7           0        6.176262   -1.653882    0.322644
     35          6           0        7.348826   -2.402001    0.314863
     36          6           0        7.053432   -3.802093    0.257078
     37          6           0        5.587530   -3.862922    0.189521
     38          6           0        5.161390   -2.508997    0.213655
     39          6           0        8.018338   -4.969896    0.371679
     40          6           0        4.426881   -4.671438    0.016733
     41          8           0        4.373840   -5.893832   -0.154831
     42          6           0        3.226259   -3.678243    0.011072
     43          6           0        2.460525   -3.868892   -1.292493
     44          8           0        2.734521   -3.378048   -2.386277
     45          8           0        1.307891   -4.553109   -1.027165
     46          6           0        0.441249   -4.838557   -2.150597
     47          6           0       -3.623179   -0.817074    1.283182
     48          6           0       -4.516239   -0.787715    0.057069
     49          6           0       -5.751725   -0.316592   -0.029106
     50          6           0       -6.587776    0.216682    1.085890
     51          6           0       -6.339947   -0.086894   -1.465812
     52          6           0       -7.762216   -0.643361   -1.636271
     53          6           0       -8.814709    0.428988   -1.799099
     54          6           0      -10.006679    0.152308   -2.772498
     55          6           0       -9.567989    0.610820   -4.151932
     56          6           0      -11.308550    0.788261   -2.326613
     57          6           0      -12.538414   -0.060859   -2.498134
     58          6           0      -13.787525    0.696905   -1.831760
     59          6           0      -14.222672    0.061199   -0.500691
     60          6           0      -15.427422   -0.991295   -0.714317
     61          6           0      -14.670226    1.069534    0.540173
     62          6           0      -14.313501    0.696704    1.960595
     63          6           0      -13.428027    1.717135    2.708988
     64          6           0      -12.134528    1.155176    3.247783
     65          6           0      -11.685050    1.641367    4.639830
     66          6           0      -10.915414    1.378954    2.256334
     67          1           0        2.402159    3.057862    0.484614
     68          1           0        8.786129    3.717114   -0.546547
     69          1           0        9.469726   -2.525828    0.520512
     70          1           0        1.150571   -1.157135   -0.778604
     71          1           0        1.166882    1.235845    1.250031
     72          1           0       -0.325100    1.927603   -0.183374
     73          1           0        0.062423    0.533392   -1.208464
     74          1           0        1.013703    2.150356   -1.354005
     75          1           0        0.663660   -0.618253    2.083017
     76          1           0        1.683332   -1.955328    1.935587
     77          1           0        0.111831   -3.338478    1.574166
     78          1           0       -0.268131   -2.475782    0.029148
     79          1           0        2.922113    5.207361    0.754911
     80          1           0        3.238214    5.869752   -0.844438
     81          1           0        4.235269    6.471676    0.486022
     82          1           0        7.185111    7.970420   -1.286078
     83          1           0        6.001770    7.850619   -0.105531
     84          1           0        5.565693    7.284551   -1.625929
     85          1           0       10.736379    2.235464    0.261534
     86          1           0       11.038664   -0.581226   -0.245027
     87          1           0        9.942961    1.232585   -2.430715
     88          1           0       11.618670    0.968276   -1.841986
     89          1           0       11.226233    2.510567   -2.044081
     90          1           0       10.210127   -0.325139    2.437508
     91          1           0       11.074331    1.120137    2.198849
     92          1           0       12.782855   -0.634737    1.043874
     93          1           0       11.979252   -1.772069    2.253078
     94          1           0       12.933605   -0.431889    2.751141
     95          1           0        7.799665   -5.582483    1.245510
     96          1           0        9.041659   -4.626453    0.517089
     97          1           0        7.883507   -5.640651   -0.476826
     98          1           0        2.549973   -3.903641    0.835476
     99          1           0       -0.433326   -4.194000   -2.076267
    100          1           0        0.119427   -5.852697   -1.913777
    101          1           0        0.909793   -4.704121   -3.125073
    102          1           0       -3.706381    0.213932    1.626618
    103          1           0       -4.029878   -1.490399    2.038417
    104          1           0       -4.031243   -1.020811   -0.891641
    105          1           0       -6.469484    1.299866    1.041415
    106          1           0       -6.453034   -0.356253    2.003606
    107          1           0       -7.636576    0.189280    0.792120
    108          1           0       -5.701505   -0.605090   -2.180580
    109          1           0       -6.227448    0.987992   -1.609538
    110          1           0       -8.028899   -1.248391   -0.768914
    111          1           0       -7.682385   -1.308476   -2.496719
    112          1           0       -8.423334    1.435840   -1.948236
    113          1           0       -9.346874    0.478781   -0.849239
    114          1           0      -10.181040   -0.921048   -2.842921
    115          1           0      -10.301084    0.388809   -4.927556
    116          1           0       -8.723365    0.007156   -4.486219
    117          1           0       -9.332090    1.674757   -4.168262
    118          1           0      -11.484530    1.577791   -3.057341
    119          1           0      -11.205844    1.147816   -1.302539
    120          1           0      -12.238793   -0.977805   -1.990268
    121          1           0      -12.761742   -0.147577   -3.562240
    122          1           0      -14.675662    0.716935   -2.462722
    123          1           0      -13.415135    1.709365   -1.680036
    124          1           0      -13.382104   -0.539672   -0.153233
    125          1           0      -15.447982   -1.540337    0.226971
    126          1           0      -15.229061   -1.652134   -1.558444
    127          1           0      -16.275669   -0.445179   -1.127751
    128          1           0      -15.696096    1.419677    0.426820
    129          1           0      -14.083582    1.981746    0.432730
    130          1           0      -13.826348   -0.276929    1.986275
    131          1           0      -15.285592    0.645939    2.450335
    132          1           0      -14.034639    2.144138    3.507587
    133          1           0      -13.140021    2.531481    2.044901
    134          1           0      -12.124947    0.077329    3.407663
    135          1           0      -10.799098    2.273223    4.575886
    136          1           0      -11.381462    0.815442    5.281980
    137          1           0      -12.486010    2.208227    5.114302
    138          1           0      -10.150654    0.658056    2.547350
    139          1           0      -10.539702    2.398208    2.345633
    140          1           0      -11.203083    1.165510    1.227042
 ---------------------------------------------------------------------

 SCF Done:  E(RZINDO/S) =  -474.497550823     A.U. after   19 cycles

 Excitation energies and oscillator strengths:

 Excited State   1:      Singlet-A      1.3513 eV  917.52 nm  f=0.5996  <S**2>=0.000
     175 ->178         0.16556
     176 ->177         0.67026
 This state for optimization and/or second-order correction.
 Total Energy, E(CIS/TDA) =  -474.447891486
 Copying the excited state density for this state as the 1-particle RhoCI density.

 Excited State   2:      Singlet-A      1.9208 eV  645.49 nm  f=0.1095  <S**2>=0.000
     175 ->177         0.58038
     176 ->178        -0.36190

 Excited State   3:      Singlet-A      3.0307 eV  409.10 nm  f=0.3037  <S**2>=0.000
     167 ->177         0.21467
     167 ->179        -0.32871
     167 ->180         0.14651
     167 ->184        -0.10801
     167 ->185        -0.17194
     169 ->177         0.17608
     169 ->179        -0.12024
     175 ->177         0.20528
     176 ->178         0.34921

 Excited State   4:      Singlet-A      3.0428 eV  407.47 nm  f=0.5934  <S**2>=0.000
     167 ->177        -0.14857
     167 ->179         0.22110
     167 ->185         0.10848
     174 ->177         0.12501
     175 ->177         0.26604
     176 ->178         0.43040
     176 ->179        -0.20888
     176 ->180        -0.13445

 Excited State   5:      Singlet-A      3.0625 eV  404.85 nm  f=0.0285  <S**2>=0.000
     167 ->179        -0.10722
     171 ->177         0.31897
     171 ->178        -0.13263
     171 ->179         0.23879
     171 ->180         0.37792
     171 ->185         0.18235
     171 ->188        -0.13672
     171 ->189         0.13189
     171 ->203        -0.13517

 The electronic state is 1-A.
 Alpha  occ. eigenvalues --   -1.83486  -1.82336  -1.80321  -1.72663  -1.72033
 Alpha  occ. eigenvalues --   -1.69891  -1.66888  -1.62572  -1.61839  -1.57516
 Alpha  occ. eigenvalues --   -1.56565  -1.52436  -1.50060  -1.47582  -1.46691
 Alpha  occ. eigenvalues --   -1.45732  -1.43491  -1.40550  -1.40161  -1.39807
 Alpha  occ. eigenvalues --   -1.37234  -1.34079  -1.32983  -1.31484  -1.29561
 Alpha  occ. eigenvalues --   -1.27813  -1.24926  -1.23233  -1.20254  -1.18132
 Alpha  occ. eigenvalues --   -1.17865  -1.16628  -1.14698  -1.14022  -1.12303
 Alpha  occ. eigenvalues --   -1.12082  -1.11561  -1.11049  -1.05470  -1.03662
 Alpha  occ. eigenvalues --   -1.02940  -1.01170  -0.98879  -0.98141  -0.96366
 Alpha  occ. eigenvalues --   -0.95631  -0.94743  -0.93508  -0.93081  -0.92696
 Alpha  occ. eigenvalues --   -0.90435  -0.89774  -0.88403  -0.87631  -0.86989
 Alpha  occ. eigenvalues --   -0.86853  -0.84716  -0.83834  -0.81922  -0.80384
 Alpha  occ. eigenvalues --   -0.79620  -0.79177  -0.77704  -0.77288  -0.76511
 Alpha  occ. eigenvalues --   -0.75715  -0.75360  -0.74733  -0.74430  -0.73672
 Alpha  occ. eigenvalues --   -0.73270  -0.72818  -0.72568  -0.71858  -0.70906
 Alpha  occ. eigenvalues --   -0.70496  -0.69971  -0.69670  -0.68381  -0.67925
 Alpha  occ. eigenvalues --   -0.67640  -0.66928  -0.66280  -0.66218  -0.65757
 Alpha  occ. eigenvalues --   -0.65354  -0.64909  -0.64613  -0.64346  -0.63740
 Alpha  occ. eigenvalues --   -0.63241  -0.62897  -0.62442  -0.61991  -0.61642
 Alpha  occ. eigenvalues --   -0.61408  -0.60677  -0.60583  -0.60487  -0.60344
 Alpha  occ. eigenvalues --   -0.59668  -0.59280  -0.59252  -0.58686  -0.58134
 Alpha  occ. eigenvalues --   -0.57789  -0.57419  -0.57017  -0.56538  -0.56130
 Alpha  occ. eigenvalues --   -0.55911  -0.55491  -0.54822  -0.54401  -0.54226
 Alpha  occ. eigenvalues --   -0.54013  -0.53914  -0.53357  -0.52838  -0.52753
 Alpha  occ. eigenvalues --   -0.52647  -0.52226  -0.52068  -0.51674  -0.51526
 Alpha  occ. eigenvalues --   -0.51039  -0.50914  -0.50750  -0.50686  -0.50664
 Alpha  occ. eigenvalues --   -0.50120  -0.50000  -0.49730  -0.49463  -0.49034
 Alpha  occ. eigenvalues --   -0.48930  -0.48416  -0.48253  -0.47527  -0.47264
 Alpha  occ. eigenvalues --   -0.47225  -0.47172  -0.47046  -0.46827  -0.46680
 Alpha  occ. eigenvalues --   -0.46443  -0.45930  -0.45897  -0.45718  -0.45075
 Alpha  occ. eigenvalues --   -0.44637  -0.44586  -0.44385  -0.43954  -0.43771
 Alpha  occ. eigenvalues --   -0.43390  -0.43122  -0.42889  -0.42505  -0.42427
 Alpha  occ. eigenvalues --   -0.42070  -0.41293  -0.40888  -0.39150  -0.38425
 Alpha  occ. eigenvalues --   -0.37985  -0.37265  -0.36339  -0.34428  -0.34178
 Alpha  occ. eigenvalues --   -0.33593  -0.32711  -0.32410  -0.30681  -0.26506
 Alpha  occ. eigenvalues --   -0.22157
 Alpha virt. eigenvalues --   -0.08570  -0.01813  -0.00969   0.01377   0.02377
 Alpha virt. eigenvalues --    0.02974   0.03245   0.03527   0.04512   0.05093
 Alpha virt. eigenvalues --    0.05211   0.06357   0.07293   0.07564   0.08077

 Mulliken charges:
               1
     1  Mg   0.422914
     2  C   -0.028529
     3  C   -0.097533
     4  C   -0.066757
     5  C   -0.065672
     6  N   -0.288970
     7  C    0.105920
     8  C    0.005440
     9  C   -0.010740
    10  C    0.145674
    11  C   -0.056140
    12  C   -0.011529
    13  C    0.006529
    14  C    0.464297
    15  O   -0.518468
    16  O   -0.270488
    17  N   -0.310613
    18  C    0.151413
    19  C    0.013945
    20  C   -0.058700
    21  C    0.156685
    22  C   -0.038818
    23  C    0.348046
    24  O   -0.486016
    25  C   -0.033212
    26  N   -0.267048
    27  C    0.175638
    28  C    0.015057
    29  C   -0.005463
    30  C    0.097324
    31  C   -0.054699
    32  C   -0.033820
    33  C   -0.055099
    34  N   -0.317833
    35  C    0.058284
    36  C    0.004206
    37  C   -0.082774
    38  C    0.112781
    39  C   -0.037613
    40  C    0.332054
    41  O   -0.547922
    42  C    0.058572
    43  C    0.485510
    44  O   -0.528847
    45  O   -0.269798
    46  C    0.074503
    47  C    0.099264
    48  C   -0.092736
    49  C   -0.018026
    50  C   -0.049191
    51  C   -0.028959
    52  C   -0.024237
    53  C   -0.036191
    54  C   -0.013092
    55  C   -0.053470
    56  C   -0.034452
    57  C   -0.042288
    58  C   -0.044124
    59  C   -0.015574
    60  C   -0.071127
    61  C   -0.033612
    62  C   -0.035534
    63  C   -0.023973
    64  C   -0.014573
    65  C   -0.059517
    66  C   -0.061078
    67  H    0.026644
    68  H    0.039266
    69  H    0.032561
    70  H    0.049043
    71  H    0.038984
    72  H    0.018680
    73  H    0.033839
    74  H    0.033033
    75  H    0.026935
    76  H    0.019554
    77  H    0.043947
    78  H    0.039674
    79  H    0.035539
    80  H    0.037547
    81  H    0.028619
    82  H    0.031807
    83  H    0.041940
    84  H    0.034405
    85  H    0.027138
    86  H    0.028107
    87  H    0.032225
    88  H    0.011753
    89  H    0.028390
    90  H    0.014939
    91  H    0.023814
    92  H    0.019277
    93  H    0.026209
    94  H    0.015555
    95  H    0.028111
    96  H    0.020066
    97  H    0.037916
    98  H    0.048488
    99  H    0.028510
   100  H    0.036582
   101  H    0.061074
   102  H    0.044452
   103  H    0.067870
   104  H    0.029454
   105  H    0.036928
   106  H    0.037277
   107  H    0.018475
   108  H    0.018585
   109  H    0.029925
   110  H    0.023983
   111  H    0.018352
   112  H    0.023689
   113  H    0.005361
   114  H    0.017193
   115  H    0.008658
   116  H    0.010140
   117  H    0.022296
   118  H    0.013991
   119  H    0.024912
   120  H    0.028177
   121  H    0.023627
   122  H    0.021003
   123  H    0.018807
   124  H    0.021028
   125  H    0.031898
   126  H    0.010462
   127  H    0.028857
   128  H    0.023353
   129  H    0.006817
   130  H    0.023508
   131  H    0.013553
   132  H    0.016005
   133  H    0.021425
   134  H    0.017959
   135  H    0.015364
   136  H    0.017213
   137  H    0.017110
   138  H    0.014654
   139  H    0.022810
   140  H    0.015458
 Sum of Mulliken charges =  -0.00000

 Dipole moment (field-independent basis, Debye):
    X=             -4.3505    Y=             12.6099    Z=              1.0972  Tot=             13.3843
 N-N= 4.257588097763D+03 E-N= 0.000000000000D+00  KE=-9.189618346262D+03
 Leave Link  601 at Sat Apr 30 06:20:16 2022, MaxMem=  6710886400 cpu:               3.0 elap:               0.2
 (Enter /sw/apps/gaussian-16.0/g16/l9999.exe)
 1\1\GINC-BP1-COMPUTE150\SP\RZINDO CIS\STO-3G\C55H74Mg1N4O6\OF15641\30-
 Apr-2022\0\\#p ZINDO=(nstates=5)\\step_601_chromophore_25 ZINDO\\0,1\M
 g,0,-2.355,34.495,27.303\C,0,-3.267,32.399,29.907\C,0,-0.502,36.359,29
 .4\C,0,-2.022,36.755,24.88\C,0,-4.199,32.48,25.056\N,0,-2.015,34.346,2
 9.487\C,0,-2.39,33.369,30.329\C,0,-1.839,33.678,31.771\C,0,-0.857,34.9
 66,31.538\C,0,-1.164,35.304,30.065\C,0,-1.076,36.099,32.551\C,0,-1.037
 ,32.529,32.242\C,0,-1.485,31.932,33.52\C,0,-0.385,32.031,34.63\O,0,0.3

 Normal termination of Gaussian 16 at Sat Apr 30 06:20:16 2022.
