 Gaussian 16, Revision A.03,
 Gaussian 16:  ES64L-G16RevA.03 25-Dec-2016

 ------------------------------
 #p blyp/Def2SVP td=(nstates=5)
 ------------------------------

 -------------------------------------------------
 step_501_chromophore_6 TDDFT with blyp functional
 -------------------------------------------------
 Symbolic Z-matrix:
 Charge =  0 Multiplicity = 1

                         Standard orientation:
 ---------------------------------------------------------------------
 Center     Atomic      Atomic             Coordinates (Angstroms)
 Number     Number       Type             X           Y           Z
 ---------------------------------------------------------------------
      1         12           0       -5.382014    1.001555   -0.146301
      2          6           0       -4.791847   -2.423804    0.068511
      3          6           0       -1.987576    1.558448   -0.196371
      4          6           0       -6.119710    4.295900   -0.072491
      5          6           0       -8.859170    0.318550    0.314785
      6          7           0       -3.644150   -0.293369    0.039429
      7          6           0       -3.615983   -1.652894    0.087650
      8          6           0       -2.179075   -2.186173    0.019862
      9          6           0       -1.336025   -0.836590    0.084906
     10          6           0       -2.429436    0.228607   -0.048100
     11          6           0       -0.574172   -0.699259    1.397569
     12          6           0       -1.781758   -2.922312   -1.309004
     13          6           0       -0.704092   -3.971703   -1.223361
     14          6           0        0.151679   -4.034306   -0.038259
     15          8           0       -0.095835   -4.661329    1.015083
     16          8           0        1.317665   -3.377438   -0.298068
     17          7           0       -4.232119    2.654021   -0.226393
     18          6           0       -2.822968    2.668778   -0.233652
     19          6           0       -2.436607    4.036159   -0.463945
     20          6           0       -3.591447    4.858368   -0.488413
     21          6           0       -4.732462    3.939676   -0.253081
     22          6           0       -0.998668    4.507705   -0.426921
     23          6           0       -3.751743    6.301224   -0.727067
     24          8           0       -4.786308    6.899383   -0.521524
     25          6           0       -2.512098    7.185786   -1.116090
     26          7           0       -7.270016    2.209006   -0.081176
     27          6           0       -7.268910    3.507836   -0.039373
     28          6           0       -8.712897    4.074461    0.110218
     29          6           0       -9.600260    2.843954    0.159308
     30          6           0       -8.552428    1.673631    0.187867
     31          6           0       -8.790737    5.087331    1.347656
     32          6           0      -10.615768    2.782009   -1.001207
     33          6           0      -12.067354    3.321504   -0.717064
     34          7           0       -6.609302   -0.609414   -0.127302
     35          6           0       -8.005313   -0.752607    0.069262
     36          6           0       -8.389361   -2.112466    0.044684
     37          6           0       -7.103496   -2.797805    0.128592
     38          6           0       -6.096944   -1.800891   -0.017885
     39          6           0       -9.781655   -2.651373    0.318040
     40          6           0       -6.575262   -4.101911    0.291297
     41          8           0       -7.108831   -5.200184    0.384947
     42          6           0       -4.925785   -3.892945    0.162776
     43          6           0       -4.352350   -4.551311    1.383142
     44          8           0       -4.630355   -4.234944    2.544639
     45          8           0       -3.544882   -5.684398    1.068548
     46          6           0       -2.946639   -6.401474    2.237808
     47          6           0        2.500479   -3.566981    0.583264
     48          6           0        3.694509   -3.510394   -0.289807
     49          6           0        4.426629   -2.405691   -0.416447
     50          6           0        4.095084   -1.040727    0.184223
     51          6           0        5.552335   -2.387122   -1.461024
     52          6           0        6.926279   -2.773057   -1.057284
     53          6           0        7.970145   -2.826927   -2.209567
     54          6           0        8.945407   -1.604329   -2.346635
     55          6           0        9.586060   -1.550071   -3.727248
     56          6           0       10.047697   -1.646439   -1.281552
     57          6           0       10.800895   -0.299854   -1.091004
     58          6           0       12.378283   -0.354463   -1.199759
     59          6           0       13.163029    0.947555   -0.543579
     60          6           0       14.386750    1.319733   -1.357100
     61          6           0       13.634554    0.700254    0.921249
     62          6           0       13.087350    1.734243    1.939147
     63          6           0       14.255964    2.315598    2.741532
     64          6           0       14.901712    3.485277    1.949629
     65          6           0       14.719275    4.802093    2.756477
     66          6           0       16.420739    3.156286    1.663125
     67          1           0       -0.899742    1.660583   -0.205568
     68          1           0       -6.256163    5.359456    0.132355
     69          1           0       -9.913833    0.051466    0.404777
     70          1           0       -2.040802   -2.797130    0.912167
     71          1           0       -0.589326   -0.763883   -0.705717
     72          1           0       -0.531924   -1.648708    1.930609
     73          1           0       -0.952920    0.109807    2.022712
     74          1           0        0.496455   -0.538869    1.270341
     75          1           0       -1.495993   -2.158948   -2.031845
     76          1           0       -2.705941   -3.320167   -1.728737
     77          1           0        0.004269   -3.761769   -2.024466
     78          1           0       -1.156853   -4.956152   -1.341823
     79          1           0       -0.782275    5.159552    0.419398
     80          1           0       -0.780604    4.996301   -1.377486
     81          1           0       -0.241817    3.731563   -0.314570
     82          1           0       -2.001365    7.407089   -0.178567
     83          1           0       -2.844144    8.164485   -1.462758
     84          1           0       -1.830834    6.637386   -1.765517
     85          1           0       -8.844332    4.646993   -0.808140
     86          1           0      -10.090210    2.736604    1.125825
     87          1           0       -9.557138    4.770514    2.054881
     88          1           0       -9.123494    6.088050    1.071384
     89          1           0       -7.802813    5.030239    1.806508
     90          1           0      -10.692205    1.729364   -1.275867
     91          1           0      -10.160879    3.309649   -1.839655
     92          1           0      -12.641245    2.505406   -0.276634
     93          1           0      -12.623964    3.792348   -1.527593
     94          1           0      -11.861366    4.013559    0.098774
     95          1           0      -10.266624   -2.585944   -0.655582
     96          1           0      -10.317471   -2.026711    1.031763
     97          1           0       -9.838999   -3.596355    0.859771
     98          1           0       -4.588173   -4.340728   -0.772714
     99          1           0       -3.714108   -6.831273    2.880513
    100          1           0       -2.271762   -5.851384    2.894125
    101          1           0       -2.449225   -7.210026    1.702160
    102          1           0        2.467522   -4.560411    1.031469
    103          1           0        2.547886   -2.914208    1.455030
    104          1           0        4.082690   -4.453786   -0.672601
    105          1           0        4.098305   -0.272608   -0.588345
    106          1           0        4.810471   -0.836459    0.981605
    107          1           0        3.078912   -0.920937    0.560418
    108          1           0        5.695961   -1.378782   -1.847785
    109          1           0        5.384756   -3.109687   -2.260012
    110          1           0        6.985139   -3.638242   -0.397897
    111          1           0        7.250596   -2.027643   -0.330581
    112          1           0        7.420885   -2.754691   -3.147997
    113          1           0        8.494573   -3.781371   -2.159239
    114          1           0        8.292860   -0.743276   -2.202801
    115          1           0       10.662306   -1.380192   -3.712352
    116          1           0        9.089670   -0.763265   -4.295085
    117          1           0        9.348902   -2.499974   -4.205136
    118          1           0       10.681988   -2.530620   -1.356686
    119          1           0        9.535261   -1.769926   -0.327956
    120          1           0       10.532775    0.102671   -0.114205
    121          1           0       10.450897    0.383152   -1.865362
    122          1           0       12.629679   -0.320188   -2.260821
    123          1           0       12.770732   -1.216684   -0.661700
    124          1           0       12.448969    1.771189   -0.560944
    125          1           0       15.209604    1.715534   -0.761261
    126          1           0       13.918702    2.053967   -2.012687
    127          1           0       14.692049    0.449560   -1.937151
    128          1           0       14.716246    0.747878    1.041120
    129          1           0       13.294675   -0.292062    1.221282
    130          1           0       12.378718    1.229547    2.595447
    131          1           0       12.557652    2.537269    1.426813
    132          1           0       15.023116    1.554016    2.888043
    133          1           0       13.823586    2.704225    3.663133
    134          1           0       14.456222    3.556427    0.957740
    135          1           0       14.400666    5.560491    2.041983
    136          1           0       15.646382    5.209986    3.160599
    137          1           0       14.020941    4.766169    3.592364
    138          1           0       17.036535    4.036428    1.848630
    139          1           0       16.600430    2.814169    0.644037
    140          1           0       16.683038    2.420347    2.423025
 ---------------------------------------------------------------------

 SCF Done:  E(RB-LYP) =  -3007.39917458     A.U. after   21 cycles

 Excitation energies and oscillator strengths:

 Excited State   1:      Singlet-A      1.7921 eV  691.82 nm  f=0.2711  <S**2>=0.000
     244 -> 247       -0.18197
     245 -> 248       -0.18172
     246 -> 247        0.66760
     246 <- 247       -0.14342
 This state for optimization and/or second-order correction.
 Total Energy, E(TD-HF/TD-DFT) =  -3007.33331458
 Copying the excited state density for this state as the 1-particle RhoCI density.

 Excited State   2:      Singlet-A      1.8013 eV  688.32 nm  f=0.0218  <S**2>=0.000
     243 -> 247       -0.18117
     244 -> 247        0.56298
     245 -> 247        0.34885
     246 -> 247        0.14793

 Excited State   3:      Singlet-A      1.8816 eV  658.93 nm  f=0.0263  <S**2>=0.000
     243 -> 247        0.56931
     244 -> 247        0.31898
     245 -> 247       -0.24583

 Excited State   4:      Singlet-A      2.0325 eV  610.00 nm  f=0.0815  <S**2>=0.000
     243 -> 247        0.37064
     244 -> 247       -0.21094
     245 -> 247        0.50574
     246 -> 248        0.21631

 Excited State   5:      Singlet-A      2.4039 eV  515.77 nm  f=0.0019  <S**2>=0.000
     240 -> 247        0.14763
     241 -> 247        0.27800
     242 -> 247        0.62006

 The electronic state is 1-A.
 Alpha  occ. eigenvalues --  -46.26431 -18.82770 -18.80426 -18.77023 -18.75756
 Alpha  occ. eigenvalues --  -18.75549 -18.75517 -14.03678 -14.02792 -14.01420
 Alpha  occ. eigenvalues --  -14.01118 -10.04340 -10.02921  -9.99767  -9.99157
 Alpha  occ. eigenvalues --   -9.98218  -9.96627  -9.96619  -9.96583  -9.96570
 Alpha  occ. eigenvalues --   -9.96078  -9.96048  -9.95974  -9.95277  -9.94827
 Alpha  occ. eigenvalues --   -9.94312  -9.94197  -9.93854  -9.93820  -9.93695
 Alpha  occ. eigenvalues --   -9.93649  -9.93594  -9.93584  -9.93553  -9.93538
 Alpha  occ. eigenvalues --   -9.93414  -9.93372  -9.93335  -9.93217  -9.92873
 Alpha  occ. eigenvalues --   -9.92815  -9.92732  -9.92504  -9.92441  -9.92404
 Alpha  occ. eigenvalues --   -9.92324  -9.92220  -9.92179  -9.92156  -9.92039
 Alpha  occ. eigenvalues --   -9.92034  -9.91971  -9.91888  -9.91880  -9.91802
 Alpha  occ. eigenvalues --   -9.91795  -9.91781  -9.91245  -9.91165  -9.91004
 Alpha  occ. eigenvalues --   -9.90998  -9.90965  -9.90736  -9.90709  -9.90677
 Alpha  occ. eigenvalues --   -9.90634  -2.91212  -1.71650  -1.71095  -1.70920
 Alpha  occ. eigenvalues --   -0.97690  -0.94260  -0.92196  -0.90601  -0.89160
 Alpha  occ. eigenvalues --   -0.87370  -0.87243  -0.86405  -0.85836  -0.84475
 Alpha  occ. eigenvalues --   -0.75049  -0.74857  -0.73549  -0.73005  -0.72636
 Alpha  occ. eigenvalues --   -0.72418  -0.71673  -0.71086  -0.70688  -0.70586
 Alpha  occ. eigenvalues --   -0.70008  -0.69762  -0.68872  -0.66970  -0.66841
 Alpha  occ. eigenvalues --   -0.66406  -0.65718  -0.65381  -0.64839  -0.64148
 Alpha  occ. eigenvalues --   -0.63798  -0.62762  -0.62638  -0.61595  -0.61175
 Alpha  occ. eigenvalues --   -0.60309  -0.60224  -0.59654  -0.59587  -0.58908
 Alpha  occ. eigenvalues --   -0.58628  -0.58040  -0.56592  -0.56343  -0.54655
 Alpha  occ. eigenvalues --   -0.54060  -0.53465  -0.53064  -0.52431  -0.51869
 Alpha  occ. eigenvalues --   -0.51413  -0.51207  -0.50772  -0.50640  -0.50304
 Alpha  occ. eigenvalues --   -0.49733  -0.49274  -0.48656  -0.47290  -0.47242
 Alpha  occ. eigenvalues --   -0.46463  -0.46271  -0.45860  -0.45407  -0.44229
 Alpha  occ. eigenvalues --   -0.44052  -0.43738  -0.43163  -0.42936  -0.42832
 Alpha  occ. eigenvalues --   -0.42274  -0.41743  -0.41329  -0.41321  -0.41032
 Alpha  occ. eigenvalues --   -0.40640  -0.40246  -0.40185  -0.40160  -0.39778
 Alpha  occ. eigenvalues --   -0.39611  -0.39537  -0.39411  -0.39222  -0.39097
 Alpha  occ. eigenvalues --   -0.38970  -0.38942  -0.38754  -0.38560  -0.37981
 Alpha  occ. eigenvalues --   -0.37774  -0.37711  -0.37611  -0.37303  -0.37277
 Alpha  occ. eigenvalues --   -0.37101  -0.37027  -0.36988  -0.36771  -0.36632
 Alpha  occ. eigenvalues --   -0.36515  -0.36300  -0.35948  -0.35791  -0.35622
 Alpha  occ. eigenvalues --   -0.35442  -0.35421  -0.35217  -0.35000  -0.34813
 Alpha  occ. eigenvalues --   -0.34669  -0.34533  -0.34472  -0.34208  -0.34089
 Alpha  occ. eigenvalues --   -0.33779  -0.33413  -0.33364  -0.33135  -0.33089
 Alpha  occ. eigenvalues --   -0.32990  -0.32792  -0.32527  -0.32302  -0.32159
 Alpha  occ. eigenvalues --   -0.32088  -0.32039  -0.31875  -0.31719  -0.31532
 Alpha  occ. eigenvalues --   -0.31334  -0.31263  -0.31214  -0.30755  -0.30642
 Alpha  occ. eigenvalues --   -0.30510  -0.30381  -0.30248  -0.30119  -0.30033
 Alpha  occ. eigenvalues --   -0.29952  -0.29594  -0.29502  -0.28982  -0.28961
 Alpha  occ. eigenvalues --   -0.28837  -0.28793  -0.28484  -0.28398  -0.28002
 Alpha  occ. eigenvalues --   -0.27784  -0.27277  -0.27242  -0.26631  -0.26623
 Alpha  occ. eigenvalues --   -0.26353  -0.26065  -0.25744  -0.25650  -0.25485
 Alpha  occ. eigenvalues --   -0.25347  -0.24482  -0.24251  -0.23972  -0.23426
 Alpha  occ. eigenvalues --   -0.23285  -0.22765  -0.22070  -0.21231  -0.21004
 Alpha  occ. eigenvalues --   -0.20744  -0.20406  -0.18694  -0.18426  -0.17275
 Alpha  occ. eigenvalues --   -0.16071
 Alpha virt. eigenvalues --   -0.11814  -0.06832  -0.06114  -0.04679  -0.04509
 Alpha virt. eigenvalues --   -0.03065  -0.02397  -0.01448  -0.00861  -0.00105
 Alpha virt. eigenvalues --    0.01275   0.01329   0.02069   0.02670   0.03055

 Mulliken charges:
               1
     1  Mg   0.702462
     2  C   -0.046397
     3  C   -0.090103
     4  C   -0.038898
     5  C   -0.063180
     6  N   -0.184845
     7  C   -0.071207
     8  C    0.013186
     9  C   -0.036632
    10  C    0.031555
    11  C    0.112201
    12  C    0.118649
    13  C    0.218219
    14  C    0.051372
    15  O   -0.221454
    16  O   -0.277452
    17  N   -0.352036
    18  C    0.207294
    19  C   -0.137817
    20  C    0.074022
    21  C    0.088893
    22  C    0.160581
    23  C   -0.106652
    24  O   -0.155030
    25  C    0.129433
    26  N   -0.180585
    27  C   -0.003557
    28  C    0.011529
    29  C    0.064634
    30  C   -0.013705
    31  C    0.120519
    32  C    0.096630
    33  C    0.070786
    34  N   -0.262941
    35  C    0.124023
    36  C   -0.156212
    37  C    0.051249
    38  C    0.120588
    39  C    0.167840
    40  C   -0.053915
    41  O   -0.128791
    42  C    0.065730
    43  C    0.141062
    44  O   -0.198870
    45  O   -0.310443
    46  C    0.229523
    47  C    0.324446
    48  C   -0.099444
    49  C   -0.100172
    50  C    0.135577
    51  C    0.124535
    52  C    0.068938
    53  C    0.110365
    54  C   -0.105687
    55  C    0.135282
    56  C    0.122925
    57  C    0.064480
    58  C    0.076886
    59  C   -0.118331
    60  C    0.120468
    61  C    0.111102
    62  C    0.051375
    63  C    0.110083
    64  C   -0.117717
    65  C    0.105260
    66  C    0.093206
    67  H   -0.059352
    68  H   -0.035921
    69  H   -0.058609
    70  H    0.011507
    71  H   -0.021614
    72  H   -0.001476
    73  H   -0.000086
    74  H   -0.027113
    75  H   -0.027496
    76  H   -0.030823
    77  H   -0.014768
    78  H    0.010073
    79  H    0.011950
    80  H   -0.000202
    81  H   -0.026778
    82  H    0.001791
    83  H   -0.007522
    84  H   -0.008099
    85  H   -0.013098
    86  H   -0.034522
    87  H   -0.017029
    88  H   -0.001972
    89  H    0.007286
    90  H   -0.028360
    91  H   -0.025064
    92  H   -0.007252
    93  H    0.007910
    94  H   -0.011529
    95  H    0.006739
    96  H   -0.005103
    97  H    0.012914
    98  H   -0.002749
    99  H    0.007093
   100  H    0.024671
   101  H    0.007963
   102  H   -0.016335
   103  H    0.001581
   104  H   -0.030191
   105  H   -0.003828
   106  H    0.013048
   107  H   -0.009103
   108  H   -0.034022
   109  H   -0.021734
   110  H   -0.043045
   111  H   -0.053580
   112  H   -0.041049
   113  H   -0.028880
   114  H   -0.043898
   115  H   -0.005498
   116  H   -0.019063
   117  H   -0.020721
   118  H   -0.034723
   119  H   -0.053893
   120  H   -0.024588
   121  H   -0.028511
   122  H   -0.025254
   123  H   -0.020883
   124  H   -0.032225
   125  H   -0.008816
   126  H   -0.019795
   127  H   -0.014522
   128  H   -0.033847
   129  H   -0.039331
   130  H   -0.041104
   131  H   -0.027628
   132  H   -0.023404
   133  H   -0.037298
   134  H   -0.022770
   135  H   -0.020210
   136  H   -0.020257
   137  H   -0.011235
   138  H   -0.024536
   139  H    0.001964
   140  H   -0.019013
 Sum of Mulliken charges =  -0.00000

 Dipole moment (field-independent basis, Debye):
    X=              5.0925    Y=              3.2978    Z=             -2.3472  Tot=              6.5053
 Quadrupole moment (field-independent basis, Debye-Ang):
   XX=           -390.5008   YY=           -442.1989   ZZ=           -408.6619
   XY=            -27.7525   XZ=              8.4448   YZ=             10.3744

 Normal termination of Gaussian 16 at Thu May  5 01:40:32 2022.
