 Gaussian 16, Revision A.03,
 Gaussian 16:  ES64L-G16RevA.03 25-Dec-2016

 -----------------------------------
 #p cam-b3lyp/Def2SVP td=(nstates=5)
 -----------------------------------

 ------------------------------------------------------
 step_501_chromophore_6 TDDFT with cam-b3lyp functional
 ------------------------------------------------------
 Symbolic Z-matrix:
 Charge =  0 Multiplicity = 1

                         Standard orientation:
 ---------------------------------------------------------------------
 Center     Atomic      Atomic             Coordinates (Angstroms)
 Number     Number       Type             X           Y           Z
 ---------------------------------------------------------------------
      1         12           0       -5.382014    1.001555   -0.146301
      2          6           0       -4.791847   -2.423804    0.068511
      3          6           0       -1.987576    1.558448   -0.196371
      4          6           0       -6.119710    4.295900   -0.072491
      5          6           0       -8.859170    0.318550    0.314785
      6          7           0       -3.644150   -0.293369    0.039429
      7          6           0       -3.615983   -1.652894    0.087650
      8          6           0       -2.179075   -2.186173    0.019862
      9          6           0       -1.336025   -0.836590    0.084906
     10          6           0       -2.429436    0.228607   -0.048100
     11          6           0       -0.574172   -0.699259    1.397569
     12          6           0       -1.781758   -2.922312   -1.309004
     13          6           0       -0.704092   -3.971703   -1.223361
     14          6           0        0.151679   -4.034306   -0.038259
     15          8           0       -0.095835   -4.661329    1.015083
     16          8           0        1.317665   -3.377438   -0.298068
     17          7           0       -4.232119    2.654021   -0.226393
     18          6           0       -2.822968    2.668778   -0.233652
     19          6           0       -2.436607    4.036159   -0.463945
     20          6           0       -3.591447    4.858368   -0.488413
     21          6           0       -4.732462    3.939676   -0.253081
     22          6           0       -0.998668    4.507705   -0.426921
     23          6           0       -3.751743    6.301224   -0.727067
     24          8           0       -4.786308    6.899383   -0.521524
     25          6           0       -2.512098    7.185786   -1.116090
     26          7           0       -7.270016    2.209006   -0.081176
     27          6           0       -7.268910    3.507836   -0.039373
     28          6           0       -8.712897    4.074461    0.110218
     29          6           0       -9.600260    2.843954    0.159308
     30          6           0       -8.552428    1.673631    0.187867
     31          6           0       -8.790737    5.087331    1.347656
     32          6           0      -10.615768    2.782009   -1.001207
     33          6           0      -12.067354    3.321504   -0.717064
     34          7           0       -6.609302   -0.609414   -0.127302
     35          6           0       -8.005313   -0.752607    0.069262
     36          6           0       -8.389361   -2.112466    0.044684
     37          6           0       -7.103496   -2.797805    0.128592
     38          6           0       -6.096944   -1.800891   -0.017885
     39          6           0       -9.781655   -2.651373    0.318040
     40          6           0       -6.575262   -4.101911    0.291297
     41          8           0       -7.108831   -5.200184    0.384947
     42          6           0       -4.925785   -3.892945    0.162776
     43          6           0       -4.352350   -4.551311    1.383142
     44          8           0       -4.630355   -4.234944    2.544639
     45          8           0       -3.544882   -5.684398    1.068548
     46          6           0       -2.946639   -6.401474    2.237808
     47          6           0        2.500479   -3.566981    0.583264
     48          6           0        3.694509   -3.510394   -0.289807
     49          6           0        4.426629   -2.405691   -0.416447
     50          6           0        4.095084   -1.040727    0.184223
     51          6           0        5.552335   -2.387122   -1.461024
     52          6           0        6.926279   -2.773057   -1.057284
     53          6           0        7.970145   -2.826927   -2.209567
     54          6           0        8.945407   -1.604329   -2.346635
     55          6           0        9.586060   -1.550071   -3.727248
     56          6           0       10.047697   -1.646439   -1.281552
     57          6           0       10.800895   -0.299854   -1.091004
     58          6           0       12.378283   -0.354463   -1.199759
     59          6           0       13.163029    0.947555   -0.543579
     60          6           0       14.386750    1.319733   -1.357100
     61          6           0       13.634554    0.700254    0.921249
     62          6           0       13.087350    1.734243    1.939147
     63          6           0       14.255964    2.315598    2.741532
     64          6           0       14.901712    3.485277    1.949629
     65          6           0       14.719275    4.802093    2.756477
     66          6           0       16.420739    3.156286    1.663125
     67          1           0       -0.899742    1.660583   -0.205568
     68          1           0       -6.256163    5.359456    0.132355
     69          1           0       -9.913833    0.051466    0.404777
     70          1           0       -2.040802   -2.797130    0.912167
     71          1           0       -0.589326   -0.763883   -0.705717
     72          1           0       -0.531924   -1.648708    1.930609
     73          1           0       -0.952920    0.109807    2.022712
     74          1           0        0.496455   -0.538869    1.270341
     75          1           0       -1.495993   -2.158948   -2.031845
     76          1           0       -2.705941   -3.320167   -1.728737
     77          1           0        0.004269   -3.761769   -2.024466
     78          1           0       -1.156853   -4.956152   -1.341823
     79          1           0       -0.782275    5.159552    0.419398
     80          1           0       -0.780604    4.996301   -1.377486
     81          1           0       -0.241817    3.731563   -0.314570
     82          1           0       -2.001365    7.407089   -0.178567
     83          1           0       -2.844144    8.164485   -1.462758
     84          1           0       -1.830834    6.637386   -1.765517
     85          1           0       -8.844332    4.646993   -0.808140
     86          1           0      -10.090210    2.736604    1.125825
     87          1           0       -9.557138    4.770514    2.054881
     88          1           0       -9.123494    6.088050    1.071384
     89          1           0       -7.802813    5.030239    1.806508
     90          1           0      -10.692205    1.729364   -1.275867
     91          1           0      -10.160879    3.309649   -1.839655
     92          1           0      -12.641245    2.505406   -0.276634
     93          1           0      -12.623964    3.792348   -1.527593
     94          1           0      -11.861366    4.013559    0.098774
     95          1           0      -10.266624   -2.585944   -0.655582
     96          1           0      -10.317471   -2.026711    1.031763
     97          1           0       -9.838999   -3.596355    0.859771
     98          1           0       -4.588173   -4.340728   -0.772714
     99          1           0       -3.714108   -6.831273    2.880513
    100          1           0       -2.271762   -5.851384    2.894125
    101          1           0       -2.449225   -7.210026    1.702160
    102          1           0        2.467522   -4.560411    1.031469
    103          1           0        2.547886   -2.914208    1.455030
    104          1           0        4.082690   -4.453786   -0.672601
    105          1           0        4.098305   -0.272608   -0.588345
    106          1           0        4.810471   -0.836459    0.981605
    107          1           0        3.078912   -0.920937    0.560418
    108          1           0        5.695961   -1.378782   -1.847785
    109          1           0        5.384756   -3.109687   -2.260012
    110          1           0        6.985139   -3.638242   -0.397897
    111          1           0        7.250596   -2.027643   -0.330581
    112          1           0        7.420885   -2.754691   -3.147997
    113          1           0        8.494573   -3.781371   -2.159239
    114          1           0        8.292860   -0.743276   -2.202801
    115          1           0       10.662306   -1.380192   -3.712352
    116          1           0        9.089670   -0.763265   -4.295085
    117          1           0        9.348902   -2.499974   -4.205136
    118          1           0       10.681988   -2.530620   -1.356686
    119          1           0        9.535261   -1.769926   -0.327956
    120          1           0       10.532775    0.102671   -0.114205
    121          1           0       10.450897    0.383152   -1.865362
    122          1           0       12.629679   -0.320188   -2.260821
    123          1           0       12.770732   -1.216684   -0.661700
    124          1           0       12.448969    1.771189   -0.560944
    125          1           0       15.209604    1.715534   -0.761261
    126          1           0       13.918702    2.053967   -2.012687
    127          1           0       14.692049    0.449560   -1.937151
    128          1           0       14.716246    0.747878    1.041120
    129          1           0       13.294675   -0.292062    1.221282
    130          1           0       12.378718    1.229547    2.595447
    131          1           0       12.557652    2.537269    1.426813
    132          1           0       15.023116    1.554016    2.888043
    133          1           0       13.823586    2.704225    3.663133
    134          1           0       14.456222    3.556427    0.957740
    135          1           0       14.400666    5.560491    2.041983
    136          1           0       15.646382    5.209986    3.160599
    137          1           0       14.020941    4.766169    3.592364
    138          1           0       17.036535    4.036428    1.848630
    139          1           0       16.600430    2.814169    0.644037
    140          1           0       16.683038    2.420347    2.423025
 ---------------------------------------------------------------------

 SCF Done:  E(RCAM-B3LYP) =  -3007.18981537     A.U. after   18 cycles

 Excitation energies and oscillator strengths:

 Excited State   1:      Singlet-A      1.7220 eV  720.02 nm  f=0.3663  <S**2>=0.000
     245 -> 248       -0.17549
     246 -> 247        0.68642
     245 <- 248       -0.10570
 This state for optimization and/or second-order correction.
 Total Energy, E(TD-HF/TD-DFT) =  -3007.12653480
 Copying the excited state density for this state as the 1-particle RhoCI density.

 Excited State   2:      Singlet-A      2.2196 eV  558.58 nm  f=0.1526  <S**2>=0.000
     245 -> 247        0.65092
     246 -> 248        0.26063

 Excited State   3:      Singlet-A      3.3784 eV  367.00 nm  f=0.0120  <S**2>=0.000
     240 -> 247        0.16105
     242 -> 247       -0.33957
     243 -> 247        0.48326
     243 -> 249       -0.14729
     243 -> 250        0.10685
     244 -> 247        0.20728
     246 -> 248        0.12637

 Excited State   4:      Singlet-A      3.4075 eV  363.85 nm  f=0.0314  <S**2>=0.000
     242 -> 247       -0.29894
     243 -> 247       -0.35591
     243 -> 249        0.20283
     243 -> 250       -0.16451
     244 -> 247        0.37581
     246 -> 248        0.19037

 Excited State   5:      Singlet-A      3.4424 eV  360.16 nm  f=0.0114  <S**2>=0.000
     240 -> 247        0.22291
     240 -> 249        0.15200
     241 -> 247        0.55153
     241 -> 249        0.22392
     241 -> 250        0.11899

 The electronic state is 1-A.
 Alpha  occ. eigenvalues --  -46.87907 -19.25676 -19.23200 -19.19914 -19.19220
 Alpha  occ. eigenvalues --  -19.18747 -19.18021 -14.42626 -14.41570 -14.40094
 Alpha  occ. eigenvalues --  -14.39248 -10.39619 -10.38383 -10.35425 -10.34120
 Alpha  occ. eigenvalues --  -10.32422 -10.31610 -10.31526 -10.31068 -10.30832
 Alpha  occ. eigenvalues --  -10.30720 -10.30618 -10.29823 -10.29626 -10.28815
 Alpha  occ. eigenvalues --  -10.28750 -10.28395 -10.27991 -10.27919 -10.27774
 Alpha  occ. eigenvalues --  -10.27756 -10.27746 -10.27729 -10.27703 -10.27544
 Alpha  occ. eigenvalues --  -10.27517 -10.27435 -10.27374 -10.27161 -10.27005
 Alpha  occ. eigenvalues --  -10.26732 -10.26329 -10.26306 -10.26250 -10.26246
 Alpha  occ. eigenvalues --  -10.26233 -10.26176 -10.25932 -10.25929 -10.25817
 Alpha  occ. eigenvalues --  -10.25802 -10.25756 -10.25750 -10.25734 -10.25726
 Alpha  occ. eigenvalues --  -10.25546 -10.25488 -10.24964 -10.24787 -10.24674
 Alpha  occ. eigenvalues --  -10.24598 -10.24418 -10.24414 -10.24399 -10.24351
 Alpha  occ. eigenvalues --  -10.24294  -3.16603  -1.91514  -1.91052  -1.90921
 Alpha  occ. eigenvalues --   -1.16091  -1.12611  -1.11078  -1.08404  -1.06959
 Alpha  occ. eigenvalues --   -1.05153  -1.04956  -1.03870  -1.03286  -1.02346
 Alpha  occ. eigenvalues --   -0.91962  -0.91802  -0.90364  -0.89842  -0.89431
 Alpha  occ. eigenvalues --   -0.89119  -0.88430  -0.87750  -0.87404  -0.87213
 Alpha  occ. eigenvalues --   -0.86564  -0.86060  -0.85215  -0.83162  -0.82847
 Alpha  occ. eigenvalues --   -0.82543  -0.81679  -0.81415  -0.80762  -0.80380
 Alpha  occ. eigenvalues --   -0.79525  -0.78765  -0.78293  -0.77032  -0.76582
 Alpha  occ. eigenvalues --   -0.75623  -0.75586  -0.74944  -0.74771  -0.74099
 Alpha  occ. eigenvalues --   -0.73846  -0.73045  -0.71508  -0.71213  -0.69328
 Alpha  occ. eigenvalues --   -0.68751  -0.67973  -0.67469  -0.66870  -0.66162
 Alpha  occ. eigenvalues --   -0.65739  -0.65172  -0.64892  -0.64504  -0.64095
 Alpha  occ. eigenvalues --   -0.63802  -0.63238  -0.62609  -0.60864  -0.60790
 Alpha  occ. eigenvalues --   -0.60274  -0.59884  -0.59283  -0.58631  -0.57552
 Alpha  occ. eigenvalues --   -0.57296  -0.57102  -0.56380  -0.56242  -0.55930
 Alpha  occ. eigenvalues --   -0.55184  -0.54795  -0.54467  -0.54152  -0.53936
 Alpha  occ. eigenvalues --   -0.53354  -0.53181  -0.52937  -0.52800  -0.52755
 Alpha  occ. eigenvalues --   -0.52332  -0.52098  -0.52071  -0.51853  -0.51789
 Alpha  occ. eigenvalues --   -0.51541  -0.51378  -0.51212  -0.50940  -0.50777
 Alpha  occ. eigenvalues --   -0.50325  -0.50044  -0.49904  -0.49854  -0.49751
 Alpha  occ. eigenvalues --   -0.49552  -0.49468  -0.49414  -0.49088  -0.49052
 Alpha  occ. eigenvalues --   -0.48871  -0.48481  -0.48337  -0.48043  -0.47879
 Alpha  occ. eigenvalues --   -0.47605  -0.47364  -0.47218  -0.47136  -0.46913
 Alpha  occ. eigenvalues --   -0.46810  -0.46495  -0.46254  -0.46039  -0.45832
 Alpha  occ. eigenvalues --   -0.45688  -0.45107  -0.45065  -0.44849  -0.44745
 Alpha  occ. eigenvalues --   -0.44651  -0.44406  -0.44258  -0.44063  -0.43986
 Alpha  occ. eigenvalues --   -0.43930  -0.43736  -0.43360  -0.43074  -0.42934
 Alpha  occ. eigenvalues --   -0.42831  -0.42724  -0.42589  -0.42426  -0.42216
 Alpha  occ. eigenvalues --   -0.42085  -0.41913  -0.41702  -0.41428  -0.41268
 Alpha  occ. eigenvalues --   -0.41161  -0.41031  -0.40714  -0.40703  -0.40240
 Alpha  occ. eigenvalues --   -0.40017  -0.39813  -0.39375  -0.39358  -0.38951
 Alpha  occ. eigenvalues --   -0.38818  -0.38174  -0.38044  -0.37539  -0.37402
 Alpha  occ. eigenvalues --   -0.37126  -0.37087  -0.36900  -0.36437  -0.36192
 Alpha  occ. eigenvalues --   -0.36117  -0.35106  -0.34856  -0.34378  -0.34293
 Alpha  occ. eigenvalues --   -0.34230  -0.33605  -0.33025  -0.31683  -0.31563
 Alpha  occ. eigenvalues --   -0.31019  -0.30405  -0.29569  -0.29359  -0.24098
 Alpha  occ. eigenvalues --   -0.21458
 Alpha virt. eigenvalues --   -0.08983  -0.01576   0.00309   0.02493   0.02737
 Alpha virt. eigenvalues --    0.03830   0.04557   0.05236   0.05548   0.06189
 Alpha virt. eigenvalues --    0.07550   0.08547   0.08819   0.09182   0.09368

 Mulliken charges:
               1
     1  Mg   0.837997
     2  C   -0.066007
     3  C   -0.102057
     4  C   -0.064771
     5  C   -0.069052
     6  N   -0.259107
     7  C   -0.025361
     8  C   -0.041408
     9  C   -0.090628
    10  C    0.052476
    11  C    0.057938
    12  C    0.069657
    13  C    0.140869
    14  C    0.131823
    15  O   -0.262865
    16  O   -0.341788
    17  N   -0.445109
    18  C    0.218402
    19  C   -0.136616
    20  C    0.001110
    21  C    0.123036
    22  C    0.099863
    23  C   -0.029100
    24  O   -0.193860
    25  C    0.055140
    26  N   -0.251876
    27  C    0.025217
    28  C   -0.042156
    29  C    0.006420
    30  C    0.003662
    31  C    0.061099
    32  C    0.040896
    33  C    0.012869
    34  N   -0.354275
    35  C    0.120359
    36  C   -0.140901
    37  C   -0.034441
    38  C    0.153870
    39  C    0.107176
    40  C    0.041827
    41  O   -0.173859
    42  C   -0.010361
    43  C    0.228017
    44  O   -0.234531
    45  O   -0.374811
    46  C    0.191087
    47  C    0.285061
    48  C   -0.113726
    49  C   -0.123819
    50  C    0.076284
    51  C    0.064534
    52  C    0.019506
    53  C    0.049876
    54  C   -0.155288
    55  C    0.071751
    56  C    0.065260
    57  C    0.014348
    58  C    0.030233
    59  C   -0.168100
    60  C    0.065240
    61  C    0.056974
    62  C   -0.000548
    63  C    0.051465
    64  C   -0.175999
    65  C    0.047088
    66  C    0.036938
    67  H   -0.022722
    68  H    0.005407
    69  H   -0.023909
    70  H    0.043394
    71  H    0.014153
    72  H    0.024059
    73  H    0.026852
    74  H   -0.005759
    75  H    0.003019
    76  H    0.001062
    77  H    0.021890
    78  H    0.042834
    79  H    0.040319
    80  H    0.027186
    81  H    0.005080
    82  H    0.030488
    83  H    0.029233
    84  H    0.017908
    85  H    0.021652
    86  H    0.001283
    87  H    0.008273
    88  H    0.022904
    89  H    0.031289
    90  H    0.001450
    91  H    0.002196
    92  H    0.015231
    93  H    0.031563
    94  H    0.007729
    95  H    0.030680
    96  H    0.017716
    97  H    0.040551
    98  H    0.039400
    99  H    0.030711
   100  H    0.045863
   101  H    0.031307
   102  H    0.017764
   103  H    0.027995
   104  H    0.003331
   105  H    0.020689
   106  H    0.036484
   107  H    0.011913
   108  H   -0.006580
   109  H    0.008262
   110  H   -0.012394
   111  H   -0.026460
   112  H   -0.010768
   113  H    0.001053
   114  H   -0.013247
   115  H    0.016997
   116  H    0.005856
   117  H    0.005229
   118  H   -0.005032
   119  H   -0.023404
   120  H    0.001740
   121  H   -0.001616
   122  H    0.000553
   123  H    0.004802
   124  H   -0.002647
   125  H    0.008246
   126  H    0.004608
   127  H    0.010258
   128  H   -0.006647
   129  H   -0.009710
   130  H   -0.010655
   131  H   -0.000930
   132  H    0.003553
   133  H   -0.006912
   134  H    0.005946
   135  H    0.004191
   136  H    0.003843
   137  H    0.012057
   138  H    0.001117
   139  H    0.022658
   140  H    0.004615
 Sum of Mulliken charges =  -0.00000

 Dipole moment (field-independent basis, Debye):
    X=              6.2830    Y=              4.6757    Z=             -2.5176  Tot=              8.2266
 Quadrupole moment (field-independent basis, Debye-Ang):
   XX=           -399.2278   YY=           -437.0960   ZZ=           -408.7224
   XY=            -33.3095   XZ=              9.2328   YZ=              9.9630

 Normal termination of Gaussian 16 at Thu May  5 00:22:09 2022.
