 Gaussian 16, Revision A.03,
 Gaussian 16:  ES64L-G16RevA.03 25-Dec-2016

 ---------------------------------
 #p PBE1PBE/Def2SVP td=(nstates=5)
 ---------------------------------

 ----------------------------------------------------
 step_501_chromophore_6 TDDFT with PBE1PBE functional
 ----------------------------------------------------
 Symbolic Z-matrix:
 Charge =  0 Multiplicity = 1

                         Standard orientation:
 ---------------------------------------------------------------------
 Center     Atomic      Atomic             Coordinates (Angstroms)
 Number     Number       Type             X           Y           Z
 ---------------------------------------------------------------------
      1         12           0       -5.382014    1.001555   -0.146301
      2          6           0       -4.791847   -2.423804    0.068511
      3          6           0       -1.987576    1.558448   -0.196371
      4          6           0       -6.119710    4.295900   -0.072491
      5          6           0       -8.859170    0.318550    0.314785
      6          7           0       -3.644150   -0.293369    0.039429
      7          6           0       -3.615983   -1.652894    0.087650
      8          6           0       -2.179075   -2.186173    0.019862
      9          6           0       -1.336025   -0.836590    0.084906
     10          6           0       -2.429436    0.228607   -0.048100
     11          6           0       -0.574172   -0.699259    1.397569
     12          6           0       -1.781758   -2.922312   -1.309004
     13          6           0       -0.704092   -3.971703   -1.223361
     14          6           0        0.151679   -4.034306   -0.038259
     15          8           0       -0.095835   -4.661329    1.015083
     16          8           0        1.317665   -3.377438   -0.298068
     17          7           0       -4.232119    2.654021   -0.226393
     18          6           0       -2.822968    2.668778   -0.233652
     19          6           0       -2.436607    4.036159   -0.463945
     20          6           0       -3.591447    4.858368   -0.488413
     21          6           0       -4.732462    3.939676   -0.253081
     22          6           0       -0.998668    4.507705   -0.426921
     23          6           0       -3.751743    6.301224   -0.727067
     24          8           0       -4.786308    6.899383   -0.521524
     25          6           0       -2.512098    7.185786   -1.116090
     26          7           0       -7.270016    2.209006   -0.081176
     27          6           0       -7.268910    3.507836   -0.039373
     28          6           0       -8.712897    4.074461    0.110218
     29          6           0       -9.600260    2.843954    0.159308
     30          6           0       -8.552428    1.673631    0.187867
     31          6           0       -8.790737    5.087331    1.347656
     32          6           0      -10.615768    2.782009   -1.001207
     33          6           0      -12.067354    3.321504   -0.717064
     34          7           0       -6.609302   -0.609414   -0.127302
     35          6           0       -8.005313   -0.752607    0.069262
     36          6           0       -8.389361   -2.112466    0.044684
     37          6           0       -7.103496   -2.797805    0.128592
     38          6           0       -6.096944   -1.800891   -0.017885
     39          6           0       -9.781655   -2.651373    0.318040
     40          6           0       -6.575262   -4.101911    0.291297
     41          8           0       -7.108831   -5.200184    0.384947
     42          6           0       -4.925785   -3.892945    0.162776
     43          6           0       -4.352350   -4.551311    1.383142
     44          8           0       -4.630355   -4.234944    2.544639
     45          8           0       -3.544882   -5.684398    1.068548
     46          6           0       -2.946639   -6.401474    2.237808
     47          6           0        2.500479   -3.566981    0.583264
     48          6           0        3.694509   -3.510394   -0.289807
     49          6           0        4.426629   -2.405691   -0.416447
     50          6           0        4.095084   -1.040727    0.184223
     51          6           0        5.552335   -2.387122   -1.461024
     52          6           0        6.926279   -2.773057   -1.057284
     53          6           0        7.970145   -2.826927   -2.209567
     54          6           0        8.945407   -1.604329   -2.346635
     55          6           0        9.586060   -1.550071   -3.727248
     56          6           0       10.047697   -1.646439   -1.281552
     57          6           0       10.800895   -0.299854   -1.091004
     58          6           0       12.378283   -0.354463   -1.199759
     59          6           0       13.163029    0.947555   -0.543579
     60          6           0       14.386750    1.319733   -1.357100
     61          6           0       13.634554    0.700254    0.921249
     62          6           0       13.087350    1.734243    1.939147
     63          6           0       14.255964    2.315598    2.741532
     64          6           0       14.901712    3.485277    1.949629
     65          6           0       14.719275    4.802093    2.756477
     66          6           0       16.420739    3.156286    1.663125
     67          1           0       -0.899742    1.660583   -0.205568
     68          1           0       -6.256163    5.359456    0.132355
     69          1           0       -9.913833    0.051466    0.404777
     70          1           0       -2.040802   -2.797130    0.912167
     71          1           0       -0.589326   -0.763883   -0.705717
     72          1           0       -0.531924   -1.648708    1.930609
     73          1           0       -0.952920    0.109807    2.022712
     74          1           0        0.496455   -0.538869    1.270341
     75          1           0       -1.495993   -2.158948   -2.031845
     76          1           0       -2.705941   -3.320167   -1.728737
     77          1           0        0.004269   -3.761769   -2.024466
     78          1           0       -1.156853   -4.956152   -1.341823
     79          1           0       -0.782275    5.159552    0.419398
     80          1           0       -0.780604    4.996301   -1.377486
     81          1           0       -0.241817    3.731563   -0.314570
     82          1           0       -2.001365    7.407089   -0.178567
     83          1           0       -2.844144    8.164485   -1.462758
     84          1           0       -1.830834    6.637386   -1.765517
     85          1           0       -8.844332    4.646993   -0.808140
     86          1           0      -10.090210    2.736604    1.125825
     87          1           0       -9.557138    4.770514    2.054881
     88          1           0       -9.123494    6.088050    1.071384
     89          1           0       -7.802813    5.030239    1.806508
     90          1           0      -10.692205    1.729364   -1.275867
     91          1           0      -10.160879    3.309649   -1.839655
     92          1           0      -12.641245    2.505406   -0.276634
     93          1           0      -12.623964    3.792348   -1.527593
     94          1           0      -11.861366    4.013559    0.098774
     95          1           0      -10.266624   -2.585944   -0.655582
     96          1           0      -10.317471   -2.026711    1.031763
     97          1           0       -9.838999   -3.596355    0.859771
     98          1           0       -4.588173   -4.340728   -0.772714
     99          1           0       -3.714108   -6.831273    2.880513
    100          1           0       -2.271762   -5.851384    2.894125
    101          1           0       -2.449225   -7.210026    1.702160
    102          1           0        2.467522   -4.560411    1.031469
    103          1           0        2.547886   -2.914208    1.455030
    104          1           0        4.082690   -4.453786   -0.672601
    105          1           0        4.098305   -0.272608   -0.588345
    106          1           0        4.810471   -0.836459    0.981605
    107          1           0        3.078912   -0.920937    0.560418
    108          1           0        5.695961   -1.378782   -1.847785
    109          1           0        5.384756   -3.109687   -2.260012
    110          1           0        6.985139   -3.638242   -0.397897
    111          1           0        7.250596   -2.027643   -0.330581
    112          1           0        7.420885   -2.754691   -3.147997
    113          1           0        8.494573   -3.781371   -2.159239
    114          1           0        8.292860   -0.743276   -2.202801
    115          1           0       10.662306   -1.380192   -3.712352
    116          1           0        9.089670   -0.763265   -4.295085
    117          1           0        9.348902   -2.499974   -4.205136
    118          1           0       10.681988   -2.530620   -1.356686
    119          1           0        9.535261   -1.769926   -0.327956
    120          1           0       10.532775    0.102671   -0.114205
    121          1           0       10.450897    0.383152   -1.865362
    122          1           0       12.629679   -0.320188   -2.260821
    123          1           0       12.770732   -1.216684   -0.661700
    124          1           0       12.448969    1.771189   -0.560944
    125          1           0       15.209604    1.715534   -0.761261
    126          1           0       13.918702    2.053967   -2.012687
    127          1           0       14.692049    0.449560   -1.937151
    128          1           0       14.716246    0.747878    1.041120
    129          1           0       13.294675   -0.292062    1.221282
    130          1           0       12.378718    1.229547    2.595447
    131          1           0       12.557652    2.537269    1.426813
    132          1           0       15.023116    1.554016    2.888043
    133          1           0       13.823586    2.704225    3.663133
    134          1           0       14.456222    3.556427    0.957740
    135          1           0       14.400666    5.560491    2.041983
    136          1           0       15.646382    5.209986    3.160599
    137          1           0       14.020941    4.766169    3.592364
    138          1           0       17.036535    4.036428    1.848630
    139          1           0       16.600430    2.814169    0.644037
    140          1           0       16.683038    2.420347    2.423025
 ---------------------------------------------------------------------

 SCF Done:  E(RPBE1PBE) =  -3005.37699166     A.U. after   15 cycles

 Excitation energies and oscillator strengths:

 Excited State   1:      Singlet-A      1.8438 eV  672.44 nm  f=0.3524  <S**2>=0.000
     245 -> 248        0.17411
     246 -> 247        0.69241
     246 <- 247       -0.10465
 This state for optimization and/or second-order correction.
 Total Energy, E(TD-HF/TD-DFT) =  -3005.30923345
 Copying the excited state density for this state as the 1-particle RhoCI density.

 Excited State   2:      Singlet-A      2.2089 eV  561.30 nm  f=0.1466  <S**2>=0.000
     245 -> 247        0.66102
     246 -> 248       -0.23822

 Excited State   3:      Singlet-A      2.8114 eV  441.00 nm  f=0.0002  <S**2>=0.000
     244 -> 247        0.68041
     244 -> 249       -0.14138

 Excited State   4:      Singlet-A      2.9362 eV  422.26 nm  f=0.0011  <S**2>=0.000
     242 -> 247        0.66690
     242 -> 249        0.13900

 Excited State   5:      Singlet-A      3.0505 eV  406.44 nm  f=0.0040  <S**2>=0.000
     241 -> 247       -0.18712
     242 -> 247       -0.10146
     243 -> 247        0.66547

 The electronic state is 1-A.
 Alpha  occ. eigenvalues --  -46.91320 -19.26344 -19.23970 -19.20205 -19.19124
 Alpha  occ. eigenvalues --  -19.19073 -19.18671 -14.42076 -14.41120 -14.39658
 Alpha  occ. eigenvalues --  -14.39103 -10.36638 -10.35514 -10.32246 -10.31588
 Alpha  occ. eigenvalues --  -10.29769 -10.29004 -10.28927 -10.28754 -10.28722
 Alpha  occ. eigenvalues --  -10.28308 -10.28233 -10.27133 -10.27016 -10.26823
 Alpha  occ. eigenvalues --  -10.26730 -10.26065 -10.25891 -10.25773 -10.25547
 Alpha  occ. eigenvalues --  -10.25518 -10.25442 -10.25372 -10.25338 -10.25185
 Alpha  occ. eigenvalues --  -10.25167 -10.25071 -10.24888 -10.24552 -10.24522
 Alpha  occ. eigenvalues --  -10.24501 -10.24039 -10.23858 -10.23847 -10.23778
 Alpha  occ. eigenvalues --  -10.23769 -10.23617 -10.23482 -10.23443 -10.23404
 Alpha  occ. eigenvalues --  -10.23402 -10.23391 -10.23366 -10.23250 -10.23097
 Alpha  occ. eigenvalues --  -10.23068 -10.23021 -10.22640 -10.22512 -10.22163
 Alpha  occ. eigenvalues --  -10.22090 -10.21988 -10.21978 -10.21952 -10.21912
 Alpha  occ. eigenvalues --  -10.21677  -3.13592  -1.86447  -1.85960  -1.85836
 Alpha  occ. eigenvalues --   -1.10874  -1.07439  -1.05517  -1.03517  -1.01795
 Alpha  occ. eigenvalues --   -0.99920  -0.99718  -0.98648  -0.98072  -0.96772
 Alpha  occ. eigenvalues --   -0.86456  -0.85962  -0.84544  -0.83947  -0.83532
 Alpha  occ. eigenvalues --   -0.83419  -0.82684  -0.81955  -0.81710  -0.81322
 Alpha  occ. eigenvalues --   -0.80798  -0.80478  -0.79423  -0.77385  -0.77240
 Alpha  occ. eigenvalues --   -0.76735  -0.75920  -0.75601  -0.74880  -0.74454
 Alpha  occ. eigenvalues --   -0.73910  -0.72793  -0.72633  -0.71376  -0.70757
 Alpha  occ. eigenvalues --   -0.69940  -0.69699  -0.69175  -0.69073  -0.68340
 Alpha  occ. eigenvalues --   -0.68065  -0.67529  -0.65908  -0.65544  -0.63662
 Alpha  occ. eigenvalues --   -0.63153  -0.62252  -0.61989  -0.61073  -0.60594
 Alpha  occ. eigenvalues --   -0.59922  -0.59650  -0.59392  -0.59160  -0.58615
 Alpha  occ. eigenvalues --   -0.57885  -0.57374  -0.56802  -0.55482  -0.55155
 Alpha  occ. eigenvalues --   -0.54698  -0.54417  -0.53952  -0.53382  -0.52189
 Alpha  occ. eigenvalues --   -0.51697  -0.51577  -0.50861  -0.50810  -0.50416
 Alpha  occ. eigenvalues --   -0.49575  -0.49342  -0.48960  -0.48805  -0.48393
 Alpha  occ. eigenvalues --   -0.47768  -0.47613  -0.47538  -0.47232  -0.47081
 Alpha  occ. eigenvalues --   -0.46813  -0.46658  -0.46639  -0.46509  -0.46352
 Alpha  occ. eigenvalues --   -0.46093  -0.45885  -0.45737  -0.45649  -0.45431
 Alpha  occ. eigenvalues --   -0.44924  -0.44565  -0.44476  -0.44403  -0.44339
 Alpha  occ. eigenvalues --   -0.43993  -0.43970  -0.43827  -0.43732  -0.43633
 Alpha  occ. eigenvalues --   -0.43455  -0.42994  -0.42945  -0.42752  -0.42587
 Alpha  occ. eigenvalues --   -0.42296  -0.42019  -0.41907  -0.41719  -0.41580
 Alpha  occ. eigenvalues --   -0.41546  -0.41357  -0.40860  -0.40703  -0.40415
 Alpha  occ. eigenvalues --   -0.40385  -0.39872  -0.39767  -0.39647  -0.39488
 Alpha  occ. eigenvalues --   -0.39351  -0.39174  -0.38967  -0.38817  -0.38702
 Alpha  occ. eigenvalues --   -0.38679  -0.38451  -0.38204  -0.38008  -0.37803
 Alpha  occ. eigenvalues --   -0.37626  -0.37448  -0.37389  -0.37152  -0.36968
 Alpha  occ. eigenvalues --   -0.36847  -0.36721  -0.36577  -0.36428  -0.36153
 Alpha  occ. eigenvalues --   -0.35919  -0.35899  -0.35618  -0.35450  -0.35053
 Alpha  occ. eigenvalues --   -0.34753  -0.34545  -0.34379  -0.34170  -0.33847
 Alpha  occ. eigenvalues --   -0.33712  -0.33151  -0.32825  -0.32619  -0.32193
 Alpha  occ. eigenvalues --   -0.32138  -0.31956  -0.31873  -0.31273  -0.31254
 Alpha  occ. eigenvalues --   -0.31041  -0.29949  -0.29869  -0.29616  -0.29347
 Alpha  occ. eigenvalues --   -0.29185  -0.28981  -0.27970  -0.26974  -0.26827
 Alpha  occ. eigenvalues --   -0.25943  -0.25670  -0.25370  -0.24864  -0.21019
 Alpha  occ. eigenvalues --   -0.19053
 Alpha virt. eigenvalues --   -0.11457  -0.05157  -0.03875  -0.01946  -0.01703
 Alpha virt. eigenvalues --    0.00067   0.00626   0.01224   0.01510   0.02459
 Alpha virt. eigenvalues --    0.04123   0.04279   0.05206   0.05594   0.06034

 Mulliken charges:
               1
     1  Mg   0.991603
     2  C   -0.069045
     3  C   -0.080677
     4  C   -0.056364
     5  C   -0.063804
     6  N   -0.374895
     7  C    0.063377
     8  C   -0.117653
     9  C   -0.164990
    10  C    0.085001
    11  C    0.001194
    12  C    0.019144
    13  C    0.063711
    14  C    0.203472
    15  O   -0.297237
    16  O   -0.371545
    17  N   -0.559466
    18  C    0.231901
    19  C   -0.163265
    20  C   -0.057820
    21  C    0.160684
    22  C    0.042243
    23  C    0.022285
    24  O   -0.233098
    25  C   -0.020572
    26  N   -0.354389
    27  C    0.062174
    28  C   -0.113265
    29  C   -0.072081
    30  C    0.045264
    31  C    0.001681
    32  C   -0.018507
    33  C   -0.061987
    34  N   -0.489987
    35  C    0.132138
    36  C   -0.134010
    37  C   -0.085517
    38  C    0.206520
    39  C    0.048584
    40  C    0.128342
    41  O   -0.216076
    42  C   -0.121338
    43  C    0.315667
    44  O   -0.267572
    45  O   -0.405795
    46  C    0.135962
    47  C    0.238488
    48  C   -0.122606
    49  C   -0.161422
    50  C    0.006814
    51  C   -0.005615
    52  C   -0.036483
    53  C   -0.008793
    54  C   -0.244200
    55  C    0.010432
    56  C    0.011222
    57  C   -0.047407
    58  C   -0.026679
    59  C   -0.246454
    60  C   -0.003629
    61  C    0.005358
    62  C   -0.063954
    63  C   -0.012140
    64  C   -0.263517
    65  C   -0.011003
    66  C   -0.026575
    67  H    0.007749
    68  H    0.037234
    69  H    0.007003
    70  H    0.082332
    71  H    0.048664
    72  H    0.050084
    73  H    0.054459
    74  H    0.026157
    75  H    0.035929
    76  H    0.035047
    77  H    0.055084
    78  H    0.073837
    79  H    0.065877
    80  H    0.053622
    81  H    0.031072
    82  H    0.057596
    83  H    0.055470
    84  H    0.044392
    85  H    0.058719
    86  H    0.038868
    87  H    0.035108
    88  H    0.049953
    89  H    0.059270
    90  H    0.035629
    91  H    0.035547
    92  H    0.043148
    93  H    0.058885
    94  H    0.037854
    95  H    0.060483
    96  H    0.045063
    97  H    0.068179
    98  H    0.076778
    99  H    0.052981
   100  H    0.067523
   101  H    0.053214
   102  H    0.044764
   103  H    0.052966
   104  H    0.031880
   105  H    0.047741
   106  H    0.064432
   107  H    0.043805
   108  H    0.026788
   109  H    0.040828
   110  H    0.020256
   111  H    0.008287
   112  H    0.023122
   113  H    0.033119
   114  H    0.025163
   115  H    0.045811
   116  H    0.033860
   117  H    0.033054
   118  H    0.026065
   119  H    0.011986
   120  H    0.034759
   121  H    0.031491
   122  H    0.033433
   123  H    0.036448
   124  H    0.033772
   125  H    0.040639
   126  H    0.033104
   127  H    0.038291
   128  H    0.026716
   129  H    0.023374
   130  H    0.022691
   131  H    0.031465
   132  H    0.035674
   133  H    0.026202
   134  H    0.044542
   135  H    0.032198
   136  H    0.030592
   137  H    0.038091
   138  H    0.029366
   139  H    0.050447
   140  H    0.032139
 Sum of Mulliken charges =  -0.00000

 Dipole moment (field-independent basis, Debye):
    X=              5.7158    Y=              4.0164    Z=             -2.4266  Tot=              7.3953
 Quadrupole moment (field-independent basis, Debye-Ang):
   XX=           -387.9376   YY=           -435.5509   ZZ=           -406.4419
   XY=            -30.8492   XZ=              8.6048   YZ=             10.3451

 Normal termination of Gaussian 16 at Thu May  5 00:42:16 2022.
