 Gaussian 16, Revision A.03,
 Gaussian 16:  ES64L-G16RevA.03 25-Dec-2016

 --------------------------------
 #p wB97XD/Def2SVP td=(nstates=5)
 --------------------------------

 ---------------------------------------------------
 step_501_chromophore_6 TDDFT with wB97XD functional
 ---------------------------------------------------
 Symbolic Z-matrix:
 Charge =  0 Multiplicity = 1

                         Standard orientation:
 ---------------------------------------------------------------------
 Center     Atomic      Atomic             Coordinates (Angstroms)
 Number     Number       Type             X           Y           Z
 ---------------------------------------------------------------------
      1         12           0       -5.382014    1.001555   -0.146301
      2          6           0       -4.791847   -2.423804    0.068511
      3          6           0       -1.987576    1.558448   -0.196371
      4          6           0       -6.119710    4.295900   -0.072491
      5          6           0       -8.859170    0.318550    0.314785
      6          7           0       -3.644150   -0.293369    0.039429
      7          6           0       -3.615983   -1.652894    0.087650
      8          6           0       -2.179075   -2.186173    0.019862
      9          6           0       -1.336025   -0.836590    0.084906
     10          6           0       -2.429436    0.228607   -0.048100
     11          6           0       -0.574172   -0.699259    1.397569
     12          6           0       -1.781758   -2.922312   -1.309004
     13          6           0       -0.704092   -3.971703   -1.223361
     14          6           0        0.151679   -4.034306   -0.038259
     15          8           0       -0.095835   -4.661329    1.015083
     16          8           0        1.317665   -3.377438   -0.298068
     17          7           0       -4.232119    2.654021   -0.226393
     18          6           0       -2.822968    2.668778   -0.233652
     19          6           0       -2.436607    4.036159   -0.463945
     20          6           0       -3.591447    4.858368   -0.488413
     21          6           0       -4.732462    3.939676   -0.253081
     22          6           0       -0.998668    4.507705   -0.426921
     23          6           0       -3.751743    6.301224   -0.727067
     24          8           0       -4.786308    6.899383   -0.521524
     25          6           0       -2.512098    7.185786   -1.116090
     26          7           0       -7.270016    2.209006   -0.081176
     27          6           0       -7.268910    3.507836   -0.039373
     28          6           0       -8.712897    4.074461    0.110218
     29          6           0       -9.600260    2.843954    0.159308
     30          6           0       -8.552428    1.673631    0.187867
     31          6           0       -8.790737    5.087331    1.347656
     32          6           0      -10.615768    2.782009   -1.001207
     33          6           0      -12.067354    3.321504   -0.717064
     34          7           0       -6.609302   -0.609414   -0.127302
     35          6           0       -8.005313   -0.752607    0.069262
     36          6           0       -8.389361   -2.112466    0.044684
     37          6           0       -7.103496   -2.797805    0.128592
     38          6           0       -6.096944   -1.800891   -0.017885
     39          6           0       -9.781655   -2.651373    0.318040
     40          6           0       -6.575262   -4.101911    0.291297
     41          8           0       -7.108831   -5.200184    0.384947
     42          6           0       -4.925785   -3.892945    0.162776
     43          6           0       -4.352350   -4.551311    1.383142
     44          8           0       -4.630355   -4.234944    2.544639
     45          8           0       -3.544882   -5.684398    1.068548
     46          6           0       -2.946639   -6.401474    2.237808
     47          6           0        2.500479   -3.566981    0.583264
     48          6           0        3.694509   -3.510394   -0.289807
     49          6           0        4.426629   -2.405691   -0.416447
     50          6           0        4.095084   -1.040727    0.184223
     51          6           0        5.552335   -2.387122   -1.461024
     52          6           0        6.926279   -2.773057   -1.057284
     53          6           0        7.970145   -2.826927   -2.209567
     54          6           0        8.945407   -1.604329   -2.346635
     55          6           0        9.586060   -1.550071   -3.727248
     56          6           0       10.047697   -1.646439   -1.281552
     57          6           0       10.800895   -0.299854   -1.091004
     58          6           0       12.378283   -0.354463   -1.199759
     59          6           0       13.163029    0.947555   -0.543579
     60          6           0       14.386750    1.319733   -1.357100
     61          6           0       13.634554    0.700254    0.921249
     62          6           0       13.087350    1.734243    1.939147
     63          6           0       14.255964    2.315598    2.741532
     64          6           0       14.901712    3.485277    1.949629
     65          6           0       14.719275    4.802093    2.756477
     66          6           0       16.420739    3.156286    1.663125
     67          1           0       -0.899742    1.660583   -0.205568
     68          1           0       -6.256163    5.359456    0.132355
     69          1           0       -9.913833    0.051466    0.404777
     70          1           0       -2.040802   -2.797130    0.912167
     71          1           0       -0.589326   -0.763883   -0.705717
     72          1           0       -0.531924   -1.648708    1.930609
     73          1           0       -0.952920    0.109807    2.022712
     74          1           0        0.496455   -0.538869    1.270341
     75          1           0       -1.495993   -2.158948   -2.031845
     76          1           0       -2.705941   -3.320167   -1.728737
     77          1           0        0.004269   -3.761769   -2.024466
     78          1           0       -1.156853   -4.956152   -1.341823
     79          1           0       -0.782275    5.159552    0.419398
     80          1           0       -0.780604    4.996301   -1.377486
     81          1           0       -0.241817    3.731563   -0.314570
     82          1           0       -2.001365    7.407089   -0.178567
     83          1           0       -2.844144    8.164485   -1.462758
     84          1           0       -1.830834    6.637386   -1.765517
     85          1           0       -8.844332    4.646993   -0.808140
     86          1           0      -10.090210    2.736604    1.125825
     87          1           0       -9.557138    4.770514    2.054881
     88          1           0       -9.123494    6.088050    1.071384
     89          1           0       -7.802813    5.030239    1.806508
     90          1           0      -10.692205    1.729364   -1.275867
     91          1           0      -10.160879    3.309649   -1.839655
     92          1           0      -12.641245    2.505406   -0.276634
     93          1           0      -12.623964    3.792348   -1.527593
     94          1           0      -11.861366    4.013559    0.098774
     95          1           0      -10.266624   -2.585944   -0.655582
     96          1           0      -10.317471   -2.026711    1.031763
     97          1           0       -9.838999   -3.596355    0.859771
     98          1           0       -4.588173   -4.340728   -0.772714
     99          1           0       -3.714108   -6.831273    2.880513
    100          1           0       -2.271762   -5.851384    2.894125
    101          1           0       -2.449225   -7.210026    1.702160
    102          1           0        2.467522   -4.560411    1.031469
    103          1           0        2.547886   -2.914208    1.455030
    104          1           0        4.082690   -4.453786   -0.672601
    105          1           0        4.098305   -0.272608   -0.588345
    106          1           0        4.810471   -0.836459    0.981605
    107          1           0        3.078912   -0.920937    0.560418
    108          1           0        5.695961   -1.378782   -1.847785
    109          1           0        5.384756   -3.109687   -2.260012
    110          1           0        6.985139   -3.638242   -0.397897
    111          1           0        7.250596   -2.027643   -0.330581
    112          1           0        7.420885   -2.754691   -3.147997
    113          1           0        8.494573   -3.781371   -2.159239
    114          1           0        8.292860   -0.743276   -2.202801
    115          1           0       10.662306   -1.380192   -3.712352
    116          1           0        9.089670   -0.763265   -4.295085
    117          1           0        9.348902   -2.499974   -4.205136
    118          1           0       10.681988   -2.530620   -1.356686
    119          1           0        9.535261   -1.769926   -0.327956
    120          1           0       10.532775    0.102671   -0.114205
    121          1           0       10.450897    0.383152   -1.865362
    122          1           0       12.629679   -0.320188   -2.260821
    123          1           0       12.770732   -1.216684   -0.661700
    124          1           0       12.448969    1.771189   -0.560944
    125          1           0       15.209604    1.715534   -0.761261
    126          1           0       13.918702    2.053967   -2.012687
    127          1           0       14.692049    0.449560   -1.937151
    128          1           0       14.716246    0.747878    1.041120
    129          1           0       13.294675   -0.292062    1.221282
    130          1           0       12.378718    1.229547    2.595447
    131          1           0       12.557652    2.537269    1.426813
    132          1           0       15.023116    1.554016    2.888043
    133          1           0       13.823586    2.704225    3.663133
    134          1           0       14.456222    3.556427    0.957740
    135          1           0       14.400666    5.560491    2.041983
    136          1           0       15.646382    5.209986    3.160599
    137          1           0       14.020941    4.766169    3.592364
    138          1           0       17.036535    4.036428    1.848630
    139          1           0       16.600430    2.814169    0.644037
    140          1           0       16.683038    2.420347    2.423025
 ---------------------------------------------------------------------

 SCF Done:  E(RwB97XD) =  -3007.88718040     A.U. after   19 cycles

 Excitation energies and oscillator strengths:

 Excited State   1:      Singlet-A      1.6862 eV  735.28 nm  f=0.3655  <S**2>=0.000
     245 -> 248       -0.17824
     246 -> 247        0.68408
     245 <- 248       -0.11284
 This state for optimization and/or second-order correction.
 Total Energy, E(TD-HF/TD-DFT) =  -3007.82521333
 Copying the excited state density for this state as the 1-particle RhoCI density.

 Excited State   2:      Singlet-A      2.1700 eV  571.35 nm  f=0.1489  <S**2>=0.000
     245 -> 247        0.64740
     246 -> 248        0.26283

 Excited State   3:      Singlet-A      3.3920 eV  365.52 nm  f=0.0307  <S**2>=0.000
     239 -> 247        0.20091
     240 -> 247       -0.14072
     241 -> 247        0.15496
     242 -> 247        0.47269
     243 -> 247       -0.31754
     244 -> 247       -0.12457
     246 -> 248       -0.22464

 Excited State   4:      Singlet-A      3.4376 eV  360.67 nm  f=0.0095  <S**2>=0.000
     239 -> 247       -0.12452
     239 -> 249       -0.11251
     241 -> 247        0.57059
     241 -> 249        0.26780
     241 -> 250        0.13550

 Excited State   5:      Singlet-A      3.4792 eV  356.36 nm  f=0.0296  <S**2>=0.000
     242 -> 247        0.10995
     243 -> 247        0.39108
     243 -> 249       -0.21871
     243 -> 250        0.17856
     244 -> 247       -0.38909
     244 -> 249        0.17951
     244 -> 250       -0.13693
     246 -> 248       -0.15866

 The electronic state is 1-A.
 Alpha  occ. eigenvalues --  -46.94262 -19.30882 -19.28400 -19.24833 -19.24322
 Alpha  occ. eigenvalues --  -19.23656 -19.23009 -14.47225 -14.46167 -14.44778
 Alpha  occ. eigenvalues --  -14.43809 -10.43411 -10.42223 -10.39468 -10.38086
 Alpha  occ. eigenvalues --  -10.36316 -10.35792 -10.35621 -10.35248 -10.34818
 Alpha  occ. eigenvalues --  -10.34779 -10.34598 -10.33897 -10.33544 -10.32731
 Alpha  occ. eigenvalues --  -10.32671 -10.32418 -10.32093 -10.31989 -10.31982
 Alpha  occ. eigenvalues --  -10.31804 -10.31798 -10.31779 -10.31755 -10.31597
 Alpha  occ. eigenvalues --  -10.31475 -10.31454 -10.31405 -10.31021 -10.30869
 Alpha  occ. eigenvalues --  -10.30706 -10.30380 -10.30266 -10.30222 -10.30181
 Alpha  occ. eigenvalues --  -10.30171 -10.30161 -10.29901 -10.29820 -10.29790
 Alpha  occ. eigenvalues --  -10.29767 -10.29734 -10.29604 -10.29576 -10.29553
 Alpha  occ. eigenvalues --  -10.29481 -10.29417 -10.28909 -10.28616 -10.28529
 Alpha  occ. eigenvalues --  -10.28426 -10.28380 -10.28328 -10.28320 -10.28283
 Alpha  occ. eigenvalues --  -10.28133  -3.20369  -1.93978  -1.93493  -1.93361
 Alpha  occ. eigenvalues --   -1.18249  -1.14726  -1.13369  -1.10581  -1.09124
 Alpha  occ. eigenvalues --   -1.07198  -1.07094  -1.05863  -1.05301  -1.04462
 Alpha  occ. eigenvalues --   -0.93884  -0.93637  -0.92186  -0.91629  -0.91213
 Alpha  occ. eigenvalues --   -0.91045  -0.90363  -0.89761  -0.89322  -0.89012
 Alpha  occ. eigenvalues --   -0.88459  -0.87953  -0.87078  -0.85077  -0.84737
 Alpha  occ. eigenvalues --   -0.84417  -0.83579  -0.83326  -0.82603  -0.82322
 Alpha  occ. eigenvalues --   -0.81464  -0.80768  -0.80180  -0.78945  -0.78441
 Alpha  occ. eigenvalues --   -0.77519  -0.77422  -0.76788  -0.76679  -0.75985
 Alpha  occ. eigenvalues --   -0.75725  -0.75023  -0.73479  -0.73147  -0.71297
 Alpha  occ. eigenvalues --   -0.70715  -0.69864  -0.69477  -0.68738  -0.68138
 Alpha  occ. eigenvalues --   -0.67598  -0.67097  -0.66894  -0.66501  -0.66059
 Alpha  occ. eigenvalues --   -0.65603  -0.65064  -0.64460  -0.62836  -0.62705
 Alpha  occ. eigenvalues --   -0.62341  -0.61841  -0.61275  -0.60620  -0.59541
 Alpha  occ. eigenvalues --   -0.59183  -0.59012  -0.58389  -0.58173  -0.57848
 Alpha  occ. eigenvalues --   -0.57054  -0.56796  -0.56400  -0.56082  -0.55833
 Alpha  occ. eigenvalues --   -0.55279  -0.55120  -0.54878  -0.54736  -0.54670
 Alpha  occ. eigenvalues --   -0.54266  -0.54006  -0.53969  -0.53790  -0.53696
 Alpha  occ. eigenvalues --   -0.53450  -0.53274  -0.53084  -0.52818  -0.52659
 Alpha  occ. eigenvalues --   -0.52290  -0.51964  -0.51825  -0.51754  -0.51646
 Alpha  occ. eigenvalues --   -0.51568  -0.51394  -0.51331  -0.50985  -0.50955
 Alpha  occ. eigenvalues --   -0.50769  -0.50492  -0.50233  -0.49943  -0.49797
 Alpha  occ. eigenvalues --   -0.49531  -0.49240  -0.49137  -0.49090  -0.48818
 Alpha  occ. eigenvalues --   -0.48730  -0.48379  -0.48125  -0.47927  -0.47684
 Alpha  occ. eigenvalues --   -0.47654  -0.47030  -0.46985  -0.46761  -0.46656
 Alpha  occ. eigenvalues --   -0.46550  -0.46318  -0.46178  -0.46028  -0.45929
 Alpha  occ. eigenvalues --   -0.45843  -0.45623  -0.45254  -0.44973  -0.44855
 Alpha  occ. eigenvalues --   -0.44740  -0.44622  -0.44478  -0.44419  -0.44153
 Alpha  occ. eigenvalues --   -0.43988  -0.43813  -0.43619  -0.43384  -0.43152
 Alpha  occ. eigenvalues --   -0.43030  -0.42944  -0.42578  -0.42565  -0.42148
 Alpha  occ. eigenvalues --   -0.41865  -0.41656  -0.41264  -0.41216  -0.40849
 Alpha  occ. eigenvalues --   -0.40703  -0.40085  -0.39888  -0.39536  -0.39256
 Alpha  occ. eigenvalues --   -0.39169  -0.38995  -0.38884  -0.38293  -0.38123
 Alpha  occ. eigenvalues --   -0.37972  -0.36949  -0.36830  -0.36365  -0.36251
 Alpha  occ. eigenvalues --   -0.36122  -0.35769  -0.34954  -0.33785  -0.33652
 Alpha  occ. eigenvalues --   -0.33108  -0.32635  -0.31552  -0.31446  -0.26046
 Alpha  occ. eigenvalues --   -0.23293
 Alpha virt. eigenvalues --   -0.07338   0.00336   0.02342   0.04600   0.04986
 Alpha virt. eigenvalues --    0.06810   0.07022   0.07520   0.08161   0.08690
 Alpha virt. eigenvalues --    0.10796   0.11093   0.12037   0.12291   0.12717

 Mulliken charges:
               1
     1  Mg   0.981290
     2  C   -0.072938
     3  C   -0.108212
     4  C   -0.077421
     5  C   -0.076881
     6  N   -0.334405
     7  C    0.022084
     8  C   -0.085399
     9  C   -0.141424
    10  C    0.075991
    11  C    0.012311
    12  C    0.030974
    13  C    0.078791
    14  C    0.184989
    15  O   -0.291975
    16  O   -0.369126
    17  N   -0.531610
    18  C    0.234254
    19  C   -0.151430
    20  C   -0.045897
    21  C    0.152198
    22  C    0.052656
    23  C    0.017190
    24  O   -0.225013
    25  C   -0.005529
    26  N   -0.321023
    27  C    0.055654
    28  C   -0.094053
    29  C   -0.043749
    30  C    0.027516
    31  C    0.014794
    32  C   -0.005321
    33  C   -0.042835
    34  N   -0.449374
    35  C    0.125348
    36  C   -0.139096
    37  C   -0.082707
    38  C    0.185490
    39  C    0.059662
    40  C    0.112864
    41  O   -0.210611
    42  C   -0.081158
    43  C    0.292344
    44  O   -0.262694
    45  O   -0.404797
    46  C    0.149429
    47  C    0.250311
    48  C   -0.130440
    49  C   -0.152506
    50  C    0.024351
    51  C    0.018544
    52  C   -0.022469
    53  C    0.006805
    54  C   -0.210027
    55  C    0.020305
    56  C    0.023836
    57  C   -0.030753
    58  C   -0.009296
    59  C   -0.220015
    60  C    0.018008
    61  C    0.021311
    62  C   -0.045642
    63  C    0.011135
    64  C   -0.237871
    65  C    0.001040
    66  C   -0.011685
    67  H    0.002177
    68  H    0.031851
    69  H    0.000428
    70  H    0.065731
    71  H    0.039353
    72  H    0.045241
    73  H    0.048588
    74  H    0.018170
    75  H    0.027338
    76  H    0.025577
    77  H    0.049613
    78  H    0.070761
    79  H    0.063013
    80  H    0.049263
    81  H    0.029397
    82  H    0.053070
    83  H    0.055801
    84  H    0.037913
    85  H    0.048048
    86  H    0.027400
    87  H    0.029988
    88  H    0.045411
    89  H    0.051221
    90  H    0.026159
    91  H    0.026512
    92  H    0.037080
    93  H    0.054397
    94  H    0.027385
    95  H    0.053816
    96  H    0.037455
    97  H    0.064650
    98  H    0.069743
    99  H    0.049002
   100  H    0.064411
   101  H    0.049915
   102  H    0.041250
   103  H    0.048122
   104  H    0.030352
   105  H    0.042116
   106  H    0.059171
   107  H    0.034368
   108  H    0.016561
   109  H    0.031994
   110  H    0.013329
   111  H   -0.004718
   112  H    0.011604
   113  H    0.026308
   114  H    0.011630
   115  H    0.038383
   116  H    0.028873
   117  H    0.026949
   118  H    0.018649
   119  H    0.001232
   120  H    0.026052
   121  H    0.021685
   122  H    0.022889
   123  H    0.026908
   124  H    0.019853
   125  H    0.025293
   126  H    0.027447
   127  H    0.032220
   128  H    0.011654
   129  H    0.014880
   130  H    0.016209
   131  H    0.019940
   132  H    0.023799
   133  H    0.017701
   134  H    0.029061
   135  H    0.026481
   136  H    0.024223
   137  H    0.032181
   138  H    0.023519
   139  H    0.045087
   140  H    0.024769
 Sum of Mulliken charges =  -0.00000

 Dipole moment (field-independent basis, Debye):
    X=              6.4786    Y=              4.9335    Z=             -2.5399  Tot=              8.5301
 Quadrupole moment (field-independent basis, Debye-Ang):
   XX=           -395.8423   YY=           -432.4098   ZZ=           -406.0307
   XY=            -34.2110   XZ=              9.1154   YZ=             10.0165

 Normal termination of Gaussian 16 at Thu May  5 01:25:22 2022.
