 Gaussian 16, Revision A.03,
 Gaussian 16:  ES64L-G16RevA.03 25-Dec-2016

 --------------------
 #p ZINDO=(nstates=5)
 --------------------

 ----------------------------
 step_501_chromophore_6 ZINDO
 ----------------------------
 Symbolic Z-matrix:
 Charge =  0 Multiplicity = 1

                         Standard orientation:
 ---------------------------------------------------------------------
 Center     Atomic      Atomic             Coordinates (Angstroms)
 Number     Number       Type             X           Y           Z
 ---------------------------------------------------------------------
      1         12           0       -5.382014    1.001555   -0.146301
      2          6           0       -4.791847   -2.423804    0.068511
      3          6           0       -1.987576    1.558448   -0.196371
      4          6           0       -6.119710    4.295900   -0.072491
      5          6           0       -8.859170    0.318550    0.314785
      6          7           0       -3.644150   -0.293369    0.039429
      7          6           0       -3.615983   -1.652894    0.087650
      8          6           0       -2.179075   -2.186173    0.019862
      9          6           0       -1.336025   -0.836590    0.084906
     10          6           0       -2.429436    0.228607   -0.048100
     11          6           0       -0.574172   -0.699259    1.397569
     12          6           0       -1.781758   -2.922312   -1.309004
     13          6           0       -0.704092   -3.971703   -1.223361
     14          6           0        0.151679   -4.034306   -0.038259
     15          8           0       -0.095835   -4.661329    1.015083
     16          8           0        1.317665   -3.377438   -0.298068
     17          7           0       -4.232119    2.654021   -0.226393
     18          6           0       -2.822968    2.668778   -0.233652
     19          6           0       -2.436607    4.036159   -0.463945
     20          6           0       -3.591447    4.858368   -0.488413
     21          6           0       -4.732462    3.939676   -0.253081
     22          6           0       -0.998668    4.507705   -0.426921
     23          6           0       -3.751743    6.301224   -0.727067
     24          8           0       -4.786308    6.899383   -0.521524
     25          6           0       -2.512098    7.185786   -1.116090
     26          7           0       -7.270016    2.209006   -0.081176
     27          6           0       -7.268910    3.507836   -0.039373
     28          6           0       -8.712897    4.074461    0.110218
     29          6           0       -9.600260    2.843954    0.159308
     30          6           0       -8.552428    1.673631    0.187867
     31          6           0       -8.790737    5.087331    1.347656
     32          6           0      -10.615768    2.782009   -1.001207
     33          6           0      -12.067354    3.321504   -0.717064
     34          7           0       -6.609302   -0.609414   -0.127302
     35          6           0       -8.005313   -0.752607    0.069262
     36          6           0       -8.389361   -2.112466    0.044684
     37          6           0       -7.103496   -2.797805    0.128592
     38          6           0       -6.096944   -1.800891   -0.017885
     39          6           0       -9.781655   -2.651373    0.318040
     40          6           0       -6.575262   -4.101911    0.291297
     41          8           0       -7.108831   -5.200184    0.384947
     42          6           0       -4.925785   -3.892945    0.162776
     43          6           0       -4.352350   -4.551311    1.383142
     44          8           0       -4.630355   -4.234944    2.544639
     45          8           0       -3.544882   -5.684398    1.068548
     46          6           0       -2.946639   -6.401474    2.237808
     47          6           0        2.500479   -3.566981    0.583264
     48          6           0        3.694509   -3.510394   -0.289807
     49          6           0        4.426629   -2.405691   -0.416447
     50          6           0        4.095084   -1.040727    0.184223
     51          6           0        5.552335   -2.387122   -1.461024
     52          6           0        6.926279   -2.773057   -1.057284
     53          6           0        7.970145   -2.826927   -2.209567
     54          6           0        8.945407   -1.604329   -2.346635
     55          6           0        9.586060   -1.550071   -3.727248
     56          6           0       10.047697   -1.646439   -1.281552
     57          6           0       10.800895   -0.299854   -1.091004
     58          6           0       12.378283   -0.354463   -1.199759
     59          6           0       13.163029    0.947555   -0.543579
     60          6           0       14.386750    1.319733   -1.357100
     61          6           0       13.634554    0.700254    0.921249
     62          6           0       13.087350    1.734243    1.939147
     63          6           0       14.255964    2.315598    2.741532
     64          6           0       14.901712    3.485277    1.949629
     65          6           0       14.719275    4.802093    2.756477
     66          6           0       16.420739    3.156286    1.663125
     67          1           0       -0.899742    1.660583   -0.205568
     68          1           0       -6.256163    5.359456    0.132355
     69          1           0       -9.913833    0.051466    0.404777
     70          1           0       -2.040802   -2.797130    0.912167
     71          1           0       -0.589326   -0.763883   -0.705717
     72          1           0       -0.531924   -1.648708    1.930609
     73          1           0       -0.952920    0.109807    2.022712
     74          1           0        0.496455   -0.538869    1.270341
     75          1           0       -1.495993   -2.158948   -2.031845
     76          1           0       -2.705941   -3.320167   -1.728737
     77          1           0        0.004269   -3.761769   -2.024466
     78          1           0       -1.156853   -4.956152   -1.341823
     79          1           0       -0.782275    5.159552    0.419398
     80          1           0       -0.780604    4.996301   -1.377486
     81          1           0       -0.241817    3.731563   -0.314570
     82          1           0       -2.001365    7.407089   -0.178567
     83          1           0       -2.844144    8.164485   -1.462758
     84          1           0       -1.830834    6.637386   -1.765517
     85          1           0       -8.844332    4.646993   -0.808140
     86          1           0      -10.090210    2.736604    1.125825
     87          1           0       -9.557138    4.770514    2.054881
     88          1           0       -9.123494    6.088050    1.071384
     89          1           0       -7.802813    5.030239    1.806508
     90          1           0      -10.692205    1.729364   -1.275867
     91          1           0      -10.160879    3.309649   -1.839655
     92          1           0      -12.641245    2.505406   -0.276634
     93          1           0      -12.623964    3.792348   -1.527593
     94          1           0      -11.861366    4.013559    0.098774
     95          1           0      -10.266624   -2.585944   -0.655582
     96          1           0      -10.317471   -2.026711    1.031763
     97          1           0       -9.838999   -3.596355    0.859771
     98          1           0       -4.588173   -4.340728   -0.772714
     99          1           0       -3.714108   -6.831273    2.880513
    100          1           0       -2.271762   -5.851384    2.894125
    101          1           0       -2.449225   -7.210026    1.702160
    102          1           0        2.467522   -4.560411    1.031469
    103          1           0        2.547886   -2.914208    1.455030
    104          1           0        4.082690   -4.453786   -0.672601
    105          1           0        4.098305   -0.272608   -0.588345
    106          1           0        4.810471   -0.836459    0.981605
    107          1           0        3.078912   -0.920937    0.560418
    108          1           0        5.695961   -1.378782   -1.847785
    109          1           0        5.384756   -3.109687   -2.260012
    110          1           0        6.985139   -3.638242   -0.397897
    111          1           0        7.250596   -2.027643   -0.330581
    112          1           0        7.420885   -2.754691   -3.147997
    113          1           0        8.494573   -3.781371   -2.159239
    114          1           0        8.292860   -0.743276   -2.202801
    115          1           0       10.662306   -1.380192   -3.712352
    116          1           0        9.089670   -0.763265   -4.295085
    117          1           0        9.348902   -2.499974   -4.205136
    118          1           0       10.681988   -2.530620   -1.356686
    119          1           0        9.535261   -1.769926   -0.327956
    120          1           0       10.532775    0.102671   -0.114205
    121          1           0       10.450897    0.383152   -1.865362
    122          1           0       12.629679   -0.320188   -2.260821
    123          1           0       12.770732   -1.216684   -0.661700
    124          1           0       12.448969    1.771189   -0.560944
    125          1           0       15.209604    1.715534   -0.761261
    126          1           0       13.918702    2.053967   -2.012687
    127          1           0       14.692049    0.449560   -1.937151
    128          1           0       14.716246    0.747878    1.041120
    129          1           0       13.294675   -0.292062    1.221282
    130          1           0       12.378718    1.229547    2.595447
    131          1           0       12.557652    2.537269    1.426813
    132          1           0       15.023116    1.554016    2.888043
    133          1           0       13.823586    2.704225    3.663133
    134          1           0       14.456222    3.556427    0.957740
    135          1           0       14.400666    5.560491    2.041983
    136          1           0       15.646382    5.209986    3.160599
    137          1           0       14.020941    4.766169    3.592364
    138          1           0       17.036535    4.036428    1.848630
    139          1           0       16.600430    2.814169    0.644037
    140          1           0       16.683038    2.420347    2.423025
 ---------------------------------------------------------------------

 SCF Done:  E(RZINDO/S) =  -474.225647828     A.U. after   19 cycles

 Excitation energies and oscillator strengths:

 Excited State   1:      Singlet-A      1.2856 eV  964.38 nm  f=0.5428  <S**2>=0.000
     175 ->178         0.16198
     176 ->177         0.67184
 This state for optimization and/or second-order correction.
 Total Energy, E(CIS/TDA) =  -474.178401353
 Copying the excited state density for this state as the 1-particle RhoCI density.

 Excited State   2:      Singlet-A      1.9395 eV  639.25 nm  f=0.0747  <S**2>=0.000
     175 ->177         0.55967
     176 ->178        -0.39559

 Excited State   3:      Singlet-A      2.8574 eV  433.91 nm  f=0.0281  <S**2>=0.000
     167 ->177         0.11117
     167 ->179        -0.15261
     168 ->177         0.34892
     168 ->179        -0.40673
     168 ->181         0.21058
     168 ->186        -0.18719
     168 ->193        -0.10048

 Excited State   4:      Singlet-A      2.9653 eV  418.11 nm  f=0.6568  <S**2>=0.000
     170 ->177        -0.10336
     175 ->177         0.31045
     176 ->178         0.47755
     176 ->179        -0.20124
     176 ->181        -0.21199

 Excited State   5:      Singlet-A      3.0025 eV  412.94 nm  f=0.4010  <S**2>=0.000
     172 ->177         0.22797
     172 ->178        -0.11381
     172 ->179         0.17824
     172 ->181         0.28321
     172 ->186         0.12845
     175 ->177         0.18888
     176 ->178         0.23522
     176 ->179         0.30870
     176 ->181         0.15616

 The electronic state is 1-A.
 Alpha  occ. eigenvalues --   -1.84154  -1.81188  -1.80047  -1.73418  -1.70624
 Alpha  occ. eigenvalues --   -1.66998  -1.65603  -1.63432  -1.60340  -1.55633
 Alpha  occ. eigenvalues --   -1.55261  -1.51516  -1.48726  -1.46780  -1.46597
 Alpha  occ. eigenvalues --   -1.43947  -1.42180  -1.39912  -1.38808  -1.38543
 Alpha  occ. eigenvalues --   -1.36017  -1.34223  -1.33198  -1.33136  -1.29262
 Alpha  occ. eigenvalues --   -1.27706  -1.24336  -1.22618  -1.21057  -1.18343
 Alpha  occ. eigenvalues --   -1.16787  -1.16385  -1.15311  -1.13908  -1.12689
 Alpha  occ. eigenvalues --   -1.12109  -1.11450  -1.10124  -1.04966  -1.03460
 Alpha  occ. eigenvalues --   -1.02964  -1.01182  -0.99179  -0.98423  -0.95799
 Alpha  occ. eigenvalues --   -0.95300  -0.94781  -0.93374  -0.92849  -0.92340
 Alpha  occ. eigenvalues --   -0.92110  -0.90696  -0.89648  -0.88461  -0.86599
 Alpha  occ. eigenvalues --   -0.86073  -0.85117  -0.83611  -0.82143  -0.80640
 Alpha  occ. eigenvalues --   -0.80320  -0.79046  -0.78697  -0.77535  -0.76681
 Alpha  occ. eigenvalues --   -0.75832  -0.75457  -0.74641  -0.74245  -0.73992
 Alpha  occ. eigenvalues --   -0.73330  -0.72588  -0.71798  -0.71625  -0.70937
 Alpha  occ. eigenvalues --   -0.69841  -0.69340  -0.68728  -0.68039  -0.67803
 Alpha  occ. eigenvalues --   -0.67295  -0.66789  -0.66384  -0.66067  -0.66004
 Alpha  occ. eigenvalues --   -0.65298  -0.64903  -0.64076  -0.63802  -0.63308
 Alpha  occ. eigenvalues --   -0.62940  -0.62870  -0.62168  -0.62008  -0.61546
 Alpha  occ. eigenvalues --   -0.61200  -0.60973  -0.60700  -0.60299  -0.60241
 Alpha  occ. eigenvalues --   -0.59673  -0.59416  -0.59258  -0.59058  -0.58719
 Alpha  occ. eigenvalues --   -0.58276  -0.57766  -0.57039  -0.56857  -0.56084
 Alpha  occ. eigenvalues --   -0.55510  -0.55414  -0.55161  -0.54960  -0.54660
 Alpha  occ. eigenvalues --   -0.54585  -0.53695  -0.53199  -0.52713  -0.52538
 Alpha  occ. eigenvalues --   -0.52367  -0.52033  -0.51857  -0.51759  -0.51551
 Alpha  occ. eigenvalues --   -0.51253  -0.50866  -0.50663  -0.50558  -0.50182
 Alpha  occ. eigenvalues --   -0.50004  -0.49821  -0.49723  -0.49520  -0.49394
 Alpha  occ. eigenvalues --   -0.48980  -0.48216  -0.47941  -0.47810  -0.47733
 Alpha  occ. eigenvalues --   -0.47510  -0.47215  -0.47048  -0.47023  -0.46650
 Alpha  occ. eigenvalues --   -0.46474  -0.45975  -0.45854  -0.45607  -0.45538
 Alpha  occ. eigenvalues --   -0.45418  -0.44963  -0.44452  -0.44325  -0.44108
 Alpha  occ. eigenvalues --   -0.43728  -0.43520  -0.42839  -0.42397  -0.42349
 Alpha  occ. eigenvalues --   -0.41991  -0.41241  -0.40551  -0.39273  -0.38958
 Alpha  occ. eigenvalues --   -0.37607  -0.36755  -0.35942  -0.35089  -0.34356
 Alpha  occ. eigenvalues --   -0.33827  -0.33308  -0.31989  -0.31157  -0.26656
 Alpha  occ. eigenvalues --   -0.21931
 Alpha virt. eigenvalues --   -0.08581  -0.01802  -0.00628   0.01140   0.01516
 Alpha virt. eigenvalues --    0.02845   0.03173   0.03450   0.03917   0.05034
 Alpha virt. eigenvalues --    0.06403   0.06557   0.06769   0.07813   0.08210

 Mulliken charges:
               1
     1  Mg   0.422239
     2  C   -0.023173
     3  C   -0.084455
     4  C   -0.086419
     5  C   -0.049399
     6  N   -0.258372
     7  C    0.083529
     8  C   -0.004253
     9  C   -0.003917
    10  C    0.175736
    11  C   -0.052219
    12  C   -0.013278
    13  C    0.015829
    14  C    0.480416
    15  O   -0.535257
    16  O   -0.272672
    17  N   -0.344554
    18  C    0.130725
    19  C    0.032418
    20  C   -0.028733
    21  C    0.153828
    22  C   -0.044592
    23  C    0.326652
    24  O   -0.510679
    25  C   -0.038693
    26  N   -0.273752
    27  C    0.189216
    28  C    0.003661
    29  C    0.010744
    30  C    0.064634
    31  C   -0.059046
    32  C   -0.028361
    33  C   -0.063441
    34  N   -0.306888
    35  C    0.067399
    36  C   -0.000751
    37  C   -0.076378
    38  C    0.121942
    39  C   -0.040178
    40  C    0.324775
    41  O   -0.529211
    42  C    0.056602
    43  C    0.481607
    44  O   -0.513748
    45  O   -0.282782
    46  C    0.076739
    47  C    0.105338
    48  C   -0.077735
    49  C   -0.003315
    50  C   -0.042547
    51  C   -0.019999
    52  C   -0.030563
    53  C   -0.038956
    54  C   -0.006572
    55  C   -0.056646
    56  C   -0.033225
    57  C   -0.038631
    58  C   -0.048129
    59  C   -0.025568
    60  C   -0.061458
    61  C   -0.040928
    62  C   -0.040045
    63  C   -0.036456
    64  C   -0.016318
    65  C   -0.057731
    66  C   -0.066532
    67  H    0.034948
    68  H    0.046130
    69  H    0.028857
    70  H    0.053400
    71  H    0.030703
    72  H    0.028728
    73  H    0.026467
    74  H    0.011107
    75  H    0.019794
    76  H    0.021346
    77  H    0.030287
    78  H    0.048363
    79  H    0.034256
    80  H    0.031537
    81  H    0.019387
    82  H    0.036119
    83  H    0.043496
    84  H    0.033432
    85  H    0.034220
    86  H    0.029378
    87  H    0.018163
    88  H    0.027711
    89  H    0.033489
    90  H    0.017878
    91  H    0.021102
    92  H    0.020190
    93  H    0.032923
    94  H    0.016334
    95  H    0.033776
    96  H    0.017504
    97  H    0.039834
    98  H    0.051854
    99  H    0.043893
   100  H    0.054781
   101  H    0.028461
   102  H    0.038416
   103  H    0.049655
   104  H    0.037727
   105  H    0.021680
   106  H    0.034818
   107  H    0.020291
   108  H    0.021087
   109  H    0.022988
   110  H    0.017521
   111  H    0.003386
   112  H    0.011826
   113  H    0.023426
   114  H    0.020763
   115  H    0.025490
   116  H    0.014569
   117  H    0.018560
   118  H    0.027365
   119  H    0.002877
   120  H    0.019858
   121  H    0.018306
   122  H    0.022174
   123  H    0.027829
   124  H    0.021514
   125  H    0.029063
   126  H    0.015251
   127  H    0.021208
   128  H    0.025268
   129  H    0.014023
   130  H    0.010954
   131  H    0.021349
   132  H    0.027619
   133  H    0.017350
   134  H    0.025133
   135  H    0.010609
   136  H    0.017442
   137  H    0.023700
   138  H    0.015398
   139  H    0.024497
   140  H    0.021681
 Sum of Mulliken charges =  -0.00000

 Dipole moment (field-independent basis, Debye):
    X=             10.5218    Y=              8.1385    Z=             -4.4066  Tot=             14.0129
 N-N= 4.246256096151D+03 E-N= 0.000000000000D+00  KE=-9.166726244647D+03
 Leave Link  601 at Thu May  5 01:40:39 2022, MaxMem=  6710886400 cpu:               0.8 elap:               0.0
 (Enter /sw/apps/gaussian-16.0/g16/l9999.exe)
 1\1\GINC-BP1-COMPUTE179\SP\RZINDO CIS\STO-3G\C55H74Mg1N4O6\OF15641\05-
 May-2022\0\\#p ZINDO=(nstates=5)\\step_501_chromophore_6 ZINDO\\0,1\Mg
 ,0,16.958,-2.043,28.058\C,0,15.679,0.037,30.541\C,0,18.787,-3.721,30.4
 4\C,0,18.313,-3.789,25.505\C,0,15.327,0.024,25.642\N,0,17.259,-1.763,3
 0.194\C,0,16.628,-0.884,31.019\C,0,16.984,-1.141,32.489\C,0,18.1,-2.26
 9,32.353\C,0,18.024,-2.614,30.862\C,0,19.482,-1.758,32.742\C,0,15.833,
 -1.727,33.382\C,0,15.875,-1.418,34.856\C,0,17.108,-0.903,35.452\O,0,17

 Normal termination of Gaussian 16 at Thu May  5 01:40:39 2022.
