 Gaussian 16, Revision A.03,
 Gaussian 16:  ES64L-G16RevA.03 25-Dec-2016

 ------------------------------
 #p blyp/Def2SVP td=(nstates=5)
 ------------------------------

 ------------------------------------------------
 step_1_chromophore_15 TDDFT with blyp functional
 ------------------------------------------------
 Symbolic Z-matrix:
 Charge =  0 Multiplicity = 1

                         Standard orientation:
 ---------------------------------------------------------------------
 Center     Atomic      Atomic             Coordinates (Angstroms)
 Number     Number       Type             X           Y           Z
 ---------------------------------------------------------------------
      1         12           0       -4.917208    0.927405    0.230462
      2          6           0       -4.531431   -2.483655    0.549529
      3          6           0       -1.341364    1.126085    0.272479
      4          6           0       -5.130127    4.184120    0.270932
      5          6           0       -8.348309    0.616449    0.540387
      6          7           0       -3.134335   -0.569381    0.611870
      7          6           0       -3.267501   -1.878409    0.479158
      8          6           0       -1.903644   -2.546073    0.144926
      9          6           0       -0.928577   -1.420896    0.639062
     10          6           0       -1.811328   -0.168564    0.516454
     11          6           0       -0.432794   -1.661449    2.109289
     12          6           0       -1.897132   -2.763994   -1.384544
     13          6           0       -0.710327   -3.548878   -1.959767
     14          6           0        0.496618   -3.849239   -1.093816
     15          8           0        0.417228   -4.469167   -0.051063
     16          8           0        1.643609   -3.325646   -1.665192
     17          7           0       -3.535355    2.478930    0.158501
     18          6           0       -2.105675    2.331254    0.146303
     19          6           0       -1.569176    3.660269   -0.113194
     20          6           0       -2.687094    4.544824   -0.225318
     21          6           0       -3.875396    3.760531    0.107624
     22          6           0       -0.040659    3.993304   -0.288994
     23          6           0       -2.659421    6.050577   -0.648983
     24          8           0       -3.681192    6.676366   -0.574191
     25          6           0       -1.385415    6.691874   -1.094407
     26          7           0       -6.542033    2.228491    0.293328
     27          6           0       -6.394519    3.572545    0.296641
     28          6           0       -7.717196    4.324449    0.440373
     29          6           0       -8.746147    3.171509    0.385323
     30          6           0       -7.805061    1.899175    0.408846
     31          6           0       -7.858130    5.214294    1.729663
     32          6           0       -9.792258    3.226803   -0.698630
     33          6           0       -9.413425    3.535445   -2.167234
     34          7           0       -6.248294   -0.563854    0.506893
     35          6           0       -7.610252   -0.569168    0.605559
     36          6           0       -8.029632   -1.954348    0.640891
     37          6           0       -6.865423   -2.795812    0.591110
     38          6           0       -5.797319   -1.859832    0.523304
     39          6           0       -9.457509   -2.395001    0.728217
     40          6           0       -6.356006   -4.124937    0.642331
     41          8           0       -6.904097   -5.243024    0.755498
     42          6           0       -4.766133   -3.899878    0.890801
     43          6           0       -4.045553   -4.994795    0.102439
     44          8           0       -4.194189   -5.225506   -1.036396
     45          8           0       -3.240106   -5.676012    0.970091
     46          6           0       -2.195565   -6.511863    0.414826
     47          6           0        2.853224   -3.611209   -0.886068
     48          6           0        3.939014   -2.824342   -1.530455
     49          6           0        5.257426   -2.869431   -1.144236
     50          6           0        5.637589   -3.845493    0.053752
     51          6           0        6.391029   -2.158620   -1.805725
     52          6           0        6.246765   -0.627698   -1.686176
     53          6           0        6.700004    0.212275   -2.925323
     54          6           0        7.952487    1.013394   -2.565294
     55          6           0        8.064060    2.177113   -3.535217
     56          6           0        9.166550    0.003151   -2.757275
     57          6           0        9.949715   -0.081373   -1.410783
     58          6           0       11.436270    0.328998   -1.489119
     59          6           0       11.800908    1.710549   -0.716138
     60          6           0       12.686477    2.614188   -1.563567
     61          6           0       12.315813    1.462329    0.730371
     62          6           0       11.537785    2.115274    1.872711
     63          6           0       11.099579    0.958209    2.837283
     64          6           0       11.335792    1.209119    4.314157
     65          6           0       12.566589    0.523799    4.864970
     66          6           0       10.042634    0.858112    5.016817
     67          1           0       -0.254272    1.183583    0.352910
     68          1           0       -5.257657    5.266597    0.337780
     69          1           0       -9.420351    0.450968    0.659954
     70          1           0       -1.724712   -3.440606    0.741316
     71          1           0       -0.131983   -1.433698   -0.105220
     72          1           0        0.595797   -2.019476    2.089249
     73          1           0       -1.102596   -2.386882    2.571438
     74          1           0       -0.396143   -0.752764    2.710229
     75          1           0       -1.831596   -1.780978   -1.850176
     76          1           0       -2.852096   -3.141451   -1.748866
     77          1           0       -0.448172   -3.247704   -2.974248
     78          1           0       -1.136277   -4.517107   -2.223491
     79          1           0        0.277512    4.825986    0.339010
     80          1           0        0.096143    4.178424   -1.354291
     81          1           0        0.551091    3.099344   -0.088431
     82          1           0       -1.751595    7.469091   -1.765556
     83          1           0       -0.783293    6.038263   -1.724515
     84          1           0       -0.607094    6.939752   -0.372743
     85          1           0       -7.775359    4.959430   -0.443378
     86          1           0       -9.284981    3.037042    1.323207
     87          1           0       -8.906783    5.144476    2.017486
     88          1           0       -7.610236    6.206535    1.352119
     89          1           0       -7.113196    4.929709    2.472689
     90          1           0      -10.293404    4.154961   -0.425963
     91          1           0      -10.502780    2.401673   -0.758155
     92          1           0       -9.827273    4.430713   -2.629372
     93          1           0       -9.817680    2.785801   -2.847422
     94          1           0       -8.329831    3.625092   -2.245343
     95          1           0       -9.423068   -3.481902    0.797122
     96          1           0       -9.979629   -2.153571   -0.198610
     97          1           0      -10.051770   -1.902040    1.497032
     98          1           0       -4.643595   -3.962142    1.972299
     99          1           0       -2.542015   -7.370022    0.990882
    100          1           0       -1.190137   -6.118133    0.565315
    101          1           0       -2.315089   -6.738762   -0.644896
    102          1           0        3.155324   -4.654958   -0.962898
    103          1           0        2.862036   -3.151935    0.102378
    104          1           0        3.786109   -2.230568   -2.432620
    105          1           0        5.770767   -3.342662    1.011765
    106          1           0        6.576114   -4.278526   -0.292035
    107          1           0        4.936750   -4.679981    0.041106
    108          1           0        6.399890   -2.326691   -2.882142
    109          1           0        7.390524   -2.520335   -1.564835
    110          1           0        6.724453   -0.232479   -0.789810
    111          1           0        5.191953   -0.395755   -1.538040
    112          1           0        5.832912    0.855357   -3.077434
    113          1           0        6.831289   -0.317761   -3.867667
    114          1           0        7.983523    1.382541   -1.540172
    115          1           0        9.116082    2.453584   -3.473606
    116          1           0        7.456474    3.017235   -3.197386
    117          1           0        7.879720    1.744428   -4.518448
    118          1           0        9.887686    0.297858   -3.519830
    119          1           0        8.742155   -0.998509   -2.821954
    120          1           0        9.906562   -1.147037   -1.188226
    121          1           0        9.508667    0.458351   -0.573024
    122          1           0       11.769755    0.376445   -2.526064
    123          1           0       11.968163   -0.474194   -0.978311
    124          1           0       10.907875    2.332562   -0.669439
    125          1           0       12.193415    3.465415   -2.031317
    126          1           0       13.220845    2.112020   -2.370357
    127          1           0       13.427825    3.096335   -0.926818
    128          1           0       13.313116    1.879682    0.874305
    129          1           0       12.459199    0.393575    0.891361
    130          1           0       10.659248    2.616704    1.467766
    131          1           0       12.066751    2.883405    2.435650
    132          1           0       11.630806    0.023852    2.659086
    133          1           0       10.019521    0.920653    2.693679
    134          1           0       11.399472    2.290716    4.429325
    135          1           0       13.380095    1.249477    4.842564
    136          1           0       12.857373   -0.384199    4.336041
    137          1           0       12.231055    0.237585    5.861075
    138          1           0       10.089220    1.434458    5.940368
    139          1           0       10.027351   -0.221382    5.169934
    140          1           0        9.115675    1.239937    4.589443
 ---------------------------------------------------------------------

 SCF Done:  E(RB-LYP) =  -3007.33547382     A.U. after   22 cycles

 Excitation energies and oscillator strengths:

 Excited State   1:      Singlet-A      1.8185 eV  681.78 nm  f=0.2846  <S**2>=0.000
     244 -> 247       -0.12459
     245 -> 248       -0.20145
     246 -> 247        0.67253
     246 <- 247       -0.13904
 This state for optimization and/or second-order correction.
 Total Energy, E(TD-HF/TD-DFT) =  -3007.26864386
 Copying the excited state density for this state as the 1-particle RhoCI density.

 Excited State   2:      Singlet-A      1.9269 eV  643.43 nm  f=0.0517  <S**2>=0.000
     244 -> 247       -0.36205
     245 -> 247        0.56083
     246 -> 247       -0.11484
     246 -> 248        0.15545

 Excited State   3:      Singlet-A      2.0453 eV  606.18 nm  f=0.0254  <S**2>=0.000
     244 -> 247        0.58393
     245 -> 247        0.32613
     246 -> 248        0.16793

 Excited State   4:      Singlet-A      2.1383 eV  579.82 nm  f=0.0012  <S**2>=0.000
     243 -> 247        0.69505

 Excited State   5:      Singlet-A      2.3557 eV  526.32 nm  f=0.0000  <S**2>=0.000
     242 -> 247        0.70710

 The electronic state is 1-A.
 Alpha  occ. eigenvalues --  -46.26625 -18.83813 -18.80702 -18.78605 -18.76607
 Alpha  occ. eigenvalues --  -18.75842 -18.75529 -14.02824 -14.02689 -14.00792
 Alpha  occ. eigenvalues --  -14.00687 -10.05483 -10.02984 -10.00071  -9.99294
 Alpha  occ. eigenvalues --   -9.99041  -9.96085  -9.96043  -9.96029  -9.96008
 Alpha  occ. eigenvalues --   -9.95980  -9.95954  -9.95106  -9.94725  -9.94659
 Alpha  occ. eigenvalues --   -9.93863  -9.93808  -9.93792  -9.93742  -9.93646
 Alpha  occ. eigenvalues --   -9.93618  -9.93584  -9.93543  -9.93416  -9.93364
 Alpha  occ. eigenvalues --   -9.93361  -9.93114  -9.92897  -9.92741  -9.92694
 Alpha  occ. eigenvalues --   -9.92567  -9.92442  -9.92391  -9.92223  -9.92151
 Alpha  occ. eigenvalues --   -9.92117  -9.92101  -9.92061  -9.91847  -9.91727
 Alpha  occ. eigenvalues --   -9.91709  -9.91606  -9.91366  -9.91340  -9.91297
 Alpha  occ. eigenvalues --   -9.91287  -9.91171  -9.91115  -9.91046  -9.91046
 Alpha  occ. eigenvalues --   -9.90941  -9.90878  -9.90835  -9.90670  -9.90551
 Alpha  occ. eigenvalues --   -9.90285  -2.91353  -1.71778  -1.71260  -1.71042
 Alpha  occ. eigenvalues --   -0.99066  -0.98287  -0.93018  -0.91961  -0.91104
 Alpha  occ. eigenvalues --   -0.89376  -0.87373  -0.86180  -0.85275  -0.84543
 Alpha  occ. eigenvalues --   -0.75562  -0.74094  -0.73298  -0.72971  -0.72620
 Alpha  occ. eigenvalues --   -0.72425  -0.71879  -0.71173  -0.70640  -0.69749
 Alpha  occ. eigenvalues --   -0.69336  -0.69009  -0.68185  -0.67425  -0.67311
 Alpha  occ. eigenvalues --   -0.66642  -0.65707  -0.65344  -0.65150  -0.64661
 Alpha  occ. eigenvalues --   -0.64179  -0.62354  -0.62209  -0.61711  -0.60836
 Alpha  occ. eigenvalues --   -0.60644  -0.60287  -0.59972  -0.59464  -0.58768
 Alpha  occ. eigenvalues --   -0.58292  -0.57491  -0.56861  -0.55702  -0.55396
 Alpha  occ. eigenvalues --   -0.53716  -0.53574  -0.52618  -0.52008  -0.51237
 Alpha  occ. eigenvalues --   -0.50966  -0.50902  -0.50702  -0.50131  -0.50093
 Alpha  occ. eigenvalues --   -0.49947  -0.49382  -0.48761  -0.47934  -0.46805
 Alpha  occ. eigenvalues --   -0.46688  -0.45924  -0.45696  -0.45204  -0.44528
 Alpha  occ. eigenvalues --   -0.44286  -0.44075  -0.43640  -0.42854  -0.42440
 Alpha  occ. eigenvalues --   -0.42306  -0.42252  -0.41932  -0.41912  -0.41100
 Alpha  occ. eigenvalues --   -0.40979  -0.40707  -0.40544  -0.40321  -0.40197
 Alpha  occ. eigenvalues --   -0.40009  -0.39892  -0.39799  -0.39573  -0.39493
 Alpha  occ. eigenvalues --   -0.39308  -0.39256  -0.38663  -0.38279  -0.38137
 Alpha  occ. eigenvalues --   -0.37969  -0.37912  -0.37656  -0.37611  -0.37303
 Alpha  occ. eigenvalues --   -0.37142  -0.37065  -0.36708  -0.36661  -0.36502
 Alpha  occ. eigenvalues --   -0.36299  -0.36151  -0.35896  -0.35736  -0.35656
 Alpha  occ. eigenvalues --   -0.35544  -0.35457  -0.35244  -0.35128  -0.35083
 Alpha  occ. eigenvalues --   -0.35047  -0.34772  -0.34603  -0.34299  -0.34086
 Alpha  occ. eigenvalues --   -0.34033  -0.33770  -0.33462  -0.33252  -0.33092
 Alpha  occ. eigenvalues --   -0.32881  -0.32792  -0.32690  -0.32349  -0.31834
 Alpha  occ. eigenvalues --   -0.31753  -0.31522  -0.31484  -0.31455  -0.31394
 Alpha  occ. eigenvalues --   -0.31258  -0.31053  -0.30955  -0.30627  -0.30590
 Alpha  occ. eigenvalues --   -0.30478  -0.30457  -0.30371  -0.30215  -0.30132
 Alpha  occ. eigenvalues --   -0.29873  -0.29665  -0.29565  -0.29445  -0.28968
 Alpha  occ. eigenvalues --   -0.28809  -0.28798  -0.28732  -0.28450  -0.27723
 Alpha  occ. eigenvalues --   -0.27545  -0.27210  -0.27161  -0.26937  -0.26547
 Alpha  occ. eigenvalues --   -0.26428  -0.26093  -0.25857  -0.25479  -0.24826
 Alpha  occ. eigenvalues --   -0.24812  -0.24234  -0.24074  -0.23831  -0.23225
 Alpha  occ. eigenvalues --   -0.23089  -0.23057  -0.22394  -0.21540  -0.20418
 Alpha  occ. eigenvalues --   -0.20028  -0.19908  -0.18976  -0.18396  -0.16898
 Alpha  occ. eigenvalues --   -0.15644
 Alpha virt. eigenvalues --   -0.11251  -0.06818  -0.06129  -0.04294  -0.04158
 Alpha virt. eigenvalues --   -0.02553  -0.01811  -0.01265  -0.00858   0.00185
 Alpha virt. eigenvalues --    0.01071   0.01705   0.02115   0.02196   0.02460

 Mulliken charges:
               1
     1  Mg   0.690321
     2  C    0.015505
     3  C   -0.061897
     4  C   -0.053039
     5  C   -0.106192
     6  N   -0.165742
     7  C   -0.123140
     8  C   -0.000700
     9  C   -0.000375
    10  C   -0.007614
    11  C    0.149776
    12  C    0.108598
    13  C    0.181530
    14  C    0.086936
    15  O   -0.189324
    16  O   -0.273615
    17  N   -0.308614
    18  C    0.162796
    19  C   -0.162427
    20  C    0.023965
    21  C    0.149398
    22  C    0.162866
    23  C   -0.063436
    24  O   -0.140056
    25  C    0.136772
    26  N   -0.188801
    27  C   -0.040483
    28  C    0.010622
    29  C    0.050341
    30  C    0.048930
    31  C    0.140054
    32  C    0.092860
    33  C    0.042716
    34  N   -0.300863
    35  C    0.119990
    36  C   -0.182353
    37  C    0.104344
    38  C    0.108978
    39  C    0.170289
    40  C   -0.029978
    41  O   -0.161352
    42  C    0.002832
    43  C    0.094076
    44  O   -0.121880
    45  O   -0.275522
    46  C    0.176530
    47  C    0.343274
    48  C   -0.140374
    49  C   -0.180276
    50  C    0.121424
    51  C    0.169612
    52  C    0.062441
    53  C    0.095184
    54  C   -0.102003
    55  C    0.140473
    56  C    0.117702
    57  C    0.027606
    58  C    0.103321
    59  C   -0.061336
    60  C    0.092192
    61  C    0.119967
    62  C    0.074459
    63  C    0.089836
    64  C   -0.120422
    65  C    0.149335
    66  C    0.094876
    67  H   -0.056328
    68  H   -0.058636
    69  H   -0.069803
    70  H   -0.013339
    71  H   -0.038856
    72  H   -0.006206
    73  H    0.003293
    74  H   -0.011930
    75  H   -0.027262
    76  H    0.005248
    77  H   -0.022037
    78  H   -0.004767
    79  H    0.012788
    80  H    0.011282
    81  H   -0.021577
    82  H   -0.001168
    83  H   -0.030003
    84  H    0.018548
    85  H   -0.013510
    86  H   -0.033316
    87  H    0.002115
    88  H    0.002616
    89  H    0.006437
    90  H   -0.023702
    91  H   -0.012030
    92  H   -0.014818
    93  H   -0.015001
    94  H   -0.000181
    95  H    0.009152
    96  H   -0.008544
    97  H   -0.001180
    98  H    0.012133
    99  H    0.016297
   100  H    0.046345
   101  H    0.010657
   102  H    0.028396
   103  H    0.026270
   104  H   -0.038147
   105  H    0.019235
   106  H   -0.012723
   107  H   -0.014731
   108  H   -0.031923
   109  H   -0.030238
   110  H   -0.034087
   111  H   -0.035001
   112  H   -0.049074
   113  H   -0.023800
   114  H   -0.034923
   115  H   -0.027808
   116  H   -0.011683
   117  H   -0.015856
   118  H   -0.024640
   119  H   -0.031360
   120  H   -0.042167
   121  H   -0.015713
   122  H   -0.035649
   123  H   -0.035822
   124  H   -0.034390
   125  H   -0.021748
   126  H   -0.018055
   127  H   -0.032735
   128  H   -0.041421
   129  H   -0.033321
   130  H   -0.037275
   131  H   -0.029669
   132  H   -0.029753
   133  H   -0.039340
   134  H   -0.048316
   135  H   -0.006184
   136  H   -0.015412
   137  H   -0.023562
   138  H   -0.028030
   139  H   -0.012368
   140  H   -0.020605
 Sum of Mulliken charges =  -0.00000

 Dipole moment (field-independent basis, Debye):
    X=              5.0791    Y=              3.5744    Z=             -0.6611  Tot=              6.2458
 Quadrupole moment (field-independent basis, Debye-Ang):
   XX=           -386.6765   YY=           -440.5542   ZZ=           -406.2014
   XY=            -38.5055   XZ=              1.2485   YZ=              5.2308

 Normal termination of Gaussian 16 at Fri Apr 29 05:37:06 2022.
