 Gaussian 16, Revision A.03,
 Gaussian 16:  ES64L-G16RevA.03 25-Dec-2016

 -----------------------------------
 #p cam-b3lyp/Def2SVP td=(nstates=5)
 -----------------------------------

 -----------------------------------------------------
 step_1_chromophore_15 TDDFT with cam-b3lyp functional
 -----------------------------------------------------
 Symbolic Z-matrix:
 Charge =  0 Multiplicity = 1

                         Standard orientation:
 ---------------------------------------------------------------------
 Center     Atomic      Atomic             Coordinates (Angstroms)
 Number     Number       Type             X           Y           Z
 ---------------------------------------------------------------------
      1         12           0       -4.917208    0.927405    0.230462
      2          6           0       -4.531431   -2.483655    0.549529
      3          6           0       -1.341364    1.126085    0.272479
      4          6           0       -5.130127    4.184120    0.270932
      5          6           0       -8.348309    0.616449    0.540387
      6          7           0       -3.134335   -0.569381    0.611870
      7          6           0       -3.267501   -1.878409    0.479158
      8          6           0       -1.903644   -2.546073    0.144926
      9          6           0       -0.928577   -1.420896    0.639062
     10          6           0       -1.811328   -0.168564    0.516454
     11          6           0       -0.432794   -1.661449    2.109289
     12          6           0       -1.897132   -2.763994   -1.384544
     13          6           0       -0.710327   -3.548878   -1.959767
     14          6           0        0.496618   -3.849239   -1.093816
     15          8           0        0.417228   -4.469167   -0.051063
     16          8           0        1.643609   -3.325646   -1.665192
     17          7           0       -3.535355    2.478930    0.158501
     18          6           0       -2.105675    2.331254    0.146303
     19          6           0       -1.569176    3.660269   -0.113194
     20          6           0       -2.687094    4.544824   -0.225318
     21          6           0       -3.875396    3.760531    0.107624
     22          6           0       -0.040659    3.993304   -0.288994
     23          6           0       -2.659421    6.050577   -0.648983
     24          8           0       -3.681192    6.676366   -0.574191
     25          6           0       -1.385415    6.691874   -1.094407
     26          7           0       -6.542033    2.228491    0.293328
     27          6           0       -6.394519    3.572545    0.296641
     28          6           0       -7.717196    4.324449    0.440373
     29          6           0       -8.746147    3.171509    0.385323
     30          6           0       -7.805061    1.899175    0.408846
     31          6           0       -7.858130    5.214294    1.729663
     32          6           0       -9.792258    3.226803   -0.698630
     33          6           0       -9.413425    3.535445   -2.167234
     34          7           0       -6.248294   -0.563854    0.506893
     35          6           0       -7.610252   -0.569168    0.605559
     36          6           0       -8.029632   -1.954348    0.640891
     37          6           0       -6.865423   -2.795812    0.591110
     38          6           0       -5.797319   -1.859832    0.523304
     39          6           0       -9.457509   -2.395001    0.728217
     40          6           0       -6.356006   -4.124937    0.642331
     41          8           0       -6.904097   -5.243024    0.755498
     42          6           0       -4.766133   -3.899878    0.890801
     43          6           0       -4.045553   -4.994795    0.102439
     44          8           0       -4.194189   -5.225506   -1.036396
     45          8           0       -3.240106   -5.676012    0.970091
     46          6           0       -2.195565   -6.511863    0.414826
     47          6           0        2.853224   -3.611209   -0.886068
     48          6           0        3.939014   -2.824342   -1.530455
     49          6           0        5.257426   -2.869431   -1.144236
     50          6           0        5.637589   -3.845493    0.053752
     51          6           0        6.391029   -2.158620   -1.805725
     52          6           0        6.246765   -0.627698   -1.686176
     53          6           0        6.700004    0.212275   -2.925323
     54          6           0        7.952487    1.013394   -2.565294
     55          6           0        8.064060    2.177113   -3.535217
     56          6           0        9.166550    0.003151   -2.757275
     57          6           0        9.949715   -0.081373   -1.410783
     58          6           0       11.436270    0.328998   -1.489119
     59          6           0       11.800908    1.710549   -0.716138
     60          6           0       12.686477    2.614188   -1.563567
     61          6           0       12.315813    1.462329    0.730371
     62          6           0       11.537785    2.115274    1.872711
     63          6           0       11.099579    0.958209    2.837283
     64          6           0       11.335792    1.209119    4.314157
     65          6           0       12.566589    0.523799    4.864970
     66          6           0       10.042634    0.858112    5.016817
     67          1           0       -0.254272    1.183583    0.352910
     68          1           0       -5.257657    5.266597    0.337780
     69          1           0       -9.420351    0.450968    0.659954
     70          1           0       -1.724712   -3.440606    0.741316
     71          1           0       -0.131983   -1.433698   -0.105220
     72          1           0        0.595797   -2.019476    2.089249
     73          1           0       -1.102596   -2.386882    2.571438
     74          1           0       -0.396143   -0.752764    2.710229
     75          1           0       -1.831596   -1.780978   -1.850176
     76          1           0       -2.852096   -3.141451   -1.748866
     77          1           0       -0.448172   -3.247704   -2.974248
     78          1           0       -1.136277   -4.517107   -2.223491
     79          1           0        0.277512    4.825986    0.339010
     80          1           0        0.096143    4.178424   -1.354291
     81          1           0        0.551091    3.099344   -0.088431
     82          1           0       -1.751595    7.469091   -1.765556
     83          1           0       -0.783293    6.038263   -1.724515
     84          1           0       -0.607094    6.939752   -0.372743
     85          1           0       -7.775359    4.959430   -0.443378
     86          1           0       -9.284981    3.037042    1.323207
     87          1           0       -8.906783    5.144476    2.017486
     88          1           0       -7.610236    6.206535    1.352119
     89          1           0       -7.113196    4.929709    2.472689
     90          1           0      -10.293404    4.154961   -0.425963
     91          1           0      -10.502780    2.401673   -0.758155
     92          1           0       -9.827273    4.430713   -2.629372
     93          1           0       -9.817680    2.785801   -2.847422
     94          1           0       -8.329831    3.625092   -2.245343
     95          1           0       -9.423068   -3.481902    0.797122
     96          1           0       -9.979629   -2.153571   -0.198610
     97          1           0      -10.051770   -1.902040    1.497032
     98          1           0       -4.643595   -3.962142    1.972299
     99          1           0       -2.542015   -7.370022    0.990882
    100          1           0       -1.190137   -6.118133    0.565315
    101          1           0       -2.315089   -6.738762   -0.644896
    102          1           0        3.155324   -4.654958   -0.962898
    103          1           0        2.862036   -3.151935    0.102378
    104          1           0        3.786109   -2.230568   -2.432620
    105          1           0        5.770767   -3.342662    1.011765
    106          1           0        6.576114   -4.278526   -0.292035
    107          1           0        4.936750   -4.679981    0.041106
    108          1           0        6.399890   -2.326691   -2.882142
    109          1           0        7.390524   -2.520335   -1.564835
    110          1           0        6.724453   -0.232479   -0.789810
    111          1           0        5.191953   -0.395755   -1.538040
    112          1           0        5.832912    0.855357   -3.077434
    113          1           0        6.831289   -0.317761   -3.867667
    114          1           0        7.983523    1.382541   -1.540172
    115          1           0        9.116082    2.453584   -3.473606
    116          1           0        7.456474    3.017235   -3.197386
    117          1           0        7.879720    1.744428   -4.518448
    118          1           0        9.887686    0.297858   -3.519830
    119          1           0        8.742155   -0.998509   -2.821954
    120          1           0        9.906562   -1.147037   -1.188226
    121          1           0        9.508667    0.458351   -0.573024
    122          1           0       11.769755    0.376445   -2.526064
    123          1           0       11.968163   -0.474194   -0.978311
    124          1           0       10.907875    2.332562   -0.669439
    125          1           0       12.193415    3.465415   -2.031317
    126          1           0       13.220845    2.112020   -2.370357
    127          1           0       13.427825    3.096335   -0.926818
    128          1           0       13.313116    1.879682    0.874305
    129          1           0       12.459199    0.393575    0.891361
    130          1           0       10.659248    2.616704    1.467766
    131          1           0       12.066751    2.883405    2.435650
    132          1           0       11.630806    0.023852    2.659086
    133          1           0       10.019521    0.920653    2.693679
    134          1           0       11.399472    2.290716    4.429325
    135          1           0       13.380095    1.249477    4.842564
    136          1           0       12.857373   -0.384199    4.336041
    137          1           0       12.231055    0.237585    5.861075
    138          1           0       10.089220    1.434458    5.940368
    139          1           0       10.027351   -0.221382    5.169934
    140          1           0        9.115675    1.239937    4.589443
 ---------------------------------------------------------------------

 SCF Done:  E(RCAM-B3LYP) =  -3007.13764518     A.U. after   18 cycles

 Excitation energies and oscillator strengths:

 Excited State   1:      Singlet-A      1.7337 eV  715.15 nm  f=0.3664  <S**2>=0.000
     245 -> 248       -0.19599
     246 -> 247        0.68087
     245 <- 248       -0.11054
 This state for optimization and/or second-order correction.
 Total Energy, E(TD-HF/TD-DFT) =  -3007.07393352
 Copying the excited state density for this state as the 1-particle RhoCI density.

 Excited State   2:      Singlet-A      2.2188 eV  558.79 nm  f=0.0965  <S**2>=0.000
     245 -> 247        0.63538
     246 -> 248        0.29828

 Excited State   3:      Singlet-A      3.3071 eV  374.91 nm  f=0.0341  <S**2>=0.000
     240 -> 247       -0.25903
     240 -> 249        0.17553
     241 -> 247        0.42743
     241 -> 249       -0.23976
     241 -> 250        0.12205
     242 -> 247       -0.17496
     244 -> 247       -0.17747
     246 -> 248       -0.15947

 Excited State   4:      Singlet-A      3.4271 eV  361.78 nm  f=0.0550  <S**2>=0.000
     242 -> 247       -0.44068
     244 -> 247        0.47403
     246 -> 248        0.20043

 Excited State   5:      Singlet-A      3.4539 eV  358.97 nm  f=0.3101  <S**2>=0.000
     242 -> 247       -0.17296
     244 -> 247       -0.41392
     245 -> 247       -0.19264
     246 -> 248        0.48970

 The electronic state is 1-A.
 Alpha  occ. eigenvalues --  -46.88156 -19.26748 -19.23586 -19.21648 -19.19767
 Alpha  occ. eigenvalues --  -19.19013 -19.18817 -14.41619 -14.41615 -14.39197
 Alpha  occ. eigenvalues --  -14.39147 -10.40859 -10.38400 -10.35195 -10.34837
 Alpha  occ. eigenvalues --  -10.33078 -10.30576 -10.30519 -10.30472 -10.30316
 Alpha  occ. eigenvalues --  -10.30156 -10.29994 -10.29515 -10.29172 -10.28889
 Alpha  occ. eigenvalues --  -10.28474 -10.28350 -10.27786 -10.27722 -10.27690
 Alpha  occ. eigenvalues --  -10.27635 -10.27565 -10.27548 -10.27506 -10.27493
 Alpha  occ. eigenvalues --  -10.27431 -10.27380 -10.27251 -10.26488 -10.26444
 Alpha  occ. eigenvalues --  -10.26387 -10.26356 -10.26193 -10.26162 -10.26157
 Alpha  occ. eigenvalues --  -10.26085 -10.25877 -10.25870 -10.25676 -10.25605
 Alpha  occ. eigenvalues --  -10.25453 -10.25447 -10.25203 -10.25104 -10.25070
 Alpha  occ. eigenvalues --  -10.24985 -10.24830 -10.24782 -10.24737 -10.24723
 Alpha  occ. eigenvalues --  -10.24672 -10.24497 -10.24468 -10.24248 -10.24154
 Alpha  occ. eigenvalues --  -10.23939  -3.16794  -1.91694  -1.91266  -1.91084
 Alpha  occ. eigenvalues --   -1.17563  -1.16976  -1.11443  -1.09879  -1.09120
 Alpha  occ. eigenvalues --   -1.07795  -1.05125  -1.03960  -1.02929  -1.01962
 Alpha  occ. eigenvalues --   -0.92826  -0.91004  -0.90110  -0.89740  -0.89293
 Alpha  occ. eigenvalues --   -0.89182  -0.88550  -0.87786  -0.87220  -0.86349
 Alpha  occ. eigenvalues --   -0.85714  -0.85503  -0.84468  -0.83592  -0.83454
 Alpha  occ. eigenvalues --   -0.82717  -0.81828  -0.81310  -0.81093  -0.80459
 Alpha  occ. eigenvalues --   -0.79970  -0.78030  -0.77851  -0.77216  -0.76218
 Alpha  occ. eigenvalues --   -0.76035  -0.75622  -0.75344  -0.74774  -0.74015
 Alpha  occ. eigenvalues --   -0.73311  -0.72531  -0.71838  -0.70483  -0.70076
 Alpha  occ. eigenvalues --   -0.68401  -0.68145  -0.67029  -0.66394  -0.65356
 Alpha  occ. eigenvalues --   -0.65180  -0.64851  -0.64649  -0.64273  -0.64162
 Alpha  occ. eigenvalues --   -0.63916  -0.63374  -0.62680  -0.61717  -0.60473
 Alpha  occ. eigenvalues --   -0.60312  -0.59482  -0.59109  -0.58713  -0.58008
 Alpha  occ. eigenvalues --   -0.57755  -0.57447  -0.57129  -0.56058  -0.55740
 Alpha  occ. eigenvalues --   -0.55526  -0.55411  -0.55112  -0.54767  -0.53913
 Alpha  occ. eigenvalues --   -0.53710  -0.53378  -0.53330  -0.53211  -0.52885
 Alpha  occ. eigenvalues --   -0.52711  -0.52479  -0.52454  -0.52285  -0.52180
 Alpha  occ. eigenvalues --   -0.51901  -0.51894  -0.51195  -0.50978  -0.50569
 Alpha  occ. eigenvalues --   -0.50473  -0.50206  -0.49994  -0.49875  -0.49692
 Alpha  occ. eigenvalues --   -0.49571  -0.49401  -0.49253  -0.49111  -0.48701
 Alpha  occ. eigenvalues --   -0.48563  -0.48400  -0.48347  -0.48071  -0.47977
 Alpha  occ. eigenvalues --   -0.47730  -0.47541  -0.47321  -0.47015  -0.46928
 Alpha  occ. eigenvalues --   -0.46861  -0.46683  -0.46490  -0.46252  -0.45859
 Alpha  occ. eigenvalues --   -0.45797  -0.45709  -0.45415  -0.44949  -0.44850
 Alpha  occ. eigenvalues --   -0.44641  -0.44566  -0.44397  -0.44288  -0.43487
 Alpha  occ. eigenvalues --   -0.43159  -0.42967  -0.42866  -0.42765  -0.42742
 Alpha  occ. eigenvalues --   -0.42715  -0.42629  -0.42490  -0.42095  -0.41912
 Alpha  occ. eigenvalues --   -0.41841  -0.41809  -0.41729  -0.41719  -0.41323
 Alpha  occ. eigenvalues --   -0.41258  -0.41161  -0.40832  -0.40803  -0.40640
 Alpha  occ. eigenvalues --   -0.40181  -0.39771  -0.39697  -0.39364  -0.38993
 Alpha  occ. eigenvalues --   -0.38572  -0.38329  -0.38276  -0.37761  -0.37411
 Alpha  occ. eigenvalues --   -0.37209  -0.37017  -0.36815  -0.36106  -0.36067
 Alpha  occ. eigenvalues --   -0.35709  -0.35318  -0.35113  -0.34760  -0.34265
 Alpha  occ. eigenvalues --   -0.33829  -0.33570  -0.33173  -0.31467  -0.30857
 Alpha  occ. eigenvalues --   -0.30249  -0.29677  -0.29517  -0.29258  -0.23684
 Alpha  occ. eigenvalues --   -0.20981
 Alpha virt. eigenvalues --   -0.08313  -0.01770   0.00325   0.02719   0.03002
 Alpha virt. eigenvalues --    0.03740   0.04922   0.05940   0.06507   0.06725
 Alpha virt. eigenvalues --    0.07922   0.08106   0.08318   0.08592   0.08918

 Mulliken charges:
               1
     1  Mg   0.825431
     2  C   -0.016138
     3  C   -0.069021
     4  C   -0.075120
     5  C   -0.111209
     6  N   -0.226915
     7  C   -0.072439
     8  C   -0.060030
     9  C   -0.051131
    10  C    0.002507
    11  C    0.096597
    12  C    0.055237
    13  C    0.116475
    14  C    0.159325
    15  O   -0.230953
    16  O   -0.337400
    17  N   -0.395457
    18  C    0.163707
    19  C   -0.171259
    20  C   -0.041922
    21  C    0.168702
    22  C    0.109823
    23  C    0.017112
    24  O   -0.181564
    25  C    0.053024
    26  N   -0.266026
    27  C   -0.012373
    28  C   -0.046811
    29  C   -0.006142
    30  C    0.067122
    31  C    0.084062
    32  C    0.038754
    33  C   -0.018366
    34  N   -0.394034
    35  C    0.127274
    36  C   -0.170658
    37  C    0.016062
    38  C    0.148412
    39  C    0.114158
    40  C    0.075497
    41  O   -0.199106
    42  C   -0.073927
    43  C    0.176758
    44  O   -0.159158
    45  O   -0.337692
    46  C    0.138450
    47  C    0.305628
    48  C   -0.153400
    49  C   -0.206304
    50  C    0.063033
    51  C    0.109832
    52  C    0.009724
    53  C    0.035458
    54  C   -0.156081
    55  C    0.084184
    56  C    0.064664
    57  C   -0.020398
    58  C    0.053582
    59  C   -0.119645
    60  C    0.037560
    61  C    0.062867
    62  C    0.023014
    63  C    0.036884
    64  C   -0.179877
    65  C    0.086360
    66  C    0.032527
    67  H   -0.022028
    68  H   -0.018579
    69  H   -0.033025
    70  H    0.022228
    71  H   -0.005274
    72  H    0.017009
    73  H    0.025935
    74  H    0.014323
    75  H    0.004684
    76  H    0.038220
    77  H    0.015322
    78  H    0.026433
    79  H    0.036648
    80  H    0.035862
    81  H    0.005851
    82  H    0.032414
    83  H   -0.000340
    84  H    0.046702
    85  H    0.021531
    86  H    0.003685
    87  H    0.024560
    88  H    0.025751
    89  H    0.031886
    90  H    0.004233
    91  H    0.015827
    92  H    0.010373
    93  H    0.010066
    94  H    0.020253
    95  H    0.037504
    96  H    0.019056
    97  H    0.024682
    98  H    0.055420
    99  H    0.041409
   100  H    0.065989
   101  H    0.035204
   102  H    0.053862
   103  H    0.052214
   104  H   -0.001930
   105  H    0.042751
   106  H    0.011517
   107  H    0.008467
   108  H   -0.000076
   109  H   -0.002294
   110  H   -0.005402
   111  H   -0.003568
   112  H   -0.016658
   113  H    0.004605
   114  H   -0.003957
   115  H   -0.005564
   116  H    0.013236
   117  H    0.007065
   118  H    0.003772
   119  H   -0.005362
   120  H   -0.013063
   121  H    0.005874
   122  H   -0.008344
   123  H   -0.006908
   124  H   -0.005334
   125  H    0.002419
   126  H    0.005431
   127  H   -0.007570
   128  H   -0.010700
   129  H   -0.005064
   130  H   -0.008965
   131  H   -0.001434
   132  H   -0.004785
   133  H   -0.009394
   134  H   -0.016146
   135  H    0.017910
   136  H    0.008405
   137  H    0.001917
   138  H   -0.002420
   139  H    0.011463
   140  H    0.004966
 Sum of Mulliken charges =  -0.00000

 Dipole moment (field-independent basis, Debye):
    X=              5.3094    Y=              3.7623    Z=             -0.8388  Tot=              6.5611
 Quadrupole moment (field-independent basis, Debye-Ang):
   XX=           -384.1678   YY=           -438.8884   ZZ=           -406.1609
   XY=            -38.2167   XZ=              1.3777   YZ=              4.8280

 Normal termination of Gaussian 16 at Fri Apr 29 04:40:16 2022.
