 Gaussian 16, Revision A.03,
 Gaussian 16:  ES64L-G16RevA.03 25-Dec-2016

 ---------------------------------
 #p PBE1PBE/Def2SVP td=(nstates=5)
 ---------------------------------

 ---------------------------------------------------
 step_1_chromophore_15 TDDFT with PBE1PBE functional
 ---------------------------------------------------
 Symbolic Z-matrix:
 Charge =  0 Multiplicity = 1

                         Standard orientation:
 ---------------------------------------------------------------------
 Center     Atomic      Atomic             Coordinates (Angstroms)
 Number     Number       Type             X           Y           Z
 ---------------------------------------------------------------------
      1         12           0       -4.917208    0.927405    0.230462
      2          6           0       -4.531431   -2.483655    0.549529
      3          6           0       -1.341364    1.126085    0.272479
      4          6           0       -5.130127    4.184120    0.270932
      5          6           0       -8.348309    0.616449    0.540387
      6          7           0       -3.134335   -0.569381    0.611870
      7          6           0       -3.267501   -1.878409    0.479158
      8          6           0       -1.903644   -2.546073    0.144926
      9          6           0       -0.928577   -1.420896    0.639062
     10          6           0       -1.811328   -0.168564    0.516454
     11          6           0       -0.432794   -1.661449    2.109289
     12          6           0       -1.897132   -2.763994   -1.384544
     13          6           0       -0.710327   -3.548878   -1.959767
     14          6           0        0.496618   -3.849239   -1.093816
     15          8           0        0.417228   -4.469167   -0.051063
     16          8           0        1.643609   -3.325646   -1.665192
     17          7           0       -3.535355    2.478930    0.158501
     18          6           0       -2.105675    2.331254    0.146303
     19          6           0       -1.569176    3.660269   -0.113194
     20          6           0       -2.687094    4.544824   -0.225318
     21          6           0       -3.875396    3.760531    0.107624
     22          6           0       -0.040659    3.993304   -0.288994
     23          6           0       -2.659421    6.050577   -0.648983
     24          8           0       -3.681192    6.676366   -0.574191
     25          6           0       -1.385415    6.691874   -1.094407
     26          7           0       -6.542033    2.228491    0.293328
     27          6           0       -6.394519    3.572545    0.296641
     28          6           0       -7.717196    4.324449    0.440373
     29          6           0       -8.746147    3.171509    0.385323
     30          6           0       -7.805061    1.899175    0.408846
     31          6           0       -7.858130    5.214294    1.729663
     32          6           0       -9.792258    3.226803   -0.698630
     33          6           0       -9.413425    3.535445   -2.167234
     34          7           0       -6.248294   -0.563854    0.506893
     35          6           0       -7.610252   -0.569168    0.605559
     36          6           0       -8.029632   -1.954348    0.640891
     37          6           0       -6.865423   -2.795812    0.591110
     38          6           0       -5.797319   -1.859832    0.523304
     39          6           0       -9.457509   -2.395001    0.728217
     40          6           0       -6.356006   -4.124937    0.642331
     41          8           0       -6.904097   -5.243024    0.755498
     42          6           0       -4.766133   -3.899878    0.890801
     43          6           0       -4.045553   -4.994795    0.102439
     44          8           0       -4.194189   -5.225506   -1.036396
     45          8           0       -3.240106   -5.676012    0.970091
     46          6           0       -2.195565   -6.511863    0.414826
     47          6           0        2.853224   -3.611209   -0.886068
     48          6           0        3.939014   -2.824342   -1.530455
     49          6           0        5.257426   -2.869431   -1.144236
     50          6           0        5.637589   -3.845493    0.053752
     51          6           0        6.391029   -2.158620   -1.805725
     52          6           0        6.246765   -0.627698   -1.686176
     53          6           0        6.700004    0.212275   -2.925323
     54          6           0        7.952487    1.013394   -2.565294
     55          6           0        8.064060    2.177113   -3.535217
     56          6           0        9.166550    0.003151   -2.757275
     57          6           0        9.949715   -0.081373   -1.410783
     58          6           0       11.436270    0.328998   -1.489119
     59          6           0       11.800908    1.710549   -0.716138
     60          6           0       12.686477    2.614188   -1.563567
     61          6           0       12.315813    1.462329    0.730371
     62          6           0       11.537785    2.115274    1.872711
     63          6           0       11.099579    0.958209    2.837283
     64          6           0       11.335792    1.209119    4.314157
     65          6           0       12.566589    0.523799    4.864970
     66          6           0       10.042634    0.858112    5.016817
     67          1           0       -0.254272    1.183583    0.352910
     68          1           0       -5.257657    5.266597    0.337780
     69          1           0       -9.420351    0.450968    0.659954
     70          1           0       -1.724712   -3.440606    0.741316
     71          1           0       -0.131983   -1.433698   -0.105220
     72          1           0        0.595797   -2.019476    2.089249
     73          1           0       -1.102596   -2.386882    2.571438
     74          1           0       -0.396143   -0.752764    2.710229
     75          1           0       -1.831596   -1.780978   -1.850176
     76          1           0       -2.852096   -3.141451   -1.748866
     77          1           0       -0.448172   -3.247704   -2.974248
     78          1           0       -1.136277   -4.517107   -2.223491
     79          1           0        0.277512    4.825986    0.339010
     80          1           0        0.096143    4.178424   -1.354291
     81          1           0        0.551091    3.099344   -0.088431
     82          1           0       -1.751595    7.469091   -1.765556
     83          1           0       -0.783293    6.038263   -1.724515
     84          1           0       -0.607094    6.939752   -0.372743
     85          1           0       -7.775359    4.959430   -0.443378
     86          1           0       -9.284981    3.037042    1.323207
     87          1           0       -8.906783    5.144476    2.017486
     88          1           0       -7.610236    6.206535    1.352119
     89          1           0       -7.113196    4.929709    2.472689
     90          1           0      -10.293404    4.154961   -0.425963
     91          1           0      -10.502780    2.401673   -0.758155
     92          1           0       -9.827273    4.430713   -2.629372
     93          1           0       -9.817680    2.785801   -2.847422
     94          1           0       -8.329831    3.625092   -2.245343
     95          1           0       -9.423068   -3.481902    0.797122
     96          1           0       -9.979629   -2.153571   -0.198610
     97          1           0      -10.051770   -1.902040    1.497032
     98          1           0       -4.643595   -3.962142    1.972299
     99          1           0       -2.542015   -7.370022    0.990882
    100          1           0       -1.190137   -6.118133    0.565315
    101          1           0       -2.315089   -6.738762   -0.644896
    102          1           0        3.155324   -4.654958   -0.962898
    103          1           0        2.862036   -3.151935    0.102378
    104          1           0        3.786109   -2.230568   -2.432620
    105          1           0        5.770767   -3.342662    1.011765
    106          1           0        6.576114   -4.278526   -0.292035
    107          1           0        4.936750   -4.679981    0.041106
    108          1           0        6.399890   -2.326691   -2.882142
    109          1           0        7.390524   -2.520335   -1.564835
    110          1           0        6.724453   -0.232479   -0.789810
    111          1           0        5.191953   -0.395755   -1.538040
    112          1           0        5.832912    0.855357   -3.077434
    113          1           0        6.831289   -0.317761   -3.867667
    114          1           0        7.983523    1.382541   -1.540172
    115          1           0        9.116082    2.453584   -3.473606
    116          1           0        7.456474    3.017235   -3.197386
    117          1           0        7.879720    1.744428   -4.518448
    118          1           0        9.887686    0.297858   -3.519830
    119          1           0        8.742155   -0.998509   -2.821954
    120          1           0        9.906562   -1.147037   -1.188226
    121          1           0        9.508667    0.458351   -0.573024
    122          1           0       11.769755    0.376445   -2.526064
    123          1           0       11.968163   -0.474194   -0.978311
    124          1           0       10.907875    2.332562   -0.669439
    125          1           0       12.193415    3.465415   -2.031317
    126          1           0       13.220845    2.112020   -2.370357
    127          1           0       13.427825    3.096335   -0.926818
    128          1           0       13.313116    1.879682    0.874305
    129          1           0       12.459199    0.393575    0.891361
    130          1           0       10.659248    2.616704    1.467766
    131          1           0       12.066751    2.883405    2.435650
    132          1           0       11.630806    0.023852    2.659086
    133          1           0       10.019521    0.920653    2.693679
    134          1           0       11.399472    2.290716    4.429325
    135          1           0       13.380095    1.249477    4.842564
    136          1           0       12.857373   -0.384199    4.336041
    137          1           0       12.231055    0.237585    5.861075
    138          1           0       10.089220    1.434458    5.940368
    139          1           0       10.027351   -0.221382    5.169934
    140          1           0        9.115675    1.239937    4.589443
 ---------------------------------------------------------------------

 SCF Done:  E(RPBE1PBE) =  -3005.32680031     A.U. after   15 cycles

 Excitation energies and oscillator strengths:

 Excited State   1:      Singlet-A      1.8850 eV  657.74 nm  f=0.3572  <S**2>=0.000
     245 -> 248       -0.18983
     246 -> 247        0.68803
 This state for optimization and/or second-order correction.
 Total Energy, E(TD-HF/TD-DFT) =  -3005.25752811
 Copying the excited state density for this state as the 1-particle RhoCI density.

 Excited State   2:      Singlet-A      2.2128 eV  560.31 nm  f=0.0957  <S**2>=0.000
     245 -> 247        0.65012
     246 -> 248        0.26285

 Excited State   3:      Singlet-A      2.9055 eV  426.72 nm  f=0.0036  <S**2>=0.000
     240 -> 247        0.12753
     241 -> 247       -0.29482
     241 -> 249        0.10876
     242 -> 247        0.47004
     242 -> 249       -0.13054
     243 -> 247        0.33750

 Excited State   4:      Singlet-A      3.0630 eV  404.79 nm  f=0.0045  <S**2>=0.000
     242 -> 247       -0.39189
     243 -> 247        0.57917

 Excited State   5:      Singlet-A      3.1964 eV  387.89 nm  f=0.0206  <S**2>=0.000
     240 -> 247        0.10917
     241 -> 247        0.55345
     242 -> 247        0.25238
     243 -> 247        0.16425
     246 -> 248       -0.27067

 The electronic state is 1-A.
 Alpha  occ. eigenvalues --  -46.91545 -19.27422 -19.24238 -19.21873 -19.19908
 Alpha  occ. eigenvalues --  -19.19269 -19.18990 -14.41131 -14.41053 -14.38903
 Alpha  occ. eigenvalues --  -14.38786 -10.37865 -10.35353 -10.32381 -10.31929
 Alpha  occ. eigenvalues --  -10.30488 -10.28252 -10.28236 -10.28176 -10.28134
 Alpha  occ. eigenvalues --  -10.28036 -10.27227 -10.27099 -10.26782 -10.26580
 Alpha  occ. eigenvalues --  -10.26156 -10.26029 -10.25593 -10.25536 -10.25530
 Alpha  occ. eigenvalues --  -10.25340 -10.25308 -10.25167 -10.25158 -10.25054
 Alpha  occ. eigenvalues --  -10.25001 -10.24935 -10.24865 -10.24212 -10.24067
 Alpha  occ. eigenvalues --  -10.23998 -10.23904 -10.23728 -10.23712 -10.23650
 Alpha  occ. eigenvalues --  -10.23601 -10.23490 -10.23342 -10.23228 -10.23175
 Alpha  occ. eigenvalues --  -10.23030 -10.23028 -10.22704 -10.22681 -10.22614
 Alpha  occ. eigenvalues --  -10.22587 -10.22521 -10.22333 -10.22318 -10.22283
 Alpha  occ. eigenvalues --  -10.22117 -10.22073 -10.21855 -10.21648 -10.21541
 Alpha  occ. eigenvalues --  -10.21520  -3.13761  -1.86602  -1.86152  -1.85975
 Alpha  occ. eigenvalues --   -1.12333  -1.11712  -1.06249  -1.04712  -1.03942
 Alpha  occ. eigenvalues --   -1.02453  -0.99759  -0.98529  -0.97551  -0.96703
 Alpha  occ. eigenvalues --   -0.87135  -0.85128  -0.84228  -0.83894  -0.83566
 Alpha  occ. eigenvalues --   -0.83354  -0.82930  -0.81906  -0.81554  -0.80615
 Alpha  occ. eigenvalues --   -0.79949  -0.79753  -0.78682  -0.77865  -0.77658
 Alpha  occ. eigenvalues --   -0.77023  -0.76047  -0.75496  -0.75333  -0.74690
 Alpha  occ. eigenvalues --   -0.74264  -0.72282  -0.72156  -0.71518  -0.70326
 Alpha  occ. eigenvalues --   -0.70187  -0.69993  -0.69681  -0.68922  -0.68197
 Alpha  occ. eigenvalues --   -0.67632  -0.66923  -0.66267  -0.64787  -0.64444
 Alpha  occ. eigenvalues --   -0.62861  -0.62372  -0.61265  -0.60837  -0.59871
 Alpha  occ. eigenvalues --   -0.59400  -0.59348  -0.59115  -0.58745  -0.58452
 Alpha  occ. eigenvalues --   -0.58260  -0.57555  -0.56856  -0.56231  -0.54998
 Alpha  occ. eigenvalues --   -0.54741  -0.54037  -0.53587  -0.53289  -0.52584
 Alpha  occ. eigenvalues --   -0.52152  -0.51836  -0.51658  -0.50670  -0.50281
 Alpha  occ. eigenvalues --   -0.50042  -0.49920  -0.49528  -0.49151  -0.48489
 Alpha  occ. eigenvalues --   -0.48142  -0.47926  -0.47902  -0.47681  -0.47550
 Alpha  occ. eigenvalues --   -0.47213  -0.47007  -0.46956  -0.46771  -0.46619
 Alpha  occ. eigenvalues --   -0.46481  -0.46429  -0.45775  -0.45460  -0.45124
 Alpha  occ. eigenvalues --   -0.45041  -0.44755  -0.44619  -0.44462  -0.44280
 Alpha  occ. eigenvalues --   -0.44155  -0.43951  -0.43851  -0.43641  -0.43310
 Alpha  occ. eigenvalues --   -0.43173  -0.43004  -0.42910  -0.42688  -0.42660
 Alpha  occ. eigenvalues --   -0.42352  -0.42223  -0.41926  -0.41740  -0.41531
 Alpha  occ. eigenvalues --   -0.41415  -0.41374  -0.41257  -0.40961  -0.40572
 Alpha  occ. eigenvalues --   -0.40565  -0.40456  -0.40047  -0.39644  -0.39564
 Alpha  occ. eigenvalues --   -0.39364  -0.39306  -0.39107  -0.39018  -0.38261
 Alpha  occ. eigenvalues --   -0.38065  -0.37737  -0.37619  -0.37580  -0.37538
 Alpha  occ. eigenvalues --   -0.37477  -0.37471  -0.37332  -0.37007  -0.36734
 Alpha  occ. eigenvalues --   -0.36645  -0.36584  -0.36547  -0.36461  -0.36197
 Alpha  occ. eigenvalues --   -0.36042  -0.35950  -0.35635  -0.35616  -0.35389
 Alpha  occ. eigenvalues --   -0.35054  -0.34568  -0.34502  -0.34333  -0.33933
 Alpha  occ. eigenvalues --   -0.33365  -0.33218  -0.33170  -0.32533  -0.32446
 Alpha  occ. eigenvalues --   -0.32043  -0.31995  -0.31633  -0.31025  -0.30965
 Alpha  occ. eigenvalues --   -0.30692  -0.30239  -0.30006  -0.29793  -0.29202
 Alpha  occ. eigenvalues --   -0.28998  -0.28577  -0.28482  -0.26813  -0.25924
 Alpha  occ. eigenvalues --   -0.25463  -0.25045  -0.24875  -0.24804  -0.20619
 Alpha  occ. eigenvalues --   -0.18607
 Alpha virt. eigenvalues --   -0.10813  -0.05226  -0.03868  -0.01685  -0.00975
 Alpha virt. eigenvalues --    0.00334   0.00532   0.01790   0.02012   0.03071
 Alpha virt. eigenvalues --    0.03763   0.04631   0.04984   0.05157   0.05469

 Mulliken charges:
               1
     1  Mg   0.975234
     2  C   -0.022400
     3  C   -0.063413
     4  C   -0.075651
     5  C   -0.097657
     6  N   -0.321079
     7  C    0.013717
     8  C   -0.148257
     9  C   -0.130151
    10  C    0.038765
    11  C    0.042303
    12  C    0.012872
    13  C    0.047783
    14  C    0.216624
    15  O   -0.264174
    16  O   -0.369455
    17  N   -0.511420
    18  C    0.184816
    19  C   -0.197930
    20  C   -0.084012
    21  C    0.193935
    22  C    0.045541
    23  C    0.069321
    24  O   -0.218719
    25  C   -0.016645
    26  N   -0.377914
    27  C    0.032663
    28  C   -0.122275
    29  C   -0.082627
    30  C    0.107837
    31  C    0.024040
    32  C   -0.024583
    33  C   -0.087405
    34  N   -0.523778
    35  C    0.154195
    36  C   -0.192592
    37  C   -0.035592
    38  C    0.192900
    39  C    0.060493
    40  C    0.172574
    41  O   -0.243152
    42  C   -0.190839
    43  C    0.269063
    44  O   -0.198249
    45  O   -0.371103
    46  C    0.083146
    47  C    0.257098
    48  C   -0.159595
    49  C   -0.247158
    50  C   -0.003148
    51  C    0.045890
    52  C   -0.045676
    53  C   -0.025121
    54  C   -0.242766
    55  C    0.019931
    56  C    0.009988
    57  C   -0.082156
    58  C    0.000855
    59  C   -0.207817
    60  C   -0.018166
    61  C    0.010215
    62  C   -0.036128
    63  C   -0.018109
    64  C   -0.270365
    65  C    0.024710
    66  C   -0.034280
    67  H    0.009615
    68  H    0.015539
    69  H   -0.001128
    70  H    0.062402
    71  H    0.034534
    72  H    0.045557
    73  H    0.052708
    74  H    0.042132
    75  H    0.038750
    76  H    0.070881
    77  H    0.046344
    78  H    0.060527
    79  H    0.064459
    80  H    0.064150
    81  H    0.035189
    82  H    0.059471
    83  H    0.027730
    84  H    0.072221
    85  H    0.058404
    86  H    0.041739
    87  H    0.052618
    88  H    0.052963
    89  H    0.059685
    90  H    0.039018
    91  H    0.046797
    92  H    0.037417
    93  H    0.038016
    94  H    0.048886
    95  H    0.065419
    96  H    0.047215
    97  H    0.050934
    98  H    0.093045
    99  H    0.064050
   100  H    0.089187
   101  H    0.056129
   102  H    0.079640
   103  H    0.079946
   104  H    0.028817
   105  H    0.069821
   106  H    0.040121
   107  H    0.035751
   108  H    0.033858
   109  H    0.028099
   110  H    0.027606
   111  H    0.029908
   112  H    0.017801
   113  H    0.035311
   114  H    0.031849
   115  H    0.025032
   116  H    0.041607
   117  H    0.034949
   118  H    0.034572
   119  H    0.031834
   120  H    0.020725
   121  H    0.037711
   122  H    0.022661
   123  H    0.025810
   124  H    0.033419
   125  H    0.029311
   126  H    0.032012
   127  H    0.020241
   128  H    0.022177
   129  H    0.025730
   130  H    0.023148
   131  H    0.029559
   132  H    0.026662
   133  H    0.023955
   134  H    0.022902
   135  H    0.045545
   136  H    0.034578
   137  H    0.030173
   138  H    0.026545
   139  H    0.040120
   140  H    0.032944
 Sum of Mulliken charges =  -0.00000

 Dipole moment (field-independent basis, Debye):
    X=              5.3264    Y=              3.9747    Z=             -0.8426  Tot=              6.6992
 Quadrupole moment (field-independent basis, Debye-Ang):
   XX=           -379.2891   YY=           -435.7196   ZZ=           -403.5546
   XY=            -39.7311   XZ=              1.5532   YZ=              4.7742

 Normal termination of Gaussian 16 at Fri Apr 29 05:00:52 2022.
