 Gaussian 16, Revision A.03,
 Gaussian 16:  ES64L-G16RevA.03 25-Dec-2016

 --------------------------------
 #p wB97XD/Def2SVP td=(nstates=5)
 --------------------------------

 --------------------------------------------------
 step_1_chromophore_15 TDDFT with wB97XD functional
 --------------------------------------------------
 Symbolic Z-matrix:
 Charge =  0 Multiplicity = 1

                         Standard orientation:
 ---------------------------------------------------------------------
 Center     Atomic      Atomic             Coordinates (Angstroms)
 Number     Number       Type             X           Y           Z
 ---------------------------------------------------------------------
      1         12           0       -4.917208    0.927405    0.230462
      2          6           0       -4.531431   -2.483655    0.549529
      3          6           0       -1.341364    1.126085    0.272479
      4          6           0       -5.130127    4.184120    0.270932
      5          6           0       -8.348309    0.616449    0.540387
      6          7           0       -3.134335   -0.569381    0.611870
      7          6           0       -3.267501   -1.878409    0.479158
      8          6           0       -1.903644   -2.546073    0.144926
      9          6           0       -0.928577   -1.420896    0.639062
     10          6           0       -1.811328   -0.168564    0.516454
     11          6           0       -0.432794   -1.661449    2.109289
     12          6           0       -1.897132   -2.763994   -1.384544
     13          6           0       -0.710327   -3.548878   -1.959767
     14          6           0        0.496618   -3.849239   -1.093816
     15          8           0        0.417228   -4.469167   -0.051063
     16          8           0        1.643609   -3.325646   -1.665192
     17          7           0       -3.535355    2.478930    0.158501
     18          6           0       -2.105675    2.331254    0.146303
     19          6           0       -1.569176    3.660269   -0.113194
     20          6           0       -2.687094    4.544824   -0.225318
     21          6           0       -3.875396    3.760531    0.107624
     22          6           0       -0.040659    3.993304   -0.288994
     23          6           0       -2.659421    6.050577   -0.648983
     24          8           0       -3.681192    6.676366   -0.574191
     25          6           0       -1.385415    6.691874   -1.094407
     26          7           0       -6.542033    2.228491    0.293328
     27          6           0       -6.394519    3.572545    0.296641
     28          6           0       -7.717196    4.324449    0.440373
     29          6           0       -8.746147    3.171509    0.385323
     30          6           0       -7.805061    1.899175    0.408846
     31          6           0       -7.858130    5.214294    1.729663
     32          6           0       -9.792258    3.226803   -0.698630
     33          6           0       -9.413425    3.535445   -2.167234
     34          7           0       -6.248294   -0.563854    0.506893
     35          6           0       -7.610252   -0.569168    0.605559
     36          6           0       -8.029632   -1.954348    0.640891
     37          6           0       -6.865423   -2.795812    0.591110
     38          6           0       -5.797319   -1.859832    0.523304
     39          6           0       -9.457509   -2.395001    0.728217
     40          6           0       -6.356006   -4.124937    0.642331
     41          8           0       -6.904097   -5.243024    0.755498
     42          6           0       -4.766133   -3.899878    0.890801
     43          6           0       -4.045553   -4.994795    0.102439
     44          8           0       -4.194189   -5.225506   -1.036396
     45          8           0       -3.240106   -5.676012    0.970091
     46          6           0       -2.195565   -6.511863    0.414826
     47          6           0        2.853224   -3.611209   -0.886068
     48          6           0        3.939014   -2.824342   -1.530455
     49          6           0        5.257426   -2.869431   -1.144236
     50          6           0        5.637589   -3.845493    0.053752
     51          6           0        6.391029   -2.158620   -1.805725
     52          6           0        6.246765   -0.627698   -1.686176
     53          6           0        6.700004    0.212275   -2.925323
     54          6           0        7.952487    1.013394   -2.565294
     55          6           0        8.064060    2.177113   -3.535217
     56          6           0        9.166550    0.003151   -2.757275
     57          6           0        9.949715   -0.081373   -1.410783
     58          6           0       11.436270    0.328998   -1.489119
     59          6           0       11.800908    1.710549   -0.716138
     60          6           0       12.686477    2.614188   -1.563567
     61          6           0       12.315813    1.462329    0.730371
     62          6           0       11.537785    2.115274    1.872711
     63          6           0       11.099579    0.958209    2.837283
     64          6           0       11.335792    1.209119    4.314157
     65          6           0       12.566589    0.523799    4.864970
     66          6           0       10.042634    0.858112    5.016817
     67          1           0       -0.254272    1.183583    0.352910
     68          1           0       -5.257657    5.266597    0.337780
     69          1           0       -9.420351    0.450968    0.659954
     70          1           0       -1.724712   -3.440606    0.741316
     71          1           0       -0.131983   -1.433698   -0.105220
     72          1           0        0.595797   -2.019476    2.089249
     73          1           0       -1.102596   -2.386882    2.571438
     74          1           0       -0.396143   -0.752764    2.710229
     75          1           0       -1.831596   -1.780978   -1.850176
     76          1           0       -2.852096   -3.141451   -1.748866
     77          1           0       -0.448172   -3.247704   -2.974248
     78          1           0       -1.136277   -4.517107   -2.223491
     79          1           0        0.277512    4.825986    0.339010
     80          1           0        0.096143    4.178424   -1.354291
     81          1           0        0.551091    3.099344   -0.088431
     82          1           0       -1.751595    7.469091   -1.765556
     83          1           0       -0.783293    6.038263   -1.724515
     84          1           0       -0.607094    6.939752   -0.372743
     85          1           0       -7.775359    4.959430   -0.443378
     86          1           0       -9.284981    3.037042    1.323207
     87          1           0       -8.906783    5.144476    2.017486
     88          1           0       -7.610236    6.206535    1.352119
     89          1           0       -7.113196    4.929709    2.472689
     90          1           0      -10.293404    4.154961   -0.425963
     91          1           0      -10.502780    2.401673   -0.758155
     92          1           0       -9.827273    4.430713   -2.629372
     93          1           0       -9.817680    2.785801   -2.847422
     94          1           0       -8.329831    3.625092   -2.245343
     95          1           0       -9.423068   -3.481902    0.797122
     96          1           0       -9.979629   -2.153571   -0.198610
     97          1           0      -10.051770   -1.902040    1.497032
     98          1           0       -4.643595   -3.962142    1.972299
     99          1           0       -2.542015   -7.370022    0.990882
    100          1           0       -1.190137   -6.118133    0.565315
    101          1           0       -2.315089   -6.738762   -0.644896
    102          1           0        3.155324   -4.654958   -0.962898
    103          1           0        2.862036   -3.151935    0.102378
    104          1           0        3.786109   -2.230568   -2.432620
    105          1           0        5.770767   -3.342662    1.011765
    106          1           0        6.576114   -4.278526   -0.292035
    107          1           0        4.936750   -4.679981    0.041106
    108          1           0        6.399890   -2.326691   -2.882142
    109          1           0        7.390524   -2.520335   -1.564835
    110          1           0        6.724453   -0.232479   -0.789810
    111          1           0        5.191953   -0.395755   -1.538040
    112          1           0        5.832912    0.855357   -3.077434
    113          1           0        6.831289   -0.317761   -3.867667
    114          1           0        7.983523    1.382541   -1.540172
    115          1           0        9.116082    2.453584   -3.473606
    116          1           0        7.456474    3.017235   -3.197386
    117          1           0        7.879720    1.744428   -4.518448
    118          1           0        9.887686    0.297858   -3.519830
    119          1           0        8.742155   -0.998509   -2.821954
    120          1           0        9.906562   -1.147037   -1.188226
    121          1           0        9.508667    0.458351   -0.573024
    122          1           0       11.769755    0.376445   -2.526064
    123          1           0       11.968163   -0.474194   -0.978311
    124          1           0       10.907875    2.332562   -0.669439
    125          1           0       12.193415    3.465415   -2.031317
    126          1           0       13.220845    2.112020   -2.370357
    127          1           0       13.427825    3.096335   -0.926818
    128          1           0       13.313116    1.879682    0.874305
    129          1           0       12.459199    0.393575    0.891361
    130          1           0       10.659248    2.616704    1.467766
    131          1           0       12.066751    2.883405    2.435650
    132          1           0       11.630806    0.023852    2.659086
    133          1           0       10.019521    0.920653    2.693679
    134          1           0       11.399472    2.290716    4.429325
    135          1           0       13.380095    1.249477    4.842564
    136          1           0       12.857373   -0.384199    4.336041
    137          1           0       12.231055    0.237585    5.861075
    138          1           0       10.089220    1.434458    5.940368
    139          1           0       10.027351   -0.221382    5.169934
    140          1           0        9.115675    1.239937    4.589443
 ---------------------------------------------------------------------

 SCF Done:  E(RwB97XD) =  -3007.83750030     A.U. after   19 cycles

 Excitation energies and oscillator strengths:

 Excited State   1:      Singlet-A      1.6765 eV  739.56 nm  f=0.3640  <S**2>=0.000
     245 -> 248       -0.20156
     246 -> 247        0.67874
     245 <- 248       -0.12020
 This state for optimization and/or second-order correction.
 Total Energy, E(TD-HF/TD-DFT) =  -3007.77589159
 Copying the excited state density for this state as the 1-particle RhoCI density.

 Excited State   2:      Singlet-A      2.1625 eV  573.35 nm  f=0.0936  <S**2>=0.000
     245 -> 247        0.63350
     246 -> 248        0.30090

 Excited State   3:      Singlet-A      3.3269 eV  372.67 nm  f=0.0380  <S**2>=0.000
     240 -> 247       -0.21966
     240 -> 249        0.16170
     241 -> 247        0.42110
     241 -> 249       -0.25459
     241 -> 250        0.12239
     242 -> 247       -0.20613
     242 -> 249        0.11863
     244 -> 247       -0.16565
     246 -> 248       -0.16383

 Excited State   4:      Singlet-A      3.4348 eV  360.96 nm  f=0.1562  <S**2>=0.000
     241 -> 247        0.10174
     242 -> 247        0.48304
     244 -> 247       -0.27986
     245 -> 247        0.13929
     246 -> 248       -0.34982

 Excited State   5:      Singlet-A      3.4736 eV  356.93 nm  f=0.2232  <S**2>=0.000
     244 -> 247        0.54140
     244 -> 249        0.10830
     245 -> 247        0.15818
     246 -> 248       -0.40016

 The electronic state is 1-A.
 Alpha  occ. eigenvalues --  -46.94504 -19.31989 -19.28846 -19.26572 -19.24710
 Alpha  occ. eigenvalues --  -19.23985 -19.23937 -14.46216 -14.46172 -14.43791
 Alpha  occ. eigenvalues --  -14.43777 -10.44678 -10.42270 -10.39118 -10.38927
 Alpha  occ. eigenvalues --  -10.36980 -10.34615 -10.34535 -10.34465 -10.34329
 Alpha  occ. eigenvalues --  -10.34181 -10.33770 -10.33577 -10.33241 -10.32841
 Alpha  occ. eigenvalues --  -10.32676 -10.32469 -10.31830 -10.31815 -10.31713
 Alpha  occ. eigenvalues --  -10.31662 -10.31598 -10.31585 -10.31535 -10.31485
 Alpha  occ. eigenvalues --  -10.31457 -10.31418 -10.31245 -10.30472 -10.30410
 Alpha  occ. eigenvalues --  -10.30338 -10.30314 -10.30100 -10.30047 -10.30022
 Alpha  occ. eigenvalues --  -10.30003 -10.29872 -10.29716 -10.29703 -10.29595
 Alpha  occ. eigenvalues --  -10.29432 -10.29389 -10.29051 -10.29019 -10.29006
 Alpha  occ. eigenvalues --  -10.28928 -10.28813 -10.28682 -10.28633 -10.28582
 Alpha  occ. eigenvalues --  -10.28534 -10.28426 -10.28287 -10.28065 -10.27969
 Alpha  occ. eigenvalues --  -10.27849  -3.20568  -1.94160  -1.93711  -1.93529
 Alpha  occ. eigenvalues --   -1.19727  -1.19160  -1.13619  -1.12070  -1.11352
 Alpha  occ. eigenvalues --   -1.10081  -1.07113  -1.05969  -1.04992  -1.03977
 Alpha  occ. eigenvalues --   -0.94852  -0.92800  -0.91872  -0.91545  -0.91125
 Alpha  occ. eigenvalues --   -0.91007  -0.90476  -0.89559  -0.89156  -0.88309
 Alpha  occ. eigenvalues --   -0.87611  -0.87393  -0.86323  -0.85491  -0.85294
 Alpha  occ. eigenvalues --   -0.84624  -0.83724  -0.83162  -0.83000  -0.82338
 Alpha  occ. eigenvalues --   -0.81913  -0.79955  -0.79765  -0.79117  -0.78002
 Alpha  occ. eigenvalues --   -0.77872  -0.77583  -0.77294  -0.76597  -0.75847
 Alpha  occ. eigenvalues --   -0.75241  -0.74518  -0.73810  -0.72393  -0.71993
 Alpha  occ. eigenvalues --   -0.70436  -0.70011  -0.68894  -0.68358  -0.67349
 Alpha  occ. eigenvalues --   -0.67031  -0.66788  -0.66611  -0.66242  -0.65959
 Alpha  occ. eigenvalues --   -0.65909  -0.65199  -0.64492  -0.63708  -0.62432
 Alpha  occ. eigenvalues --   -0.62241  -0.61463  -0.61060  -0.60716  -0.60009
 Alpha  occ. eigenvalues --   -0.59713  -0.59315  -0.59079  -0.58032  -0.57698
 Alpha  occ. eigenvalues --   -0.57475  -0.57352  -0.57024  -0.56615  -0.55882
 Alpha  occ. eigenvalues --   -0.55557  -0.55315  -0.55297  -0.55082  -0.54808
 Alpha  occ. eigenvalues --   -0.54577  -0.54364  -0.54336  -0.54178  -0.54081
 Alpha  occ. eigenvalues --   -0.53807  -0.53794  -0.53096  -0.52927  -0.52472
 Alpha  occ. eigenvalues --   -0.52401  -0.52096  -0.51900  -0.51763  -0.51603
 Alpha  occ. eigenvalues --   -0.51482  -0.51312  -0.51144  -0.51019  -0.50599
 Alpha  occ. eigenvalues --   -0.50558  -0.50316  -0.50220  -0.50002  -0.49908
 Alpha  occ. eigenvalues --   -0.49634  -0.49473  -0.49179  -0.48914  -0.48787
 Alpha  occ. eigenvalues --   -0.48689  -0.48651  -0.48404  -0.48178  -0.47787
 Alpha  occ. eigenvalues --   -0.47709  -0.47629  -0.47374  -0.46853  -0.46760
 Alpha  occ. eigenvalues --   -0.46545  -0.46465  -0.46286  -0.46198  -0.45417
 Alpha  occ. eigenvalues --   -0.45097  -0.44836  -0.44726  -0.44703  -0.44661
 Alpha  occ. eigenvalues --   -0.44593  -0.44564  -0.44400  -0.44021  -0.43873
 Alpha  occ. eigenvalues --   -0.43830  -0.43672  -0.43633  -0.43579  -0.43245
 Alpha  occ. eigenvalues --   -0.43138  -0.43111  -0.42710  -0.42696  -0.42492
 Alpha  occ. eigenvalues --   -0.42078  -0.41621  -0.41551  -0.41243  -0.40990
 Alpha  occ. eigenvalues --   -0.40419  -0.40211  -0.40184  -0.39599  -0.39472
 Alpha  occ. eigenvalues --   -0.39052  -0.39051  -0.38650  -0.38050  -0.37932
 Alpha  occ. eigenvalues --   -0.37629  -0.37162  -0.37065  -0.36816  -0.36116
 Alpha  occ. eigenvalues --   -0.35807  -0.35394  -0.35389  -0.33537  -0.32885
 Alpha  occ. eigenvalues --   -0.32335  -0.31874  -0.31561  -0.31404  -0.25606
 Alpha  occ. eigenvalues --   -0.22790
 Alpha virt. eigenvalues --   -0.06666   0.00142   0.02373   0.04830   0.05737
 Alpha virt. eigenvalues --    0.06328   0.07180   0.08497   0.08719   0.09382
 Alpha virt. eigenvalues --    0.10379   0.11415   0.11661   0.11859   0.12284

 Mulliken charges:
               1
     1  Mg   0.965139
     2  C   -0.029616
     3  C   -0.077082
     4  C   -0.088145
     5  C   -0.118188
     6  N   -0.288337
     7  C   -0.024380
     8  C   -0.105661
     9  C   -0.102058
    10  C    0.021886
    11  C    0.050640
    12  C    0.019920
    13  C    0.060677
    14  C    0.205612
    15  O   -0.259558
    16  O   -0.367021
    17  N   -0.478599
    18  C    0.175873
    19  C   -0.189725
    20  C   -0.081454
    21  C    0.188475
    22  C    0.062703
    23  C    0.064636
    24  O   -0.213945
    25  C   -0.007205
    26  N   -0.342029
    27  C    0.014180
    28  C   -0.099155
    29  C   -0.054387
    30  C    0.091427
    31  C    0.035566
    32  C   -0.009871
    33  C   -0.072490
    34  N   -0.486787
    35  C    0.144868
    36  C   -0.184582
    37  C   -0.030010
    38  C    0.179438
    39  C    0.067951
    40  C    0.152727
    41  O   -0.233099
    42  C   -0.144701
    43  C    0.242456
    44  O   -0.190618
    45  O   -0.367857
    46  C    0.099292
    47  C    0.273367
    48  C   -0.170736
    49  C   -0.233631
    50  C    0.014730
    51  C    0.061346
    52  C   -0.030063
    53  C   -0.007423
    54  C   -0.211561
    55  C    0.034685
    56  C    0.026187
    57  C   -0.062672
    58  C    0.017274
    59  C   -0.177158
    60  C   -0.006334
    61  C    0.025496
    62  C   -0.021364
    63  C    0.000799
    64  C   -0.241835
    65  C    0.035460
    66  C   -0.019597
    67  H    0.003531
    68  H    0.009237
    69  H   -0.005728
    70  H    0.041579
    71  H    0.021456
    72  H    0.040330
    73  H    0.046531
    74  H    0.036577
    75  H    0.029616
    76  H    0.062618
    77  H    0.043154
    78  H    0.053276
    79  H    0.058452
    80  H    0.057198
    81  H    0.029706
    82  H    0.057864
    83  H    0.020297
    84  H    0.068845
    85  H    0.047659
    86  H    0.031156
    87  H    0.046099
    88  H    0.047666
    89  H    0.054233
    90  H    0.029039
    91  H    0.040643
    92  H    0.032544
    93  H    0.032751
    94  H    0.039613
    95  H    0.062459
    96  H    0.042623
    97  H    0.047223
    98  H    0.086262
    99  H    0.061260
   100  H    0.083443
   101  H    0.052173
   102  H    0.073645
   103  H    0.073486
   104  H    0.026039
   105  H    0.065286
   106  H    0.033410
   107  H    0.028674
   108  H    0.024397
   109  H    0.020172
   110  H    0.018375
   111  H    0.019805
   112  H    0.009826
   113  H    0.025956
   114  H    0.018864
   115  H    0.016156
   116  H    0.036886
   117  H    0.027944
   118  H    0.025698
   119  H    0.016710
   120  H    0.013056
   121  H    0.023678
   122  H    0.012835
   123  H    0.017245
   124  H    0.017222
   125  H    0.024245
   126  H    0.025936
   127  H    0.013186
   128  H    0.013750
   129  H    0.014197
   130  H    0.014446
   131  H    0.021753
   132  H    0.013438
   133  H    0.014078
   134  H    0.010592
   135  H    0.040490
   136  H    0.029180
   137  H    0.023561
   138  H    0.019988
   139  H    0.033377
   140  H    0.027154
 Sum of Mulliken charges =  -0.00000

 Dipole moment (field-independent basis, Debye):
    X=              5.3048    Y=              3.7665    Z=             -0.8632  Tot=              6.5630
 Quadrupole moment (field-independent basis, Debye-Ang):
   XX=           -378.6857   YY=           -434.9985   ZZ=           -403.2021
   XY=            -37.9095   XZ=              1.4613   YZ=              4.4695

 Normal termination of Gaussian 16 at Fri Apr 29 05:25:02 2022.
