 Gaussian 16, Revision A.03,
 Gaussian 16:  ES64L-G16RevA.03 25-Dec-2016

 --------------------
 #p ZINDO=(nstates=5)
 --------------------

 ---------------------------
 step_1_chromophore_15 ZINDO
 ---------------------------
 Symbolic Z-matrix:
 Charge =  0 Multiplicity = 1

                         Standard orientation:
 ---------------------------------------------------------------------
 Center     Atomic      Atomic             Coordinates (Angstroms)
 Number     Number       Type             X           Y           Z
 ---------------------------------------------------------------------
      1         12           0       -4.917208    0.927405    0.230462
      2          6           0       -4.531431   -2.483655    0.549529
      3          6           0       -1.341364    1.126085    0.272479
      4          6           0       -5.130127    4.184120    0.270932
      5          6           0       -8.348309    0.616449    0.540387
      6          7           0       -3.134335   -0.569381    0.611870
      7          6           0       -3.267501   -1.878409    0.479158
      8          6           0       -1.903644   -2.546073    0.144926
      9          6           0       -0.928577   -1.420896    0.639062
     10          6           0       -1.811328   -0.168564    0.516454
     11          6           0       -0.432794   -1.661449    2.109289
     12          6           0       -1.897132   -2.763994   -1.384544
     13          6           0       -0.710327   -3.548878   -1.959767
     14          6           0        0.496618   -3.849239   -1.093816
     15          8           0        0.417228   -4.469167   -0.051063
     16          8           0        1.643609   -3.325646   -1.665192
     17          7           0       -3.535355    2.478930    0.158501
     18          6           0       -2.105675    2.331254    0.146303
     19          6           0       -1.569176    3.660269   -0.113194
     20          6           0       -2.687094    4.544824   -0.225318
     21          6           0       -3.875396    3.760531    0.107624
     22          6           0       -0.040659    3.993304   -0.288994
     23          6           0       -2.659421    6.050577   -0.648983
     24          8           0       -3.681192    6.676366   -0.574191
     25          6           0       -1.385415    6.691874   -1.094407
     26          7           0       -6.542033    2.228491    0.293328
     27          6           0       -6.394519    3.572545    0.296641
     28          6           0       -7.717196    4.324449    0.440373
     29          6           0       -8.746147    3.171509    0.385323
     30          6           0       -7.805061    1.899175    0.408846
     31          6           0       -7.858130    5.214294    1.729663
     32          6           0       -9.792258    3.226803   -0.698630
     33          6           0       -9.413425    3.535445   -2.167234
     34          7           0       -6.248294   -0.563854    0.506893
     35          6           0       -7.610252   -0.569168    0.605559
     36          6           0       -8.029632   -1.954348    0.640891
     37          6           0       -6.865423   -2.795812    0.591110
     38          6           0       -5.797319   -1.859832    0.523304
     39          6           0       -9.457509   -2.395001    0.728217
     40          6           0       -6.356006   -4.124937    0.642331
     41          8           0       -6.904097   -5.243024    0.755498
     42          6           0       -4.766133   -3.899878    0.890801
     43          6           0       -4.045553   -4.994795    0.102439
     44          8           0       -4.194189   -5.225506   -1.036396
     45          8           0       -3.240106   -5.676012    0.970091
     46          6           0       -2.195565   -6.511863    0.414826
     47          6           0        2.853224   -3.611209   -0.886068
     48          6           0        3.939014   -2.824342   -1.530455
     49          6           0        5.257426   -2.869431   -1.144236
     50          6           0        5.637589   -3.845493    0.053752
     51          6           0        6.391029   -2.158620   -1.805725
     52          6           0        6.246765   -0.627698   -1.686176
     53          6           0        6.700004    0.212275   -2.925323
     54          6           0        7.952487    1.013394   -2.565294
     55          6           0        8.064060    2.177113   -3.535217
     56          6           0        9.166550    0.003151   -2.757275
     57          6           0        9.949715   -0.081373   -1.410783
     58          6           0       11.436270    0.328998   -1.489119
     59          6           0       11.800908    1.710549   -0.716138
     60          6           0       12.686477    2.614188   -1.563567
     61          6           0       12.315813    1.462329    0.730371
     62          6           0       11.537785    2.115274    1.872711
     63          6           0       11.099579    0.958209    2.837283
     64          6           0       11.335792    1.209119    4.314157
     65          6           0       12.566589    0.523799    4.864970
     66          6           0       10.042634    0.858112    5.016817
     67          1           0       -0.254272    1.183583    0.352910
     68          1           0       -5.257657    5.266597    0.337780
     69          1           0       -9.420351    0.450968    0.659954
     70          1           0       -1.724712   -3.440606    0.741316
     71          1           0       -0.131983   -1.433698   -0.105220
     72          1           0        0.595797   -2.019476    2.089249
     73          1           0       -1.102596   -2.386882    2.571438
     74          1           0       -0.396143   -0.752764    2.710229
     75          1           0       -1.831596   -1.780978   -1.850176
     76          1           0       -2.852096   -3.141451   -1.748866
     77          1           0       -0.448172   -3.247704   -2.974248
     78          1           0       -1.136277   -4.517107   -2.223491
     79          1           0        0.277512    4.825986    0.339010
     80          1           0        0.096143    4.178424   -1.354291
     81          1           0        0.551091    3.099344   -0.088431
     82          1           0       -1.751595    7.469091   -1.765556
     83          1           0       -0.783293    6.038263   -1.724515
     84          1           0       -0.607094    6.939752   -0.372743
     85          1           0       -7.775359    4.959430   -0.443378
     86          1           0       -9.284981    3.037042    1.323207
     87          1           0       -8.906783    5.144476    2.017486
     88          1           0       -7.610236    6.206535    1.352119
     89          1           0       -7.113196    4.929709    2.472689
     90          1           0      -10.293404    4.154961   -0.425963
     91          1           0      -10.502780    2.401673   -0.758155
     92          1           0       -9.827273    4.430713   -2.629372
     93          1           0       -9.817680    2.785801   -2.847422
     94          1           0       -8.329831    3.625092   -2.245343
     95          1           0       -9.423068   -3.481902    0.797122
     96          1           0       -9.979629   -2.153571   -0.198610
     97          1           0      -10.051770   -1.902040    1.497032
     98          1           0       -4.643595   -3.962142    1.972299
     99          1           0       -2.542015   -7.370022    0.990882
    100          1           0       -1.190137   -6.118133    0.565315
    101          1           0       -2.315089   -6.738762   -0.644896
    102          1           0        3.155324   -4.654958   -0.962898
    103          1           0        2.862036   -3.151935    0.102378
    104          1           0        3.786109   -2.230568   -2.432620
    105          1           0        5.770767   -3.342662    1.011765
    106          1           0        6.576114   -4.278526   -0.292035
    107          1           0        4.936750   -4.679981    0.041106
    108          1           0        6.399890   -2.326691   -2.882142
    109          1           0        7.390524   -2.520335   -1.564835
    110          1           0        6.724453   -0.232479   -0.789810
    111          1           0        5.191953   -0.395755   -1.538040
    112          1           0        5.832912    0.855357   -3.077434
    113          1           0        6.831289   -0.317761   -3.867667
    114          1           0        7.983523    1.382541   -1.540172
    115          1           0        9.116082    2.453584   -3.473606
    116          1           0        7.456474    3.017235   -3.197386
    117          1           0        7.879720    1.744428   -4.518448
    118          1           0        9.887686    0.297858   -3.519830
    119          1           0        8.742155   -0.998509   -2.821954
    120          1           0        9.906562   -1.147037   -1.188226
    121          1           0        9.508667    0.458351   -0.573024
    122          1           0       11.769755    0.376445   -2.526064
    123          1           0       11.968163   -0.474194   -0.978311
    124          1           0       10.907875    2.332562   -0.669439
    125          1           0       12.193415    3.465415   -2.031317
    126          1           0       13.220845    2.112020   -2.370357
    127          1           0       13.427825    3.096335   -0.926818
    128          1           0       13.313116    1.879682    0.874305
    129          1           0       12.459199    0.393575    0.891361
    130          1           0       10.659248    2.616704    1.467766
    131          1           0       12.066751    2.883405    2.435650
    132          1           0       11.630806    0.023852    2.659086
    133          1           0       10.019521    0.920653    2.693679
    134          1           0       11.399472    2.290716    4.429325
    135          1           0       13.380095    1.249477    4.842564
    136          1           0       12.857373   -0.384199    4.336041
    137          1           0       12.231055    0.237585    5.861075
    138          1           0       10.089220    1.434458    5.940368
    139          1           0       10.027351   -0.221382    5.169934
    140          1           0        9.115675    1.239937    4.589443
 ---------------------------------------------------------------------

 SCF Done:  E(RZINDO/S) =  -474.474731453     A.U. after   19 cycles

 Excitation energies and oscillator strengths:

 Excited State   1:      Singlet-A      1.2535 eV  989.08 nm  f=0.5871  <S**2>=0.000
     175 ->178        -0.20351
     176 ->177         0.65968
 This state for optimization and/or second-order correction.
 Total Energy, E(CIS/TDA) =  -474.428664933
 Copying the excited state density for this state as the 1-particle RhoCI density.

 Excited State   2:      Singlet-A      1.9049 eV  650.86 nm  f=0.0358  <S**2>=0.000
     175 ->177         0.54269
     176 ->178         0.43124

 Excited State   3:      Singlet-A      2.8586 eV  433.73 nm  f=0.0421  <S**2>=0.000
     168 ->177         0.31859
     168 ->179        -0.36481
     168 ->181         0.20491
     168 ->186        -0.14705
     170 ->177         0.12343
     170 ->179        -0.14172
     176 ->179         0.15909

 Excited State   4:      Singlet-A      2.9808 eV  415.95 nm  f=0.8836  <S**2>=0.000
     171 ->177         0.13749
     175 ->177        -0.34818
     176 ->178         0.46263
     176 ->179        -0.31702

 Excited State   5:      Singlet-A      3.0510 eV  406.38 nm  f=0.2511  <S**2>=0.000
     168 ->179         0.10533
     169 ->181        -0.12556
     175 ->177        -0.17853
     176 ->178         0.21300
     176 ->179         0.52507
     176 ->181         0.13477

 The electronic state is 1-A.
 Alpha  occ. eigenvalues --   -1.84928  -1.82890  -1.80114  -1.73441  -1.73351
 Alpha  occ. eigenvalues --   -1.70923  -1.66384  -1.63361  -1.59779  -1.58352
 Alpha  occ. eigenvalues --   -1.55667  -1.53263  -1.49064  -1.48136  -1.47699
 Alpha  occ. eigenvalues --   -1.46181  -1.41501  -1.40606  -1.39045  -1.37501
 Alpha  occ. eigenvalues --   -1.35620  -1.33918  -1.33369  -1.31550  -1.30591
 Alpha  occ. eigenvalues --   -1.29592  -1.25407  -1.21828  -1.20646  -1.18705
 Alpha  occ. eigenvalues --   -1.16693  -1.16626  -1.14370  -1.14068  -1.13843
 Alpha  occ. eigenvalues --   -1.12846  -1.10528  -1.09914  -1.05349  -1.03298
 Alpha  occ. eigenvalues --   -1.01741  -1.01037  -0.98494  -0.97682  -0.97153
 Alpha  occ. eigenvalues --   -0.95699  -0.95098  -0.93399  -0.93291  -0.92298
 Alpha  occ. eigenvalues --   -0.90877  -0.90115  -0.88279  -0.88039  -0.87316
 Alpha  occ. eigenvalues --   -0.85952  -0.85490  -0.83166  -0.81636  -0.81175
 Alpha  occ. eigenvalues --   -0.80150  -0.78712  -0.77510  -0.76865  -0.75985
 Alpha  occ. eigenvalues --   -0.75080  -0.74866  -0.74064  -0.73825  -0.73653
 Alpha  occ. eigenvalues --   -0.73293  -0.73047  -0.72091  -0.71951  -0.70906
 Alpha  occ. eigenvalues --   -0.70297  -0.69749  -0.69527  -0.69194  -0.68135
 Alpha  occ. eigenvalues --   -0.67353  -0.66689  -0.66371  -0.65809  -0.65560
 Alpha  occ. eigenvalues --   -0.65355  -0.64921  -0.64134  -0.63596  -0.63481
 Alpha  occ. eigenvalues --   -0.63055  -0.62480  -0.62058  -0.61910  -0.61732
 Alpha  occ. eigenvalues --   -0.61641  -0.61291  -0.60696  -0.60559  -0.60031
 Alpha  occ. eigenvalues --   -0.59645  -0.59549  -0.59434  -0.58528  -0.58237
 Alpha  occ. eigenvalues --   -0.57627  -0.57135  -0.56960  -0.56662  -0.56368
 Alpha  occ. eigenvalues --   -0.55736  -0.55474  -0.55068  -0.54695  -0.54391
 Alpha  occ. eigenvalues --   -0.54134  -0.53930  -0.53375  -0.53219  -0.52748
 Alpha  occ. eigenvalues --   -0.52282  -0.52175  -0.51966  -0.51455  -0.51261
 Alpha  occ. eigenvalues --   -0.51167  -0.50971  -0.50905  -0.50641  -0.50335
 Alpha  occ. eigenvalues --   -0.49844  -0.49726  -0.49479  -0.49113  -0.48982
 Alpha  occ. eigenvalues --   -0.48771  -0.48679  -0.48566  -0.48354  -0.48245
 Alpha  occ. eigenvalues --   -0.47750  -0.47500  -0.46988  -0.46745  -0.46683
 Alpha  occ. eigenvalues --   -0.46226  -0.45903  -0.45325  -0.45194  -0.44765
 Alpha  occ. eigenvalues --   -0.44717  -0.44440  -0.44417  -0.44280  -0.43697
 Alpha  occ. eigenvalues --   -0.43550  -0.43195  -0.42841  -0.41924  -0.41649
 Alpha  occ. eigenvalues --   -0.41534  -0.41102  -0.40228  -0.39417  -0.39154
 Alpha  occ. eigenvalues --   -0.37990  -0.36626  -0.35312  -0.35150  -0.34782
 Alpha  occ. eigenvalues --   -0.32897  -0.32221  -0.31854  -0.31318  -0.26289
 Alpha  occ. eigenvalues --   -0.21551
 Alpha virt. eigenvalues --   -0.08222  -0.02031  -0.00396   0.01427   0.01777
 Alpha virt. eigenvalues --    0.02841   0.03262   0.03756   0.04351   0.04918
 Alpha virt. eigenvalues --    0.06450   0.07045   0.07746   0.07826   0.08370

 Mulliken charges:
               1
     1  Mg   0.423779
     2  C   -0.050009
     3  C   -0.068568
     4  C   -0.054363
     5  C   -0.076871
     6  N   -0.290117
     7  C    0.145805
     8  C    0.006667
     9  C    0.002842
    10  C    0.102831
    11  C   -0.046299
    12  C   -0.008945
    13  C   -0.002075
    14  C    0.477295
    15  O   -0.522399
    16  O   -0.267560
    17  N   -0.327442
    18  C    0.073610
    19  C   -0.012604
    20  C   -0.065564
    21  C    0.160895
    22  C   -0.047382
    23  C    0.331126
    24  O   -0.512023
    25  C   -0.038598
    26  N   -0.246128
    27  C    0.119439
    28  C    0.004869
    29  C    0.006723
    30  C    0.136990
    31  C   -0.053197
    32  C   -0.025045
    33  C   -0.061126
    34  N   -0.331687
    35  C    0.108188
    36  C    0.042361
    37  C   -0.049764
    38  C    0.115221
    39  C   -0.042016
    40  C    0.327504
    41  O   -0.518331
    42  C    0.048606
    43  C    0.493333
    44  O   -0.499894
    45  O   -0.282384
    46  C    0.061684
    47  C    0.107837
    48  C   -0.095336
    49  C   -0.031436
    50  C   -0.060229
    51  C   -0.012794
    52  C   -0.035905
    53  C   -0.033854
    54  C   -0.017785
    55  C   -0.061902
    56  C   -0.048392
    57  C   -0.046531
    58  C   -0.042213
    59  C   -0.013666
    60  C   -0.056931
    61  C   -0.032017
    62  C   -0.039208
    63  C   -0.045461
    64  C   -0.012548
    65  C   -0.053731
    66  C   -0.056811
    67  H    0.029802
    68  H    0.028837
    69  H    0.027428
    70  H    0.046426
    71  H    0.026027
    72  H    0.022167
    73  H    0.028972
    74  H    0.022058
    75  H    0.017589
    76  H    0.039798
    77  H    0.031877
    78  H    0.038831
    79  H    0.034436
    80  H    0.030228
    81  H    0.021101
    82  H    0.039324
    83  H    0.021801
    84  H    0.052720
    85  H    0.037376
    86  H    0.024028
    87  H    0.028307
    88  H    0.024086
    89  H    0.035186
    90  H    0.011045
    91  H    0.028054
    92  H    0.019693
    93  H    0.016033
    94  H    0.022098
    95  H    0.035160
    96  H    0.028211
    97  H    0.033218
    98  H    0.060240
    99  H    0.041337
   100  H    0.056997
   101  H    0.044213
   102  H    0.064861
   103  H    0.063859
   104  H    0.035247
   105  H    0.039777
   106  H    0.018096
   107  H    0.026972
   108  H    0.018889
   109  H    0.024080
   110  H    0.019602
   111  H    0.014342
   112  H    0.003913
   113  H    0.029289
   114  H    0.030714
   115  H    0.009812
   116  H    0.024708
   117  H    0.027056
   118  H    0.035540
   119  H    0.026338
   120  H    0.008191
   121  H    0.025573
   122  H    0.023748
   123  H    0.016032
   124  H    0.019600
   125  H    0.014860
   126  H    0.017149
   127  H    0.011234
   128  H    0.011467
   129  H    0.022889
   130  H    0.016631
   131  H    0.023713
   132  H    0.027560
   133  H    0.017439
   134  H    0.013249
   135  H    0.022699
   136  H    0.023480
   137  H    0.019706
   138  H    0.004850
   139  H    0.022760
   140  H    0.018906
 Sum of Mulliken charges =  -0.00000

 Dipole moment (field-independent basis, Debye):
    X=              6.0077    Y=              3.9799    Z=             -0.8445  Tot=              7.2557
 N-N= 4.383258481203D+03 E-N= 0.000000000000D+00  KE=-9.441115472939D+03
 Leave Link  601 at Fri Apr 29 05:37:13 2022, MaxMem=  6710886400 cpu:               1.1 elap:               0.1
 (Enter /sw/apps/gaussian-16.0/g16/l9999.exe)
 1\1\GINC-BP1-COMPUTE148\SP\RZINDO CIS\STO-3G\C55H74Mg1N4O6\OF15641\29-
 Apr-2022\0\\#p ZINDO=(nstates=5)\\step_1_chromophore_15 ZINDO\\0,1\Mg,
 0,46.367,34.873,28.258\C,0,44.786,32.872,30.578\C,0,46.386,37.42,30.77
 6\C,0,47.556,36.983,26.07\C,0,45.979,32.443,25.827\N,0,45.442,35.144,3
 0.411\C,0,45.073,34.117,31.158\C,0,45.125,34.48,32.669\C,0,45.086,36.0
 45,32.568\C,0,45.675,36.281,31.168\C,0,43.631,36.618,32.709\C,0,46.46,
 33.912,33.2\C,0,46.692,34.009,34.714\C,0,45.771,34.851,35.574\O,0,44.5

 Normal termination of Gaussian 16 at Fri Apr 29 05:37:13 2022.
