 Gaussian 16, Revision A.03,
 Gaussian 16:  ES64L-G16RevA.03 25-Dec-2016

 ------------------------------
 #p blyp/Def2SVP td=(nstates=5)
 ------------------------------

 ---------------------------------------------------
 step_1701_chromophore_21 TDDFT with blyp functional
 ---------------------------------------------------
 Symbolic Z-matrix:
 Charge =  0 Multiplicity = 1

                         Standard orientation:
 ---------------------------------------------------------------------
 Center     Atomic      Atomic             Coordinates (Angstroms)
 Number     Number       Type             X           Y           Z
 ---------------------------------------------------------------------
      1         12           0        5.104303    1.096825    0.109912
      2          6           0        5.051453   -2.395980    0.259760
      3          6           0        1.593453    1.006683   -0.360868
      4          6           0        5.192599    4.478640   -0.150912
      5          6           0        8.568380    1.102702    0.229148
      6          7           0        3.496862   -0.466050   -0.009739
      7          6           0        3.734475   -1.802699    0.304018
      8          6           0        2.377467   -2.585700    0.415745
      9          6           0        1.385277   -1.541163   -0.139731
     10          6           0        2.205245   -0.255528   -0.179811
     11          6           0        0.886482   -1.828954   -1.576592
     12          6           0        2.146710   -3.037132    1.861075
     13          6           0        0.921295   -4.011638    2.140399
     14          6           0       -0.027165   -4.347921    0.939402
     15          8           0        0.307472   -5.149897    0.098305
     16          8           0       -1.234952   -3.574709    0.872257
     17          7           0        3.653563    2.530638   -0.312898
     18          6           0        2.268861    2.308526   -0.371024
     19          6           0        1.666322    3.575633   -0.789602
     20          6           0        2.709253    4.604582   -0.890429
     21          6           0        3.950937    3.884954   -0.493393
     22          6           0        0.233809    3.836779   -1.116552
     23          6           0        2.688960    6.083003   -1.360177
     24          8           0        3.714383    6.752380   -1.316394
     25          6           0        1.448973    6.713940   -1.824947
     26          7           0        6.527803    2.587235    0.229825
     27          6           0        6.346537    3.931040    0.214805
     28          6           0        7.666206    4.662557    0.446031
     29          6           0        8.631617    3.525588    0.715219
     30          6           0        7.823845    2.266608    0.335482
     31          6           0        7.979420    5.763032   -0.602374
     32          6           0        9.310424    3.438943    2.139440
     33          6           0       10.555916    4.298596    2.341190
     34          7           0        6.543007   -0.333647    0.211977
     35          6           0        7.969475   -0.184634    0.141396
     36          6           0        8.556762   -1.552746    0.048633
     37          6           0        7.492399   -2.461055    0.053895
     38          6           0        6.280063   -1.644070    0.148453
     39          6           0       10.016685   -1.806967    0.008199
     40          6           0        7.009920   -3.826885    0.086545
     41          8           0        7.670592   -4.895684   -0.026632
     42          6           0        5.391873   -3.860993    0.173995
     43          6           0        4.908423   -4.652899   -1.017873
     44          8           0        5.282270   -4.561942   -2.184027
     45          8           0        4.065120   -5.649619   -0.533616
     46          6           0        3.452745   -6.576241   -1.511337
     47          6           0       -2.029155   -4.002868   -0.300445
     48          6           0       -3.390973   -3.351429   -0.254478
     49          6           0       -4.162800   -2.914929   -1.284233
     50          6           0       -3.804385   -3.339943   -2.668122
     51          6           0       -5.480995   -2.243108   -0.993187
     52          6           0       -5.416006   -0.816926   -0.401029
     53          6           0       -6.023906   -0.761383    1.021924
     54          6           0       -7.255910    0.089929    1.256782
     55          6           0       -7.388756    0.654665    2.685506
     56          6           0       -8.573549   -0.599065    0.727011
     57          6           0       -9.562393    0.356971    0.126566
     58          6           0      -10.988566   -0.257047    0.376925
     59          6           0      -12.004029    0.699115    1.115106
     60          6           0      -11.619300    0.822894    2.651379
     61          6           0      -13.431903    0.224657    0.966930
     62          6           0      -14.364848    1.464210    0.699896
     63          6           0      -15.291842    1.158854   -0.551496
     64          6           0      -16.499240    2.035263   -0.532246
     65          6           0      -17.807239    1.311886   -1.054962
     66          6           0      -16.138263    3.238119   -1.447470
     67          1           0        0.518961    0.974737   -0.547587
     68          1           0        5.262840    5.568584   -0.146055
     69          1           0        9.648917    1.123806    0.382837
     70          1           0        2.582469   -3.509731   -0.124723
     71          1           0        0.488036   -1.468082    0.474204
     72          1           0        1.361319   -1.153783   -2.288814
     73          1           0       -0.169062   -1.594703   -1.715241
     74          1           0        0.958081   -2.870328   -1.890784
     75          1           0        1.983944   -2.087653    2.371037
     76          1           0        3.105683   -3.363996    2.264286
     77          1           0        0.395005   -3.626529    3.013430
     78          1           0        1.389968   -4.943326    2.459442
     79          1           0        0.211505    4.247222   -2.126129
     80          1           0       -0.123757    4.644737   -0.478017
     81          1           0       -0.312315    2.892898   -1.110700
     82          1           0        1.688433    7.725216   -2.156616
     83          1           0        0.811693    6.800820   -0.945129
     84          1           0        0.947183    6.206055   -2.648382
     85          1           0        7.540747    5.266503    1.344968
     86          1           0        9.395975    3.740763   -0.031577
     87          1           0        7.436552    5.640002   -1.539634
     88          1           0        9.057971    5.759460   -0.763511
     89          1           0        7.645000    6.670441   -0.099573
     90          1           0        9.378720    2.388250    2.420994
     91          1           0        8.604349    3.951168    2.793243
     92          1           0       10.662132    4.928628    1.458057
     93          1           0       11.337396    3.554990    2.499798
     94          1           0       10.457935    4.936959    3.219357
     95          1           0       10.425201   -2.213376    0.933154
     96          1           0       10.600898   -0.887955   -0.039650
     97          1           0       10.255159   -2.551775   -0.751427
     98          1           0        4.966089   -4.372161    1.036889
     99          1           0        3.398262   -6.188501   -2.529464
    100          1           0        2.400674   -6.687952   -1.248323
    101          1           0        4.009116   -7.512646   -1.533680
    102          1           0       -2.189533   -5.079529   -0.242264
    103          1           0       -1.442798   -3.893194   -1.212256
    104          1           0       -3.804065   -3.108554    0.723862
    105          1           0       -3.274763   -2.573389   -3.234095
    106          1           0       -4.760639   -3.433922   -3.181664
    107          1           0       -3.332965   -4.321415   -2.721013
    108          1           0       -6.043245   -2.945508   -0.376978
    109          1           0       -5.985345   -2.138487   -1.953099
    110          1           0       -5.985667   -0.204238   -1.100439
    111          1           0       -4.372162   -0.509574   -0.346254
    112          1           0       -5.217820   -0.303458    1.595100
    113          1           0       -6.228543   -1.744808    1.444712
    114          1           0       -7.107287    0.990797    0.662854
    115          1           0       -8.390255    0.485439    3.080016
    116          1           0       -7.459188    1.741832    2.679576
    117          1           0       -6.586057    0.432662    3.388376
    118          1           0       -8.913004   -1.242073    1.538803
    119          1           0       -8.333923   -1.318042   -0.056415
    120          1           0       -9.497488    0.397687   -0.960747
    121          1           0       -9.218764    1.317446    0.511034
    122          1           0      -10.908904   -1.198753    0.920223
    123          1           0      -11.324538   -0.534466   -0.622176
    124          1           0      -11.893932    1.686245    0.664958
    125          1           0      -12.514786    0.579698    3.224816
    126          1           0      -11.156743    1.802873    2.765708
    127          1           0      -10.857495    0.087176    2.907766
    128          1           0      -13.784052   -0.244064    1.885592
    129          1           0      -13.468749   -0.431435    0.096609
    130          1           0      -13.781827    2.357130    0.472952
    131          1           0      -14.919275    1.739252    1.597273
    132          1           0      -15.508759    0.092285   -0.602286
    133          1           0      -14.760073    1.306053   -1.492700
    134          1           0      -16.671797    2.413777    0.476085
    135          1           0      -18.193995    1.668486   -2.010025
    136          1           0      -18.643838    1.442133   -0.368188
    137          1           0      -17.754317    0.224301   -1.106930
    138          1           0      -15.758980    2.839498   -2.388417
    139          1           0      -15.424946    3.841411   -0.886095
    140          1           0      -17.056173    3.765822   -1.708567
 ---------------------------------------------------------------------

 SCF Done:  E(RB-LYP) =  -3007.37969822     A.U. after   21 cycles

 Excitation energies and oscillator strengths:

 Excited State   1:      Singlet-A      1.7706 eV  700.24 nm  f=0.2840  <S**2>=0.000
     244 -> 247       -0.11395
     245 -> 248       -0.18910
     246 -> 247        0.68217
     246 <- 247       -0.15643
 This state for optimization and/or second-order correction.
 Total Energy, E(TD-HF/TD-DFT) =  -3007.31462965
 Copying the excited state density for this state as the 1-particle RhoCI density.

 Excited State   2:      Singlet-A      1.8162 eV  682.66 nm  f=0.0278  <S**2>=0.000
     244 -> 247        0.62707
     245 -> 247       -0.28943
     246 -> 247        0.12678

 Excited State   3:      Singlet-A      1.9601 eV  632.53 nm  f=0.0311  <S**2>=0.000
     243 -> 247        0.53025
     244 -> 247       -0.21730
     245 -> 247       -0.38075
     246 -> 248       -0.14123

 Excited State   4:      Singlet-A      2.0077 eV  617.54 nm  f=0.0461  <S**2>=0.000
     243 -> 247        0.46530
     244 -> 247        0.20349
     245 -> 247        0.43908
     246 -> 248        0.20163

 Excited State   5:      Singlet-A      2.3115 eV  536.38 nm  f=0.0004  <S**2>=0.000
     241 -> 247        0.69076
     242 -> 247        0.14979

 The electronic state is 1-A.
 Alpha  occ. eigenvalues --  -46.26056 -18.83104 -18.81648 -18.78974 -18.76354
 Alpha  occ. eigenvalues --  -18.75491 -18.75116 -14.03487 -14.02635 -14.01344
 Alpha  occ. eigenvalues --  -14.00985 -10.05690 -10.03649 -10.00015  -9.99819
 Alpha  occ. eigenvalues --   -9.98298  -9.97129  -9.96785  -9.96419  -9.96291
 Alpha  occ. eigenvalues --   -9.96279  -9.96185  -9.95892  -9.95297  -9.95181
 Alpha  occ. eigenvalues --   -9.94917  -9.94375  -9.94367  -9.94168  -9.94036
 Alpha  occ. eigenvalues --   -9.93954  -9.93953  -9.93925  -9.93641  -9.92987
 Alpha  occ. eigenvalues --   -9.92889  -9.92874  -9.92873  -9.92716  -9.92594
 Alpha  occ. eigenvalues --   -9.92440  -9.92380  -9.92234  -9.92194  -9.92132
 Alpha  occ. eigenvalues --   -9.92048  -9.92007  -9.92003  -9.91995  -9.91915
 Alpha  occ. eigenvalues --   -9.91856  -9.91835  -9.91824  -9.91682  -9.91353
 Alpha  occ. eigenvalues --   -9.91329  -9.91319  -9.91211  -9.91101  -9.91044
 Alpha  occ. eigenvalues --   -9.91041  -9.90942  -9.90857  -9.90856  -9.90781
 Alpha  occ. eigenvalues --   -9.90706  -2.90849  -1.71287  -1.70711  -1.70572
 Alpha  occ. eigenvalues --   -0.98031  -0.96183  -0.91573  -0.91121  -0.89020
 Alpha  occ. eigenvalues --   -0.88481  -0.86717  -0.86412  -0.84662  -0.83039
 Alpha  occ. eigenvalues --   -0.74599  -0.74110  -0.73106  -0.72856  -0.72339
 Alpha  occ. eigenvalues --   -0.72325  -0.71832  -0.70958  -0.70577  -0.70124
 Alpha  occ. eigenvalues --   -0.69624  -0.68806  -0.68305  -0.67682  -0.67080
 Alpha  occ. eigenvalues --   -0.66463  -0.66236  -0.65383  -0.64904  -0.64250
 Alpha  occ. eigenvalues --   -0.64029  -0.62639  -0.62068  -0.61420  -0.60897
 Alpha  occ. eigenvalues --   -0.60254  -0.60011  -0.59610  -0.59375  -0.58670
 Alpha  occ. eigenvalues --   -0.58182  -0.57570  -0.56543  -0.55859  -0.54307
 Alpha  occ. eigenvalues --   -0.53981  -0.53543  -0.52720  -0.52208  -0.51391
 Alpha  occ. eigenvalues --   -0.51263  -0.51193  -0.50420  -0.50218  -0.50088
 Alpha  occ. eigenvalues --   -0.49844  -0.49509  -0.48631  -0.47968  -0.46478
 Alpha  occ. eigenvalues --   -0.46288  -0.45957  -0.45542  -0.45224  -0.44190
 Alpha  occ. eigenvalues --   -0.43482  -0.43163  -0.42859  -0.42556  -0.42322
 Alpha  occ. eigenvalues --   -0.42093  -0.41761  -0.41472  -0.41221  -0.41071
 Alpha  occ. eigenvalues --   -0.40930  -0.40791  -0.40569  -0.40393  -0.40090
 Alpha  occ. eigenvalues --   -0.39984  -0.39802  -0.39737  -0.39448  -0.39395
 Alpha  occ. eigenvalues --   -0.39296  -0.39135  -0.38842  -0.38422  -0.38140
 Alpha  occ. eigenvalues --   -0.37909  -0.37820  -0.37581  -0.37468  -0.37368
 Alpha  occ. eigenvalues --   -0.37160  -0.37039  -0.36946  -0.36674  -0.36568
 Alpha  occ. eigenvalues --   -0.36258  -0.36158  -0.36025  -0.35748  -0.35595
 Alpha  occ. eigenvalues --   -0.35429  -0.35356  -0.35036  -0.34976  -0.34772
 Alpha  occ. eigenvalues --   -0.34362  -0.34195  -0.34120  -0.34030  -0.33877
 Alpha  occ. eigenvalues --   -0.33608  -0.33578  -0.33469  -0.33418  -0.33219
 Alpha  occ. eigenvalues --   -0.33049  -0.32759  -0.32610  -0.32499  -0.32122
 Alpha  occ. eigenvalues --   -0.31889  -0.31759  -0.31616  -0.31569  -0.31521
 Alpha  occ. eigenvalues --   -0.30968  -0.30943  -0.30764  -0.30685  -0.30502
 Alpha  occ. eigenvalues --   -0.30367  -0.30296  -0.30227  -0.30022  -0.29962
 Alpha  occ. eigenvalues --   -0.29718  -0.29383  -0.29192  -0.29153  -0.29084
 Alpha  occ. eigenvalues --   -0.28925  -0.28794  -0.28423  -0.28286  -0.28180
 Alpha  occ. eigenvalues --   -0.27978  -0.27441  -0.27233  -0.26577  -0.26320
 Alpha  occ. eigenvalues --   -0.26122  -0.25998  -0.25862  -0.25802  -0.25739
 Alpha  occ. eigenvalues --   -0.25394  -0.24950  -0.24509  -0.23567  -0.23448
 Alpha  occ. eigenvalues --   -0.23274  -0.22665  -0.22183  -0.21233  -0.20753
 Alpha  occ. eigenvalues --   -0.20120  -0.19641  -0.18828  -0.18233  -0.17212
 Alpha  occ. eigenvalues --   -0.15704
 Alpha virt. eigenvalues --   -0.11624  -0.06845  -0.06322  -0.04724  -0.04644
 Alpha virt. eigenvalues --   -0.02962  -0.02741  -0.01557  -0.00722   0.00031
 Alpha virt. eigenvalues --    0.00981   0.01363   0.02137   0.02556   0.02729

 Mulliken charges:
               1
     1  Mg   0.702346
     2  C    0.020785
     3  C   -0.051696
     4  C   -0.030650
     5  C   -0.093670
     6  N   -0.176818
     7  C   -0.081476
     8  C    0.027086
     9  C    0.020329
    10  C    0.002830
    11  C    0.096460
    12  C    0.079129
    13  C    0.203927
    14  C    0.091687
    15  O   -0.177656
    16  O   -0.304057
    17  N   -0.322387
    18  C    0.158570
    19  C   -0.185260
    20  C    0.003663
    21  C    0.120572
    22  C    0.200990
    23  C   -0.064594
    24  O   -0.167593
    25  C    0.141786
    26  N   -0.230344
    27  C   -0.002893
    28  C    0.020079
    29  C    0.016621
    30  C    0.079560
    31  C    0.134260
    32  C    0.073488
    33  C    0.087747
    34  N   -0.312679
    35  C    0.122883
    36  C   -0.170461
    37  C    0.158731
    38  C    0.026496
    39  C    0.167841
    40  C   -0.044163
    41  O   -0.172919
    42  C    0.081944
    43  C    0.115006
    44  O   -0.165714
    45  O   -0.292195
    46  C    0.202040
    47  C    0.314868
    48  C   -0.083326
    49  C   -0.204426
    50  C    0.157202
    51  C    0.133705
    52  C    0.103493
    53  C    0.092318
    54  C   -0.067674
    55  C    0.125331
    56  C    0.058087
    57  C    0.106466
    58  C    0.071565
    59  C   -0.101515
    60  C    0.107328
    61  C    0.150318
    62  C    0.037131
    63  C    0.087695
    64  C   -0.068121
    65  C    0.092607
    66  C    0.102377
    67  H   -0.060820
    68  H   -0.050386
    69  H   -0.045330
    70  H   -0.018949
    71  H   -0.022166
    72  H   -0.002696
    73  H   -0.012130
    74  H    0.010285
    75  H   -0.032793
    76  H   -0.016061
    77  H   -0.010097
    78  H    0.001531
    79  H   -0.008104
    80  H    0.003092
    81  H   -0.013717
    82  H   -0.011158
    83  H    0.009403
    84  H    0.012903
    85  H   -0.035952
    86  H   -0.043293
    87  H    0.008162
    88  H   -0.009730
    89  H    0.001399
    90  H   -0.012838
    91  H   -0.032329
    92  H   -0.006434
    93  H   -0.000246
    94  H   -0.005582
    95  H   -0.002963
    96  H   -0.025801
    97  H    0.019233
    98  H   -0.010751
    99  H    0.011687
   100  H    0.024353
   101  H    0.024512
   102  H   -0.004001
   103  H   -0.003774
   104  H   -0.040633
   105  H    0.001310
   106  H   -0.023566
   107  H    0.003310
   108  H    0.000142
   109  H   -0.049833
   110  H   -0.026024
   111  H   -0.020653
   112  H   -0.045968
   113  H   -0.027501
   114  H   -0.049091
   115  H   -0.034188
   116  H   -0.033094
   117  H   -0.010761
   118  H   -0.026357
   119  H   -0.045028
   120  H   -0.031296
   121  H   -0.023978
   122  H   -0.026673
   123  H   -0.040690
   124  H   -0.033884
   125  H   -0.015554
   126  H   -0.006093
   127  H   -0.009731
   128  H   -0.027952
   129  H   -0.029779
   130  H   -0.030847
   131  H   -0.029138
   132  H   -0.035309
   133  H   -0.039066
   134  H   -0.031375
   135  H   -0.019794
   136  H   -0.024947
   137  H   -0.023440
   138  H   -0.015191
   139  H   -0.010019
   140  H   -0.020837
 Sum of Mulliken charges =  -0.00000

 Dipole moment (field-independent basis, Debye):
    X=             -5.5241    Y=              2.7203    Z=              2.2248  Tot=              6.5471
 Quadrupole moment (field-independent basis, Debye-Ang):
   XX=           -403.2224   YY=           -430.3030   ZZ=           -402.9551
   XY=             36.7502   XZ=             25.0057   YZ=              0.2697

 Normal termination of Gaussian 16 at Wed May  4 12:30:50 2022.
