 Gaussian 16, Revision A.03,
 Gaussian 16:  ES64L-G16RevA.03 25-Dec-2016

 -----------------------------------
 #p cam-b3lyp/Def2SVP td=(nstates=5)
 -----------------------------------

 --------------------------------------------------------
 step_1701_chromophore_21 TDDFT with cam-b3lyp functional
 --------------------------------------------------------
 Symbolic Z-matrix:
 Charge =  0 Multiplicity = 1

                         Standard orientation:
 ---------------------------------------------------------------------
 Center     Atomic      Atomic             Coordinates (Angstroms)
 Number     Number       Type             X           Y           Z
 ---------------------------------------------------------------------
      1         12           0        5.104303    1.096825    0.109912
      2          6           0        5.051453   -2.395980    0.259760
      3          6           0        1.593453    1.006683   -0.360868
      4          6           0        5.192599    4.478640   -0.150912
      5          6           0        8.568380    1.102702    0.229148
      6          7           0        3.496862   -0.466050   -0.009739
      7          6           0        3.734475   -1.802699    0.304018
      8          6           0        2.377467   -2.585700    0.415745
      9          6           0        1.385277   -1.541163   -0.139731
     10          6           0        2.205245   -0.255528   -0.179811
     11          6           0        0.886482   -1.828954   -1.576592
     12          6           0        2.146710   -3.037132    1.861075
     13          6           0        0.921295   -4.011638    2.140399
     14          6           0       -0.027165   -4.347921    0.939402
     15          8           0        0.307472   -5.149897    0.098305
     16          8           0       -1.234952   -3.574709    0.872257
     17          7           0        3.653563    2.530638   -0.312898
     18          6           0        2.268861    2.308526   -0.371024
     19          6           0        1.666322    3.575633   -0.789602
     20          6           0        2.709253    4.604582   -0.890429
     21          6           0        3.950937    3.884954   -0.493393
     22          6           0        0.233809    3.836779   -1.116552
     23          6           0        2.688960    6.083003   -1.360177
     24          8           0        3.714383    6.752380   -1.316394
     25          6           0        1.448973    6.713940   -1.824947
     26          7           0        6.527803    2.587235    0.229825
     27          6           0        6.346537    3.931040    0.214805
     28          6           0        7.666206    4.662557    0.446031
     29          6           0        8.631617    3.525588    0.715219
     30          6           0        7.823845    2.266608    0.335482
     31          6           0        7.979420    5.763032   -0.602374
     32          6           0        9.310424    3.438943    2.139440
     33          6           0       10.555916    4.298596    2.341190
     34          7           0        6.543007   -0.333647    0.211977
     35          6           0        7.969475   -0.184634    0.141396
     36          6           0        8.556762   -1.552746    0.048633
     37          6           0        7.492399   -2.461055    0.053895
     38          6           0        6.280063   -1.644070    0.148453
     39          6           0       10.016685   -1.806967    0.008199
     40          6           0        7.009920   -3.826885    0.086545
     41          8           0        7.670592   -4.895684   -0.026632
     42          6           0        5.391873   -3.860993    0.173995
     43          6           0        4.908423   -4.652899   -1.017873
     44          8           0        5.282270   -4.561942   -2.184027
     45          8           0        4.065120   -5.649619   -0.533616
     46          6           0        3.452745   -6.576241   -1.511337
     47          6           0       -2.029155   -4.002868   -0.300445
     48          6           0       -3.390973   -3.351429   -0.254478
     49          6           0       -4.162800   -2.914929   -1.284233
     50          6           0       -3.804385   -3.339943   -2.668122
     51          6           0       -5.480995   -2.243108   -0.993187
     52          6           0       -5.416006   -0.816926   -0.401029
     53          6           0       -6.023906   -0.761383    1.021924
     54          6           0       -7.255910    0.089929    1.256782
     55          6           0       -7.388756    0.654665    2.685506
     56          6           0       -8.573549   -0.599065    0.727011
     57          6           0       -9.562393    0.356971    0.126566
     58          6           0      -10.988566   -0.257047    0.376925
     59          6           0      -12.004029    0.699115    1.115106
     60          6           0      -11.619300    0.822894    2.651379
     61          6           0      -13.431903    0.224657    0.966930
     62          6           0      -14.364848    1.464210    0.699896
     63          6           0      -15.291842    1.158854   -0.551496
     64          6           0      -16.499240    2.035263   -0.532246
     65          6           0      -17.807239    1.311886   -1.054962
     66          6           0      -16.138263    3.238119   -1.447470
     67          1           0        0.518961    0.974737   -0.547587
     68          1           0        5.262840    5.568584   -0.146055
     69          1           0        9.648917    1.123806    0.382837
     70          1           0        2.582469   -3.509731   -0.124723
     71          1           0        0.488036   -1.468082    0.474204
     72          1           0        1.361319   -1.153783   -2.288814
     73          1           0       -0.169062   -1.594703   -1.715241
     74          1           0        0.958081   -2.870328   -1.890784
     75          1           0        1.983944   -2.087653    2.371037
     76          1           0        3.105683   -3.363996    2.264286
     77          1           0        0.395005   -3.626529    3.013430
     78          1           0        1.389968   -4.943326    2.459442
     79          1           0        0.211505    4.247222   -2.126129
     80          1           0       -0.123757    4.644737   -0.478017
     81          1           0       -0.312315    2.892898   -1.110700
     82          1           0        1.688433    7.725216   -2.156616
     83          1           0        0.811693    6.800820   -0.945129
     84          1           0        0.947183    6.206055   -2.648382
     85          1           0        7.540747    5.266503    1.344968
     86          1           0        9.395975    3.740763   -0.031577
     87          1           0        7.436552    5.640002   -1.539634
     88          1           0        9.057971    5.759460   -0.763511
     89          1           0        7.645000    6.670441   -0.099573
     90          1           0        9.378720    2.388250    2.420994
     91          1           0        8.604349    3.951168    2.793243
     92          1           0       10.662132    4.928628    1.458057
     93          1           0       11.337396    3.554990    2.499798
     94          1           0       10.457935    4.936959    3.219357
     95          1           0       10.425201   -2.213376    0.933154
     96          1           0       10.600898   -0.887955   -0.039650
     97          1           0       10.255159   -2.551775   -0.751427
     98          1           0        4.966089   -4.372161    1.036889
     99          1           0        3.398262   -6.188501   -2.529464
    100          1           0        2.400674   -6.687952   -1.248323
    101          1           0        4.009116   -7.512646   -1.533680
    102          1           0       -2.189533   -5.079529   -0.242264
    103          1           0       -1.442798   -3.893194   -1.212256
    104          1           0       -3.804065   -3.108554    0.723862
    105          1           0       -3.274763   -2.573389   -3.234095
    106          1           0       -4.760639   -3.433922   -3.181664
    107          1           0       -3.332965   -4.321415   -2.721013
    108          1           0       -6.043245   -2.945508   -0.376978
    109          1           0       -5.985345   -2.138487   -1.953099
    110          1           0       -5.985667   -0.204238   -1.100439
    111          1           0       -4.372162   -0.509574   -0.346254
    112          1           0       -5.217820   -0.303458    1.595100
    113          1           0       -6.228543   -1.744808    1.444712
    114          1           0       -7.107287    0.990797    0.662854
    115          1           0       -8.390255    0.485439    3.080016
    116          1           0       -7.459188    1.741832    2.679576
    117          1           0       -6.586057    0.432662    3.388376
    118          1           0       -8.913004   -1.242073    1.538803
    119          1           0       -8.333923   -1.318042   -0.056415
    120          1           0       -9.497488    0.397687   -0.960747
    121          1           0       -9.218764    1.317446    0.511034
    122          1           0      -10.908904   -1.198753    0.920223
    123          1           0      -11.324538   -0.534466   -0.622176
    124          1           0      -11.893932    1.686245    0.664958
    125          1           0      -12.514786    0.579698    3.224816
    126          1           0      -11.156743    1.802873    2.765708
    127          1           0      -10.857495    0.087176    2.907766
    128          1           0      -13.784052   -0.244064    1.885592
    129          1           0      -13.468749   -0.431435    0.096609
    130          1           0      -13.781827    2.357130    0.472952
    131          1           0      -14.919275    1.739252    1.597273
    132          1           0      -15.508759    0.092285   -0.602286
    133          1           0      -14.760073    1.306053   -1.492700
    134          1           0      -16.671797    2.413777    0.476085
    135          1           0      -18.193995    1.668486   -2.010025
    136          1           0      -18.643838    1.442133   -0.368188
    137          1           0      -17.754317    0.224301   -1.106930
    138          1           0      -15.758980    2.839498   -2.388417
    139          1           0      -15.424946    3.841411   -0.886095
    140          1           0      -17.056173    3.765822   -1.708567
 ---------------------------------------------------------------------

 SCF Done:  E(RCAM-B3LYP) =  -3007.16209856     A.U. after   19 cycles

 Excitation energies and oscillator strengths:

 Excited State   1:      Singlet-A      1.6417 eV  755.20 nm  f=0.3859  <S**2>=0.000
     245 -> 248       -0.17699
     246 -> 247        0.68718
     245 <- 248       -0.10986
 This state for optimization and/or second-order correction.
 Total Energy, E(TD-HF/TD-DFT) =  -3007.10176573
 Copying the excited state density for this state as the 1-particle RhoCI density.

 Excited State   2:      Singlet-A      2.2085 eV  561.39 nm  f=0.1150  <S**2>=0.000
     245 -> 247        0.63640
     246 -> 248        0.29630

 Excited State   3:      Singlet-A      3.1522 eV  393.33 nm  f=0.0015  <S**2>=0.000
     244 -> 247        0.68686

 Excited State   4:      Singlet-A      3.2957 eV  376.20 nm  f=0.0092  <S**2>=0.000
     240 -> 247        0.19666
     240 -> 249       -0.13604
     241 -> 247        0.49040
     241 -> 249       -0.29504
     241 -> 250       -0.16605
     242 -> 247       -0.15558
     246 -> 248        0.11901

 Excited State   5:      Singlet-A      3.4646 eV  357.86 nm  f=0.4907  <S**2>=0.000
     241 -> 247       -0.15691
     242 -> 247       -0.29888
     245 -> 247       -0.24418
     246 -> 248        0.55620

 The electronic state is 1-A.
 Alpha  occ. eigenvalues --  -46.87528 -19.25981 -19.24595 -19.22067 -19.19504
 Alpha  occ. eigenvalues --  -19.18680 -19.18469 -14.42451 -14.41388 -14.39887
 Alpha  occ. eigenvalues --  -14.39419 -10.41164 -10.39188 -10.35409 -10.35205
 Alpha  occ. eigenvalues --  -10.32367 -10.31845 -10.30804 -10.30797 -10.30780
 Alpha  occ. eigenvalues --  -10.30639 -10.30602 -10.30324 -10.29807 -10.29458
 Alpha  occ. eigenvalues --  -10.29016 -10.28974 -10.28816 -10.28737 -10.28524
 Alpha  occ. eigenvalues --  -10.28042 -10.28011 -10.27916 -10.27879 -10.27062
 Alpha  occ. eigenvalues --  -10.27004 -10.26926 -10.26736 -10.26673 -10.26586
 Alpha  occ. eigenvalues --  -10.26235 -10.26199 -10.26135 -10.26034 -10.26000
 Alpha  occ. eigenvalues --  -10.25860 -10.25805 -10.25743 -10.25691 -10.25616
 Alpha  occ. eigenvalues --  -10.25602 -10.25581 -10.25516 -10.25432 -10.25062
 Alpha  occ. eigenvalues --  -10.25058 -10.24989 -10.24915 -10.24885 -10.24728
 Alpha  occ. eigenvalues --  -10.24660 -10.24632 -10.24514 -10.24454 -10.24402
 Alpha  occ. eigenvalues --  -10.24365  -3.16235  -1.91147  -1.90676  -1.90557
 Alpha  occ. eigenvalues --   -1.16532  -1.14718  -1.09964  -1.08942  -1.07303
 Alpha  occ. eigenvalues --   -1.06595  -1.04437  -1.04151  -1.02285  -1.00421
 Alpha  occ. eigenvalues --   -0.91809  -0.91025  -0.89931  -0.89661  -0.89074
 Alpha  occ. eigenvalues --   -0.89000  -0.88454  -0.87557  -0.87235  -0.86711
 Alpha  occ. eigenvalues --   -0.86185  -0.85132  -0.84610  -0.83846  -0.83214
 Alpha  occ. eigenvalues --   -0.82552  -0.82441  -0.81355  -0.80698  -0.80068
 Alpha  occ. eigenvalues --   -0.79847  -0.78352  -0.77703  -0.76922  -0.76296
 Alpha  occ. eigenvalues --   -0.75678  -0.75353  -0.74886  -0.74652  -0.73884
 Alpha  occ. eigenvalues --   -0.73246  -0.72612  -0.71425  -0.70673  -0.68940
 Alpha  occ. eigenvalues --   -0.68511  -0.68171  -0.67130  -0.66631  -0.65587
 Alpha  occ. eigenvalues --   -0.65461  -0.65125  -0.64511  -0.64185  -0.64111
 Alpha  occ. eigenvalues --   -0.63782  -0.63509  -0.62513  -0.61673  -0.60124
 Alpha  occ. eigenvalues --   -0.59890  -0.59520  -0.58955  -0.58578  -0.57679
 Alpha  occ. eigenvalues --   -0.57015  -0.56686  -0.56079  -0.55695  -0.55420
 Alpha  occ. eigenvalues --   -0.55143  -0.54742  -0.54650  -0.54287  -0.53903
 Alpha  occ. eigenvalues --   -0.53622  -0.53448  -0.53294  -0.53037  -0.52917
 Alpha  occ. eigenvalues --   -0.52838  -0.52564  -0.52334  -0.52269  -0.51962
 Alpha  occ. eigenvalues --   -0.51679  -0.51632  -0.51436  -0.51033  -0.50607
 Alpha  occ. eigenvalues --   -0.50396  -0.50148  -0.49929  -0.49799  -0.49712
 Alpha  occ. eigenvalues --   -0.49406  -0.49256  -0.49236  -0.48908  -0.48794
 Alpha  occ. eigenvalues --   -0.48574  -0.48401  -0.48383  -0.48061  -0.47762
 Alpha  occ. eigenvalues --   -0.47608  -0.47423  -0.47094  -0.46984  -0.46699
 Alpha  occ. eigenvalues --   -0.46376  -0.46135  -0.45930  -0.45824  -0.45609
 Alpha  occ. eigenvalues --   -0.45397  -0.45298  -0.45194  -0.45070  -0.44925
 Alpha  occ. eigenvalues --   -0.44691  -0.44644  -0.44491  -0.44342  -0.43910
 Alpha  occ. eigenvalues --   -0.43468  -0.43382  -0.43338  -0.43115  -0.43064
 Alpha  occ. eigenvalues --   -0.42347  -0.42236  -0.42215  -0.41945  -0.41840
 Alpha  occ. eigenvalues --   -0.41787  -0.41604  -0.41524  -0.41453  -0.41311
 Alpha  occ. eigenvalues --   -0.41174  -0.41151  -0.40789  -0.40285  -0.40185
 Alpha  occ. eigenvalues --   -0.40034  -0.39890  -0.39390  -0.39276  -0.39219
 Alpha  occ. eigenvalues --   -0.38895  -0.38311  -0.38073  -0.37877  -0.37332
 Alpha  occ. eigenvalues --   -0.37280  -0.36894  -0.36829  -0.36534  -0.36494
 Alpha  occ. eigenvalues --   -0.36003  -0.35900  -0.35535  -0.35450  -0.34246
 Alpha  occ. eigenvalues --   -0.34148  -0.32972  -0.32597  -0.31144  -0.30961
 Alpha  occ. eigenvalues --   -0.30442  -0.30176  -0.29689  -0.28855  -0.24088
 Alpha  occ. eigenvalues --   -0.20927
 Alpha virt. eigenvalues --   -0.08859  -0.01701   0.00138   0.02219   0.03171
 Alpha virt. eigenvalues --    0.03817   0.04378   0.04880   0.05715   0.06715
 Alpha virt. eigenvalues --    0.07646   0.08061   0.08700   0.08947   0.09202

 Mulliken charges:
               1
     1  Mg   0.837374
     2  C   -0.006704
     3  C   -0.060601
     4  C   -0.058004
     5  C   -0.098936
     6  N   -0.243954
     7  C   -0.040740
     8  C   -0.028055
     9  C   -0.038326
    10  C    0.015502
    11  C    0.043313
    12  C    0.037836
    13  C    0.138530
    14  C    0.160676
    15  O   -0.216249
    16  O   -0.367169
    17  N   -0.408180
    18  C    0.168125
    19  C   -0.188983
    20  C   -0.064707
    21  C    0.149248
    22  C    0.140460
    23  C    0.017016
    24  O   -0.209339
    25  C    0.054967
    26  N   -0.309630
    27  C    0.023989
    28  C   -0.033267
    29  C   -0.043218
    30  C    0.096199
    31  C    0.075558
    32  C    0.019866
    33  C    0.027411
    34  N   -0.402245
    35  C    0.127496
    36  C   -0.169011
    37  C    0.084774
    38  C    0.065619
    39  C    0.116764
    40  C    0.052307
    41  O   -0.209809
    42  C    0.010085
    43  C    0.204473
    44  O   -0.203957
    45  O   -0.358095
    46  C    0.166626
    47  C    0.278875
    48  C   -0.100226
    49  C   -0.220783
    50  C    0.088744
    51  C    0.072108
    52  C    0.048284
    53  C    0.037453
    54  C   -0.124209
    55  C    0.065303
    56  C    0.007386
    57  C    0.051584
    58  C    0.021551
    59  C   -0.153533
    60  C    0.053193
    61  C    0.089383
    62  C   -0.007586
    63  C    0.030841
    64  C   -0.134005
    65  C    0.033713
    66  C    0.045902
    67  H   -0.025409
    68  H   -0.009169
    69  H   -0.010936
    70  H    0.013686
    71  H    0.015254
    72  H    0.025049
    73  H    0.009871
    74  H    0.032196
    75  H   -0.002049
    76  H    0.013048
    77  H    0.024481
    78  H    0.034309
    79  H    0.017058
    80  H    0.028503
    81  H    0.012864
    82  H    0.025544
    83  H    0.036383
    84  H    0.040570
    85  H    0.000157
    86  H   -0.007794
    87  H    0.034544
    88  H    0.012617
    89  H    0.024389
    90  H    0.016120
    91  H   -0.003505
    92  H    0.014305
    93  H    0.022199
    94  H    0.018498
    95  H    0.024874
    96  H   -0.000436
    97  H    0.045734
    98  H    0.034203
    99  H    0.036996
   100  H    0.045568
   101  H    0.045905
   102  H    0.025127
   103  H    0.022182
   104  H   -0.006787
   105  H    0.026286
   106  H    0.002006
   107  H    0.027157
   108  H    0.028697
   109  H   -0.017691
   110  H    0.002310
   111  H    0.009906
   112  H   -0.014497
   113  H   -0.001755
   114  H   -0.016537
   115  H   -0.011359
   116  H   -0.007723
   117  H    0.015220
   118  H    0.000638
   119  H   -0.016752
   120  H   -0.001655
   121  H    0.001870
   122  H    0.000921
   123  H   -0.011175
   124  H   -0.002601
   125  H    0.008240
   126  H    0.016169
   127  H    0.009479
   128  H    0.000693
   129  H   -0.001129
   130  H   -0.005005
   131  H   -0.001411
   132  H   -0.006079
   133  H   -0.010446
   134  H    0.000658
   135  H    0.004339
   136  H   -0.000017
   137  H    0.001232
   138  H    0.007407
   139  H    0.013202
   140  H    0.004243
 Sum of Mulliken charges =  -0.00000

 Dipole moment (field-independent basis, Debye):
    X=             -5.8151    Y=              2.8197    Z=              2.2470  Tot=              6.8422
 Quadrupole moment (field-independent basis, Debye-Ang):
   XX=           -402.9128   YY=           -428.0088   ZZ=           -402.4217
   XY=             36.6604   XZ=             26.9829   YZ=             -0.7514

 Normal termination of Gaussian 16 at Wed May  4 11:36:47 2022.
