 Gaussian 16, Revision A.03,
 Gaussian 16:  ES64L-G16RevA.03 25-Dec-2016

 ---------------------------------
 #p PBE1PBE/Def2SVP td=(nstates=5)
 ---------------------------------

 ------------------------------------------------------
 step_1701_chromophore_21 TDDFT with PBE1PBE functional
 ------------------------------------------------------
 Symbolic Z-matrix:
 Charge =  0 Multiplicity = 1

                         Standard orientation:
 ---------------------------------------------------------------------
 Center     Atomic      Atomic             Coordinates (Angstroms)
 Number     Number       Type             X           Y           Z
 ---------------------------------------------------------------------
      1         12           0        5.104303    1.096825    0.109912
      2          6           0        5.051453   -2.395980    0.259760
      3          6           0        1.593453    1.006683   -0.360868
      4          6           0        5.192599    4.478640   -0.150912
      5          6           0        8.568380    1.102702    0.229148
      6          7           0        3.496862   -0.466050   -0.009739
      7          6           0        3.734475   -1.802699    0.304018
      8          6           0        2.377467   -2.585700    0.415745
      9          6           0        1.385277   -1.541163   -0.139731
     10          6           0        2.205245   -0.255528   -0.179811
     11          6           0        0.886482   -1.828954   -1.576592
     12          6           0        2.146710   -3.037132    1.861075
     13          6           0        0.921295   -4.011638    2.140399
     14          6           0       -0.027165   -4.347921    0.939402
     15          8           0        0.307472   -5.149897    0.098305
     16          8           0       -1.234952   -3.574709    0.872257
     17          7           0        3.653563    2.530638   -0.312898
     18          6           0        2.268861    2.308526   -0.371024
     19          6           0        1.666322    3.575633   -0.789602
     20          6           0        2.709253    4.604582   -0.890429
     21          6           0        3.950937    3.884954   -0.493393
     22          6           0        0.233809    3.836779   -1.116552
     23          6           0        2.688960    6.083003   -1.360177
     24          8           0        3.714383    6.752380   -1.316394
     25          6           0        1.448973    6.713940   -1.824947
     26          7           0        6.527803    2.587235    0.229825
     27          6           0        6.346537    3.931040    0.214805
     28          6           0        7.666206    4.662557    0.446031
     29          6           0        8.631617    3.525588    0.715219
     30          6           0        7.823845    2.266608    0.335482
     31          6           0        7.979420    5.763032   -0.602374
     32          6           0        9.310424    3.438943    2.139440
     33          6           0       10.555916    4.298596    2.341190
     34          7           0        6.543007   -0.333647    0.211977
     35          6           0        7.969475   -0.184634    0.141396
     36          6           0        8.556762   -1.552746    0.048633
     37          6           0        7.492399   -2.461055    0.053895
     38          6           0        6.280063   -1.644070    0.148453
     39          6           0       10.016685   -1.806967    0.008199
     40          6           0        7.009920   -3.826885    0.086545
     41          8           0        7.670592   -4.895684   -0.026632
     42          6           0        5.391873   -3.860993    0.173995
     43          6           0        4.908423   -4.652899   -1.017873
     44          8           0        5.282270   -4.561942   -2.184027
     45          8           0        4.065120   -5.649619   -0.533616
     46          6           0        3.452745   -6.576241   -1.511337
     47          6           0       -2.029155   -4.002868   -0.300445
     48          6           0       -3.390973   -3.351429   -0.254478
     49          6           0       -4.162800   -2.914929   -1.284233
     50          6           0       -3.804385   -3.339943   -2.668122
     51          6           0       -5.480995   -2.243108   -0.993187
     52          6           0       -5.416006   -0.816926   -0.401029
     53          6           0       -6.023906   -0.761383    1.021924
     54          6           0       -7.255910    0.089929    1.256782
     55          6           0       -7.388756    0.654665    2.685506
     56          6           0       -8.573549   -0.599065    0.727011
     57          6           0       -9.562393    0.356971    0.126566
     58          6           0      -10.988566   -0.257047    0.376925
     59          6           0      -12.004029    0.699115    1.115106
     60          6           0      -11.619300    0.822894    2.651379
     61          6           0      -13.431903    0.224657    0.966930
     62          6           0      -14.364848    1.464210    0.699896
     63          6           0      -15.291842    1.158854   -0.551496
     64          6           0      -16.499240    2.035263   -0.532246
     65          6           0      -17.807239    1.311886   -1.054962
     66          6           0      -16.138263    3.238119   -1.447470
     67          1           0        0.518961    0.974737   -0.547587
     68          1           0        5.262840    5.568584   -0.146055
     69          1           0        9.648917    1.123806    0.382837
     70          1           0        2.582469   -3.509731   -0.124723
     71          1           0        0.488036   -1.468082    0.474204
     72          1           0        1.361319   -1.153783   -2.288814
     73          1           0       -0.169062   -1.594703   -1.715241
     74          1           0        0.958081   -2.870328   -1.890784
     75          1           0        1.983944   -2.087653    2.371037
     76          1           0        3.105683   -3.363996    2.264286
     77          1           0        0.395005   -3.626529    3.013430
     78          1           0        1.389968   -4.943326    2.459442
     79          1           0        0.211505    4.247222   -2.126129
     80          1           0       -0.123757    4.644737   -0.478017
     81          1           0       -0.312315    2.892898   -1.110700
     82          1           0        1.688433    7.725216   -2.156616
     83          1           0        0.811693    6.800820   -0.945129
     84          1           0        0.947183    6.206055   -2.648382
     85          1           0        7.540747    5.266503    1.344968
     86          1           0        9.395975    3.740763   -0.031577
     87          1           0        7.436552    5.640002   -1.539634
     88          1           0        9.057971    5.759460   -0.763511
     89          1           0        7.645000    6.670441   -0.099573
     90          1           0        9.378720    2.388250    2.420994
     91          1           0        8.604349    3.951168    2.793243
     92          1           0       10.662132    4.928628    1.458057
     93          1           0       11.337396    3.554990    2.499798
     94          1           0       10.457935    4.936959    3.219357
     95          1           0       10.425201   -2.213376    0.933154
     96          1           0       10.600898   -0.887955   -0.039650
     97          1           0       10.255159   -2.551775   -0.751427
     98          1           0        4.966089   -4.372161    1.036889
     99          1           0        3.398262   -6.188501   -2.529464
    100          1           0        2.400674   -6.687952   -1.248323
    101          1           0        4.009116   -7.512646   -1.533680
    102          1           0       -2.189533   -5.079529   -0.242264
    103          1           0       -1.442798   -3.893194   -1.212256
    104          1           0       -3.804065   -3.108554    0.723862
    105          1           0       -3.274763   -2.573389   -3.234095
    106          1           0       -4.760639   -3.433922   -3.181664
    107          1           0       -3.332965   -4.321415   -2.721013
    108          1           0       -6.043245   -2.945508   -0.376978
    109          1           0       -5.985345   -2.138487   -1.953099
    110          1           0       -5.985667   -0.204238   -1.100439
    111          1           0       -4.372162   -0.509574   -0.346254
    112          1           0       -5.217820   -0.303458    1.595100
    113          1           0       -6.228543   -1.744808    1.444712
    114          1           0       -7.107287    0.990797    0.662854
    115          1           0       -8.390255    0.485439    3.080016
    116          1           0       -7.459188    1.741832    2.679576
    117          1           0       -6.586057    0.432662    3.388376
    118          1           0       -8.913004   -1.242073    1.538803
    119          1           0       -8.333923   -1.318042   -0.056415
    120          1           0       -9.497488    0.397687   -0.960747
    121          1           0       -9.218764    1.317446    0.511034
    122          1           0      -10.908904   -1.198753    0.920223
    123          1           0      -11.324538   -0.534466   -0.622176
    124          1           0      -11.893932    1.686245    0.664958
    125          1           0      -12.514786    0.579698    3.224816
    126          1           0      -11.156743    1.802873    2.765708
    127          1           0      -10.857495    0.087176    2.907766
    128          1           0      -13.784052   -0.244064    1.885592
    129          1           0      -13.468749   -0.431435    0.096609
    130          1           0      -13.781827    2.357130    0.472952
    131          1           0      -14.919275    1.739252    1.597273
    132          1           0      -15.508759    0.092285   -0.602286
    133          1           0      -14.760073    1.306053   -1.492700
    134          1           0      -16.671797    2.413777    0.476085
    135          1           0      -18.193995    1.668486   -2.010025
    136          1           0      -18.643838    1.442133   -0.368188
    137          1           0      -17.754317    0.224301   -1.106930
    138          1           0      -15.758980    2.839498   -2.388417
    139          1           0      -15.424946    3.841411   -0.886095
    140          1           0      -17.056173    3.765822   -1.708567
 ---------------------------------------------------------------------

 SCF Done:  E(RPBE1PBE) =  -3005.35074389     A.U. after   15 cycles

 Excitation energies and oscillator strengths:

 Excited State   1:      Singlet-A      1.8087 eV  685.47 nm  f=0.3714  <S**2>=0.000
     245 -> 248       -0.17107
     246 -> 247        0.69538
     246 <- 247       -0.11652
 This state for optimization and/or second-order correction.
 Total Energy, E(TD-HF/TD-DFT) =  -3005.28427395
 Copying the excited state density for this state as the 1-particle RhoCI density.

 Excited State   2:      Singlet-A      2.2048 eV  562.33 nm  f=0.1119  <S**2>=0.000
     245 -> 247        0.64887
     246 -> 248        0.26846

 Excited State   3:      Singlet-A      2.8159 eV  440.30 nm  f=0.0038  <S**2>=0.000
     242 -> 247        0.22680
     244 -> 247        0.65821

 Excited State   4:      Singlet-A      2.8591 eV  433.65 nm  f=0.0006  <S**2>=0.000
     242 -> 247        0.62174
     242 -> 249       -0.17769
     244 -> 247       -0.23526

 Excited State   5:      Singlet-A      3.1515 eV  393.42 nm  f=0.0020  <S**2>=0.000
     240 -> 247        0.56934
     240 -> 249        0.12212
     241 -> 247        0.36962

 The electronic state is 1-A.
 Alpha  occ. eigenvalues --  -46.90940 -19.26676 -19.25266 -19.22300 -19.19701
 Alpha  occ. eigenvalues --  -19.18942 -19.18655 -14.41909 -14.40934 -14.39533
 Alpha  occ. eigenvalues --  -14.39162 -10.38234 -10.36189 -10.32535 -10.32362
 Alpha  occ. eigenvalues --  -10.29777 -10.29606 -10.28526 -10.28510 -10.28413
 Alpha  occ. eigenvalues --  -10.28333 -10.28077 -10.28012 -10.27474 -10.27182
 Alpha  occ. eigenvalues --  -10.26625 -10.26604 -10.26477 -10.26306 -10.26263
 Alpha  occ. eigenvalues --  -10.25837 -10.25696 -10.25622 -10.25521 -10.24772
 Alpha  occ. eigenvalues --  -10.24709 -10.24668 -10.24506 -10.24440 -10.24172
 Alpha  occ. eigenvalues --  -10.23899 -10.23782 -10.23502 -10.23435 -10.23423
 Alpha  occ. eigenvalues --  -10.23385 -10.23377 -10.23321 -10.23314 -10.23184
 Alpha  occ. eigenvalues --  -10.23157 -10.23150 -10.23147 -10.23013 -10.22657
 Alpha  occ. eigenvalues --  -10.22646 -10.22612 -10.22530 -10.22461 -10.22196
 Alpha  occ. eigenvalues --  -10.22134 -10.22090 -10.22070 -10.21932 -10.21853
 Alpha  occ. eigenvalues --  -10.21810  -3.13222  -1.86077  -1.85582  -1.85468
 Alpha  occ. eigenvalues --   -1.11297  -1.09453  -1.04729  -1.03818  -1.01983
 Alpha  occ. eigenvalues --   -1.01373  -0.99052  -0.98747  -0.96913  -0.95117
 Alpha  occ. eigenvalues --   -0.86090  -0.85166  -0.84048  -0.83867  -0.83309
 Alpha  occ. eigenvalues --   -0.83189  -0.82816  -0.81677  -0.81528  -0.80994
 Alpha  occ. eigenvalues --   -0.80447  -0.79343  -0.78823  -0.78126  -0.77505
 Alpha  occ. eigenvalues --   -0.76777  -0.76619  -0.75618  -0.74958  -0.74387
 Alpha  occ. eigenvalues --   -0.73992  -0.72603  -0.72046  -0.71250  -0.70471
 Alpha  occ. eigenvalues --   -0.69995  -0.69440  -0.69258  -0.68785  -0.68061
 Alpha  occ. eigenvalues --   -0.67545  -0.67031  -0.65778  -0.65080  -0.63171
 Alpha  occ. eigenvalues --   -0.62870  -0.62637  -0.61398  -0.61065  -0.60023
 Alpha  occ. eigenvalues --   -0.59706  -0.59611  -0.59049  -0.58635  -0.58314
 Alpha  occ. eigenvalues --   -0.58279  -0.57689  -0.56718  -0.56241  -0.54569
 Alpha  occ. eigenvalues --   -0.54410  -0.53990  -0.53547  -0.53220  -0.52294
 Alpha  occ. eigenvalues --   -0.51454  -0.51182  -0.50640  -0.50171  -0.49951
 Alpha  occ. eigenvalues --   -0.49607  -0.49267  -0.49156  -0.48724  -0.48434
 Alpha  occ. eigenvalues --   -0.48097  -0.47986  -0.47769  -0.47570  -0.47481
 Alpha  occ. eigenvalues --   -0.47352  -0.47102  -0.46889  -0.46769  -0.46447
 Alpha  occ. eigenvalues --   -0.46251  -0.46150  -0.45971  -0.45654  -0.45090
 Alpha  occ. eigenvalues --   -0.44944  -0.44695  -0.44563  -0.44393  -0.44292
 Alpha  occ. eigenvalues --   -0.44034  -0.43886  -0.43802  -0.43529  -0.43416
 Alpha  occ. eigenvalues --   -0.43218  -0.43032  -0.43028  -0.42723  -0.42392
 Alpha  occ. eigenvalues --   -0.42261  -0.42079  -0.41769  -0.41663  -0.41364
 Alpha  occ. eigenvalues --   -0.41062  -0.40808  -0.40626  -0.40437  -0.40388
 Alpha  occ. eigenvalues --   -0.40147  -0.40049  -0.39815  -0.39722  -0.39669
 Alpha  occ. eigenvalues --   -0.39422  -0.39327  -0.39248  -0.39107  -0.38682
 Alpha  occ. eigenvalues --   -0.38324  -0.38142  -0.38120  -0.37969  -0.37777
 Alpha  occ. eigenvalues --   -0.37272  -0.37099  -0.36944  -0.36686  -0.36664
 Alpha  occ. eigenvalues --   -0.36540  -0.36443  -0.36347  -0.36294  -0.36128
 Alpha  occ. eigenvalues --   -0.36048  -0.35926  -0.35632  -0.35124  -0.34973
 Alpha  occ. eigenvalues --   -0.34902  -0.34833  -0.34177  -0.34157  -0.34091
 Alpha  occ. eigenvalues --   -0.33605  -0.33078  -0.32978  -0.32806  -0.32358
 Alpha  occ. eigenvalues --   -0.32205  -0.31954  -0.31626  -0.31541  -0.31321
 Alpha  occ. eigenvalues --   -0.30876  -0.30850  -0.30443  -0.30328  -0.29491
 Alpha  occ. eigenvalues --   -0.29052  -0.28156  -0.27976  -0.26577  -0.25889
 Alpha  occ. eigenvalues --   -0.25774  -0.25278  -0.25017  -0.24532  -0.20984
 Alpha  occ. eigenvalues --   -0.18609
 Alpha virt. eigenvalues --   -0.11273  -0.05215  -0.04063  -0.02182  -0.01446
 Alpha virt. eigenvalues --   -0.00042   0.00273   0.00974   0.01712   0.03038
 Alpha virt. eigenvalues --    0.03483   0.04440   0.05041   0.05488   0.05672

 Mulliken charges:
               1
     1  Mg   0.992830
     2  C   -0.008521
     3  C   -0.053097
     4  C   -0.060890
     5  C   -0.083642
     6  N   -0.348798
     7  C    0.027437
     8  C   -0.111221
     9  C   -0.117908
    10  C    0.050022
    11  C   -0.007079
    12  C   -0.005566
    13  C    0.066707
    14  C    0.213396
    15  O   -0.246160
    16  O   -0.394231
    17  N   -0.517557
    18  C    0.200750
    19  C   -0.221751
    20  C   -0.104640
    21  C    0.184310
    22  C    0.074791
    23  C    0.064264
    24  O   -0.245730
    25  C   -0.019130
    26  N   -0.423430
    27  C    0.063442
    28  C   -0.104352
    29  C   -0.118842
    30  C    0.122559
    31  C    0.014550
    32  C   -0.040071
    33  C   -0.045743
    34  N   -0.525518
    35  C    0.148047
    36  C   -0.195388
    37  C    0.035525
    38  C    0.116243
    39  C    0.069273
    40  C    0.143792
    41  O   -0.252003
    42  C   -0.097190
    43  C    0.289534
    44  O   -0.239411
    45  O   -0.389073
    46  C    0.112891
    47  C    0.235313
    48  C   -0.108540
    49  C   -0.262309
    50  C    0.022007
    51  C    0.006288
    52  C   -0.011188
    53  C   -0.020117
    54  C   -0.214808
    55  C    0.005615
    56  C   -0.044047
    57  C   -0.009286
    58  C   -0.035720
    59  C   -0.236547
    60  C   -0.005250
    61  C    0.029112
    62  C   -0.063211
    63  C   -0.022987
    64  C   -0.231466
    65  C   -0.023112
    66  C   -0.017398
    67  H    0.006134
    68  H    0.024067
    69  H    0.019173
    70  H    0.061143
    71  H    0.051857
    72  H    0.053104
    73  H    0.037355
    74  H    0.057987
    75  H    0.031629
    76  H    0.046392
    77  H    0.055507
    78  H    0.066363
    79  H    0.046673
    80  H    0.057051
    81  H    0.041905
    82  H    0.053418
    83  H    0.063796
    84  H    0.066207
    85  H    0.039185
    86  H    0.031178
    87  H    0.062451
    88  H    0.040574
    89  H    0.050836
    90  H    0.048234
    91  H    0.030845
    92  H    0.042093
    93  H    0.049932
    94  H    0.046001
    95  H    0.052434
    96  H    0.026517
    97  H    0.072125
    98  H    0.071440
    99  H    0.057796
   100  H    0.067824
   101  H    0.067856
   102  H    0.053299
   103  H    0.049368
   104  H    0.025498
   105  H    0.054282
   106  H    0.030337
   107  H    0.053575
   108  H    0.059682
   109  H    0.015225
   110  H    0.034224
   111  H    0.041969
   112  H    0.019377
   113  H    0.030229
   114  H    0.023169
   115  H    0.019760
   116  H    0.019671
   117  H    0.041420
   118  H    0.031384
   119  H    0.019298
   120  H    0.031804
   121  H    0.033183
   122  H    0.033015
   123  H    0.021328
   124  H    0.035539
   125  H    0.035405
   126  H    0.042744
   127  H    0.037754
   128  H    0.033510
   129  H    0.031873
   130  H    0.026790
   131  H    0.029887
   132  H    0.025875
   133  H    0.022242
   134  H    0.037762
   135  H    0.030842
   136  H    0.027867
   137  H    0.028002
   138  H    0.034914
   139  H    0.042116
   140  H    0.032928
 Sum of Mulliken charges =  -0.00000

 Dipole moment (field-independent basis, Debye):
    X=             -5.8418    Y=              2.9916    Z=              2.2623  Tot=              6.9422
 Quadrupole moment (field-independent basis, Debye-Ang):
   XX=           -398.1196   YY=           -424.5532   ZZ=           -399.9107
   XY=             38.4272   XZ=             27.7448   YZ=             -0.3638

 Normal termination of Gaussian 16 at Wed May  4 11:54:02 2022.
