 Gaussian 16, Revision A.03,
 Gaussian 16:  ES64L-G16RevA.03 25-Dec-2016

 --------------------------------
 #p wB97XD/Def2SVP td=(nstates=5)
 --------------------------------

 -----------------------------------------------------
 step_1701_chromophore_21 TDDFT with wB97XD functional
 -----------------------------------------------------
 Symbolic Z-matrix:
 Charge =  0 Multiplicity = 1

                         Standard orientation:
 ---------------------------------------------------------------------
 Center     Atomic      Atomic             Coordinates (Angstroms)
 Number     Number       Type             X           Y           Z
 ---------------------------------------------------------------------
      1         12           0        5.104303    1.096825    0.109912
      2          6           0        5.051453   -2.395980    0.259760
      3          6           0        1.593453    1.006683   -0.360868
      4          6           0        5.192599    4.478640   -0.150912
      5          6           0        8.568380    1.102702    0.229148
      6          7           0        3.496862   -0.466050   -0.009739
      7          6           0        3.734475   -1.802699    0.304018
      8          6           0        2.377467   -2.585700    0.415745
      9          6           0        1.385277   -1.541163   -0.139731
     10          6           0        2.205245   -0.255528   -0.179811
     11          6           0        0.886482   -1.828954   -1.576592
     12          6           0        2.146710   -3.037132    1.861075
     13          6           0        0.921295   -4.011638    2.140399
     14          6           0       -0.027165   -4.347921    0.939402
     15          8           0        0.307472   -5.149897    0.098305
     16          8           0       -1.234952   -3.574709    0.872257
     17          7           0        3.653563    2.530638   -0.312898
     18          6           0        2.268861    2.308526   -0.371024
     19          6           0        1.666322    3.575633   -0.789602
     20          6           0        2.709253    4.604582   -0.890429
     21          6           0        3.950937    3.884954   -0.493393
     22          6           0        0.233809    3.836779   -1.116552
     23          6           0        2.688960    6.083003   -1.360177
     24          8           0        3.714383    6.752380   -1.316394
     25          6           0        1.448973    6.713940   -1.824947
     26          7           0        6.527803    2.587235    0.229825
     27          6           0        6.346537    3.931040    0.214805
     28          6           0        7.666206    4.662557    0.446031
     29          6           0        8.631617    3.525588    0.715219
     30          6           0        7.823845    2.266608    0.335482
     31          6           0        7.979420    5.763032   -0.602374
     32          6           0        9.310424    3.438943    2.139440
     33          6           0       10.555916    4.298596    2.341190
     34          7           0        6.543007   -0.333647    0.211977
     35          6           0        7.969475   -0.184634    0.141396
     36          6           0        8.556762   -1.552746    0.048633
     37          6           0        7.492399   -2.461055    0.053895
     38          6           0        6.280063   -1.644070    0.148453
     39          6           0       10.016685   -1.806967    0.008199
     40          6           0        7.009920   -3.826885    0.086545
     41          8           0        7.670592   -4.895684   -0.026632
     42          6           0        5.391873   -3.860993    0.173995
     43          6           0        4.908423   -4.652899   -1.017873
     44          8           0        5.282270   -4.561942   -2.184027
     45          8           0        4.065120   -5.649619   -0.533616
     46          6           0        3.452745   -6.576241   -1.511337
     47          6           0       -2.029155   -4.002868   -0.300445
     48          6           0       -3.390973   -3.351429   -0.254478
     49          6           0       -4.162800   -2.914929   -1.284233
     50          6           0       -3.804385   -3.339943   -2.668122
     51          6           0       -5.480995   -2.243108   -0.993187
     52          6           0       -5.416006   -0.816926   -0.401029
     53          6           0       -6.023906   -0.761383    1.021924
     54          6           0       -7.255910    0.089929    1.256782
     55          6           0       -7.388756    0.654665    2.685506
     56          6           0       -8.573549   -0.599065    0.727011
     57          6           0       -9.562393    0.356971    0.126566
     58          6           0      -10.988566   -0.257047    0.376925
     59          6           0      -12.004029    0.699115    1.115106
     60          6           0      -11.619300    0.822894    2.651379
     61          6           0      -13.431903    0.224657    0.966930
     62          6           0      -14.364848    1.464210    0.699896
     63          6           0      -15.291842    1.158854   -0.551496
     64          6           0      -16.499240    2.035263   -0.532246
     65          6           0      -17.807239    1.311886   -1.054962
     66          6           0      -16.138263    3.238119   -1.447470
     67          1           0        0.518961    0.974737   -0.547587
     68          1           0        5.262840    5.568584   -0.146055
     69          1           0        9.648917    1.123806    0.382837
     70          1           0        2.582469   -3.509731   -0.124723
     71          1           0        0.488036   -1.468082    0.474204
     72          1           0        1.361319   -1.153783   -2.288814
     73          1           0       -0.169062   -1.594703   -1.715241
     74          1           0        0.958081   -2.870328   -1.890784
     75          1           0        1.983944   -2.087653    2.371037
     76          1           0        3.105683   -3.363996    2.264286
     77          1           0        0.395005   -3.626529    3.013430
     78          1           0        1.389968   -4.943326    2.459442
     79          1           0        0.211505    4.247222   -2.126129
     80          1           0       -0.123757    4.644737   -0.478017
     81          1           0       -0.312315    2.892898   -1.110700
     82          1           0        1.688433    7.725216   -2.156616
     83          1           0        0.811693    6.800820   -0.945129
     84          1           0        0.947183    6.206055   -2.648382
     85          1           0        7.540747    5.266503    1.344968
     86          1           0        9.395975    3.740763   -0.031577
     87          1           0        7.436552    5.640002   -1.539634
     88          1           0        9.057971    5.759460   -0.763511
     89          1           0        7.645000    6.670441   -0.099573
     90          1           0        9.378720    2.388250    2.420994
     91          1           0        8.604349    3.951168    2.793243
     92          1           0       10.662132    4.928628    1.458057
     93          1           0       11.337396    3.554990    2.499798
     94          1           0       10.457935    4.936959    3.219357
     95          1           0       10.425201   -2.213376    0.933154
     96          1           0       10.600898   -0.887955   -0.039650
     97          1           0       10.255159   -2.551775   -0.751427
     98          1           0        4.966089   -4.372161    1.036889
     99          1           0        3.398262   -6.188501   -2.529464
    100          1           0        2.400674   -6.687952   -1.248323
    101          1           0        4.009116   -7.512646   -1.533680
    102          1           0       -2.189533   -5.079529   -0.242264
    103          1           0       -1.442798   -3.893194   -1.212256
    104          1           0       -3.804065   -3.108554    0.723862
    105          1           0       -3.274763   -2.573389   -3.234095
    106          1           0       -4.760639   -3.433922   -3.181664
    107          1           0       -3.332965   -4.321415   -2.721013
    108          1           0       -6.043245   -2.945508   -0.376978
    109          1           0       -5.985345   -2.138487   -1.953099
    110          1           0       -5.985667   -0.204238   -1.100439
    111          1           0       -4.372162   -0.509574   -0.346254
    112          1           0       -5.217820   -0.303458    1.595100
    113          1           0       -6.228543   -1.744808    1.444712
    114          1           0       -7.107287    0.990797    0.662854
    115          1           0       -8.390255    0.485439    3.080016
    116          1           0       -7.459188    1.741832    2.679576
    117          1           0       -6.586057    0.432662    3.388376
    118          1           0       -8.913004   -1.242073    1.538803
    119          1           0       -8.333923   -1.318042   -0.056415
    120          1           0       -9.497488    0.397687   -0.960747
    121          1           0       -9.218764    1.317446    0.511034
    122          1           0      -10.908904   -1.198753    0.920223
    123          1           0      -11.324538   -0.534466   -0.622176
    124          1           0      -11.893932    1.686245    0.664958
    125          1           0      -12.514786    0.579698    3.224816
    126          1           0      -11.156743    1.802873    2.765708
    127          1           0      -10.857495    0.087176    2.907766
    128          1           0      -13.784052   -0.244064    1.885592
    129          1           0      -13.468749   -0.431435    0.096609
    130          1           0      -13.781827    2.357130    0.472952
    131          1           0      -14.919275    1.739252    1.597273
    132          1           0      -15.508759    0.092285   -0.602286
    133          1           0      -14.760073    1.306053   -1.492700
    134          1           0      -16.671797    2.413777    0.476085
    135          1           0      -18.193995    1.668486   -2.010025
    136          1           0      -18.643838    1.442133   -0.368188
    137          1           0      -17.754317    0.224301   -1.106930
    138          1           0      -15.758980    2.839498   -2.388417
    139          1           0      -15.424946    3.841411   -0.886095
    140          1           0      -17.056173    3.765822   -1.708567
 ---------------------------------------------------------------------

 SCF Done:  E(RwB97XD) =  -3007.85968727     A.U. after   20 cycles

 Excitation energies and oscillator strengths:

 Excited State   1:      Singlet-A      1.5789 eV  785.24 nm  f=0.3841  <S**2>=0.000
     245 -> 248       -0.18307
     246 -> 247        0.68466
     245 <- 248       -0.11949
 This state for optimization and/or second-order correction.
 Total Energy, E(TD-HF/TD-DFT) =  -3007.80166286
 Copying the excited state density for this state as the 1-particle RhoCI density.

 Excited State   2:      Singlet-A      2.1502 eV  576.62 nm  f=0.1115  <S**2>=0.000
     245 -> 247        0.63443
     246 -> 248        0.29859

 Excited State   3:      Singlet-A      3.1832 eV  389.50 nm  f=0.0009  <S**2>=0.000
     244 -> 247        0.67852

 Excited State   4:      Singlet-A      3.3234 eV  373.07 nm  f=0.0145  <S**2>=0.000
     239 -> 247        0.12757
     239 -> 249       -0.10142
     241 -> 247        0.44983
     241 -> 249       -0.30464
     241 -> 250       -0.16543
     242 -> 247       -0.25568
     242 -> 249        0.14001
     246 -> 248        0.13673

 Excited State   5:      Singlet-A      3.4693 eV  357.38 nm  f=0.4919  <S**2>=0.000
     241 -> 247       -0.22983
     242 -> 247       -0.25686
     245 -> 247       -0.24133
     246 -> 248        0.54905
     245 <- 247        0.10270

 The electronic state is 1-A.
 Alpha  occ. eigenvalues --  -46.93885 -19.31215 -19.29858 -19.26959 -19.24474
 Alpha  occ. eigenvalues --  -19.23692 -19.23597 -14.47062 -14.45975 -14.44510
 Alpha  occ. eigenvalues --  -14.44046 -10.45005 -10.43071 -10.39504 -10.39154
 Alpha  occ. eigenvalues --  -10.36277 -10.35923 -10.34884 -10.34797 -10.34667
 Alpha  occ. eigenvalues --  -10.34644 -10.34530 -10.34375 -10.33838 -10.33444
 Alpha  occ. eigenvalues --  -10.33176 -10.32993 -10.32896 -10.32816 -10.32670
 Alpha  occ. eigenvalues --  -10.32117 -10.31987 -10.31976 -10.31962 -10.31100
 Alpha  occ. eigenvalues --  -10.31037 -10.31002 -10.30686 -10.30655 -10.30625
 Alpha  occ. eigenvalues --  -10.30326 -10.30062 -10.30053 -10.29887 -10.29871
 Alpha  occ. eigenvalues --  -10.29810 -10.29759 -10.29686 -10.29603 -10.29553
 Alpha  occ. eigenvalues --  -10.29478 -10.29461 -10.29418 -10.29388 -10.29010
 Alpha  occ. eigenvalues --  -10.28996 -10.28913 -10.28906 -10.28827 -10.28571
 Alpha  occ. eigenvalues --  -10.28565 -10.28502 -10.28442 -10.28285 -10.28280
 Alpha  occ. eigenvalues --  -10.28225  -3.19999  -1.93607  -1.93115  -1.92997
 Alpha  occ. eigenvalues --   -1.18662  -1.16907  -1.12162  -1.11149  -1.09570
 Alpha  occ. eigenvalues --   -1.08836  -1.06431  -1.06154  -1.04333  -1.02452
 Alpha  occ. eigenvalues --   -0.93799  -0.92834  -0.91712  -0.91508  -0.90872
 Alpha  occ. eigenvalues --   -0.90847  -0.90360  -0.89338  -0.89187  -0.88650
 Alpha  occ. eigenvalues --   -0.88114  -0.86997  -0.86471  -0.85735  -0.85130
 Alpha  occ. eigenvalues --   -0.84457  -0.84308  -0.83290  -0.82606  -0.82017
 Alpha  occ. eigenvalues --   -0.81667  -0.80279  -0.79650  -0.78838  -0.78142
 Alpha  occ. eigenvalues --   -0.77641  -0.77138  -0.76840  -0.76474  -0.75723
 Alpha  occ. eigenvalues --   -0.75159  -0.74606  -0.73357  -0.72639  -0.70814
 Alpha  occ. eigenvalues --   -0.70430  -0.70190  -0.69017  -0.68613  -0.67529
 Alpha  occ. eigenvalues --   -0.67344  -0.67053  -0.66520  -0.66113  -0.65981
 Alpha  occ. eigenvalues --   -0.65766  -0.65336  -0.64354  -0.63685  -0.62068
 Alpha  occ. eigenvalues --   -0.61859  -0.61473  -0.60945  -0.60578  -0.59708
 Alpha  occ. eigenvalues --   -0.58971  -0.58650  -0.58050  -0.57604  -0.57377
 Alpha  occ. eigenvalues --   -0.57037  -0.56651  -0.56610  -0.56186  -0.55817
 Alpha  occ. eigenvalues --   -0.55493  -0.55356  -0.55182  -0.54941  -0.54854
 Alpha  occ. eigenvalues --   -0.54728  -0.54492  -0.54291  -0.54154  -0.53841
 Alpha  occ. eigenvalues --   -0.53578  -0.53518  -0.53340  -0.52990  -0.52551
 Alpha  occ. eigenvalues --   -0.52295  -0.52059  -0.51874  -0.51700  -0.51632
 Alpha  occ. eigenvalues --   -0.51322  -0.51189  -0.51121  -0.50823  -0.50699
 Alpha  occ. eigenvalues --   -0.50523  -0.50342  -0.50294  -0.49989  -0.49654
 Alpha  occ. eigenvalues --   -0.49521  -0.49325  -0.48993  -0.48923  -0.48582
 Alpha  occ. eigenvalues --   -0.48300  -0.48109  -0.47841  -0.47680  -0.47526
 Alpha  occ. eigenvalues --   -0.47313  -0.47225  -0.47045  -0.46942  -0.46836
 Alpha  occ. eigenvalues --   -0.46615  -0.46576  -0.46406  -0.46281  -0.45865
 Alpha  occ. eigenvalues --   -0.45415  -0.45264  -0.45248  -0.45062  -0.44932
 Alpha  occ. eigenvalues --   -0.44275  -0.44192  -0.44081  -0.43845  -0.43797
 Alpha  occ. eigenvalues --   -0.43665  -0.43586  -0.43413  -0.43366  -0.43283
 Alpha  occ. eigenvalues --   -0.43136  -0.43022  -0.42664  -0.42172  -0.42043
 Alpha  occ. eigenvalues --   -0.41910  -0.41810  -0.41243  -0.41149  -0.41124
 Alpha  occ. eigenvalues --   -0.40714  -0.40151  -0.39972  -0.39864  -0.39267
 Alpha  occ. eigenvalues --   -0.39136  -0.38840  -0.38672  -0.38590  -0.38337
 Alpha  occ. eigenvalues --   -0.37958  -0.37858  -0.37398  -0.37364  -0.36253
 Alpha  occ. eigenvalues --   -0.36149  -0.34853  -0.34804  -0.33233  -0.32974
 Alpha  occ. eigenvalues --   -0.32499  -0.32352  -0.31744  -0.31034  -0.25999
 Alpha  occ. eigenvalues --   -0.22724
 Alpha virt. eigenvalues --   -0.07230   0.00202   0.02184   0.04297   0.05434
 Alpha virt. eigenvalues --    0.06622   0.06870   0.07009   0.08220   0.09480
 Alpha virt. eigenvalues --    0.09929   0.11274   0.11812   0.12215   0.12472

 Mulliken charges:
               1
     1  Mg   0.979915
     2  C   -0.019376
     3  C   -0.069510
     4  C   -0.073955
     5  C   -0.106290
     6  N   -0.312908
     7  C   -0.001667
     8  C   -0.070468
     9  C   -0.093619
    10  C    0.037628
    11  C    0.000402
    12  C    0.003573
    13  C    0.079431
    14  C    0.204208
    15  O   -0.244009
    16  O   -0.393505
    17  N   -0.487493
    18  C    0.187257
    19  C   -0.207397
    20  C   -0.103774
    21  C    0.174973
    22  C    0.091055
    23  C    0.063517
    24  O   -0.240747
    25  C   -0.010379
    26  N   -0.388169
    27  C    0.050129
    28  C   -0.082078
    29  C   -0.090257
    30  C    0.115716
    31  C    0.026502
    32  C   -0.024926
    33  C   -0.029145
    34  N   -0.490567
    35  C    0.142297
    36  C   -0.189173
    37  C    0.041732
    38  C    0.101309
    39  C    0.078216
    40  C    0.126809
    41  O   -0.242657
    42  C   -0.056345
    43  C    0.268387
    44  O   -0.234197
    45  O   -0.388095
    46  C    0.127357
    47  C    0.252220
    48  C   -0.118137
    49  C   -0.246700
    50  C    0.035424
    51  C    0.024745
    52  C    0.002543
    53  C   -0.003767
    54  C   -0.179227
    55  C    0.017161
    56  C   -0.029920
    57  C    0.004234
    58  C   -0.015699
    59  C   -0.207959
    60  C    0.009040
    61  C    0.045977
    62  C   -0.047777
    63  C   -0.006967
    64  C   -0.200828
    65  C   -0.013079
    66  C   -0.003185
    67  H    0.000773
    68  H    0.017865
    69  H    0.014079
    70  H    0.036948
    71  H    0.041377
    72  H    0.047356
    73  H    0.030710
    74  H    0.052691
    75  H    0.022731
    76  H    0.036952
    77  H    0.051798
    78  H    0.061532
    79  H    0.038495
    80  H    0.050787
    81  H    0.036900
    82  H    0.052271
    83  H    0.058350
    84  H    0.062014
    85  H    0.027086
    86  H    0.016584
    87  H    0.056983
    88  H    0.033836
    89  H    0.045841
    90  H    0.039993
    91  H    0.020617
    92  H    0.034281
    93  H    0.044171
    94  H    0.040974
    95  H    0.047995
    96  H    0.021033
    97  H    0.068617
    98  H    0.064373
    99  H    0.053678
   100  H    0.065791
   101  H    0.064163
   102  H    0.047389
   103  H    0.039557
   104  H    0.021067
   105  H    0.049393
   106  H    0.023794
   107  H    0.048793
   108  H    0.050717
   109  H    0.007436
   110  H    0.026389
   111  H    0.034318
   112  H    0.011187
   113  H    0.019602
   114  H    0.008306
   115  H    0.009176
   116  H    0.014017
   117  H    0.037316
   118  H    0.020205
   119  H    0.008152
   120  H    0.025102
   121  H    0.022660
   122  H    0.022262
   123  H    0.013372
   124  H    0.021599
   125  H    0.029439
   126  H    0.037555
   127  H    0.026551
   128  H    0.025179
   129  H    0.020449
   130  H    0.015667
   131  H    0.022001
   132  H    0.015843
   133  H    0.011938
   134  H    0.026965
   135  H    0.025187
   136  H    0.022139
   137  H    0.022118
   138  H    0.027116
   139  H    0.035681
   140  H    0.026909
 Sum of Mulliken charges =  -0.00000

 Dipole moment (field-independent basis, Debye):
    X=             -5.8707    Y=              2.8690    Z=              2.2427  Tot=              6.9084
 Quadrupole moment (field-independent basis, Debye-Ang):
   XX=           -398.0670   YY=           -423.7846   ZZ=           -399.4596
   XY=             36.6838   XZ=             27.8629   YZ=             -0.7723

 Normal termination of Gaussian 16 at Wed May  4 12:17:55 2022.
