 Gaussian 16, Revision A.03,
 Gaussian 16:  ES64L-G16RevA.03 25-Dec-2016

 --------------------
 #p ZINDO=(nstates=5)
 --------------------

 ------------------------------
 step_1701_chromophore_21 ZINDO
 ------------------------------
 Symbolic Z-matrix:
 Charge =  0 Multiplicity = 1

                         Standard orientation:
 ---------------------------------------------------------------------
 Center     Atomic      Atomic             Coordinates (Angstroms)
 Number     Number       Type             X           Y           Z
 ---------------------------------------------------------------------
      1         12           0        5.104303    1.096825    0.109912
      2          6           0        5.051453   -2.395980    0.259760
      3          6           0        1.593453    1.006683   -0.360868
      4          6           0        5.192599    4.478640   -0.150912
      5          6           0        8.568380    1.102702    0.229148
      6          7           0        3.496862   -0.466050   -0.009739
      7          6           0        3.734475   -1.802699    0.304018
      8          6           0        2.377467   -2.585700    0.415745
      9          6           0        1.385277   -1.541163   -0.139731
     10          6           0        2.205245   -0.255528   -0.179811
     11          6           0        0.886482   -1.828954   -1.576592
     12          6           0        2.146710   -3.037132    1.861075
     13          6           0        0.921295   -4.011638    2.140399
     14          6           0       -0.027165   -4.347921    0.939402
     15          8           0        0.307472   -5.149897    0.098305
     16          8           0       -1.234952   -3.574709    0.872257
     17          7           0        3.653563    2.530638   -0.312898
     18          6           0        2.268861    2.308526   -0.371024
     19          6           0        1.666322    3.575633   -0.789602
     20          6           0        2.709253    4.604582   -0.890429
     21          6           0        3.950937    3.884954   -0.493393
     22          6           0        0.233809    3.836779   -1.116552
     23          6           0        2.688960    6.083003   -1.360177
     24          8           0        3.714383    6.752380   -1.316394
     25          6           0        1.448973    6.713940   -1.824947
     26          7           0        6.527803    2.587235    0.229825
     27          6           0        6.346537    3.931040    0.214805
     28          6           0        7.666206    4.662557    0.446031
     29          6           0        8.631617    3.525588    0.715219
     30          6           0        7.823845    2.266608    0.335482
     31          6           0        7.979420    5.763032   -0.602374
     32          6           0        9.310424    3.438943    2.139440
     33          6           0       10.555916    4.298596    2.341190
     34          7           0        6.543007   -0.333647    0.211977
     35          6           0        7.969475   -0.184634    0.141396
     36          6           0        8.556762   -1.552746    0.048633
     37          6           0        7.492399   -2.461055    0.053895
     38          6           0        6.280063   -1.644070    0.148453
     39          6           0       10.016685   -1.806967    0.008199
     40          6           0        7.009920   -3.826885    0.086545
     41          8           0        7.670592   -4.895684   -0.026632
     42          6           0        5.391873   -3.860993    0.173995
     43          6           0        4.908423   -4.652899   -1.017873
     44          8           0        5.282270   -4.561942   -2.184027
     45          8           0        4.065120   -5.649619   -0.533616
     46          6           0        3.452745   -6.576241   -1.511337
     47          6           0       -2.029155   -4.002868   -0.300445
     48          6           0       -3.390973   -3.351429   -0.254478
     49          6           0       -4.162800   -2.914929   -1.284233
     50          6           0       -3.804385   -3.339943   -2.668122
     51          6           0       -5.480995   -2.243108   -0.993187
     52          6           0       -5.416006   -0.816926   -0.401029
     53          6           0       -6.023906   -0.761383    1.021924
     54          6           0       -7.255910    0.089929    1.256782
     55          6           0       -7.388756    0.654665    2.685506
     56          6           0       -8.573549   -0.599065    0.727011
     57          6           0       -9.562393    0.356971    0.126566
     58          6           0      -10.988566   -0.257047    0.376925
     59          6           0      -12.004029    0.699115    1.115106
     60          6           0      -11.619300    0.822894    2.651379
     61          6           0      -13.431903    0.224657    0.966930
     62          6           0      -14.364848    1.464210    0.699896
     63          6           0      -15.291842    1.158854   -0.551496
     64          6           0      -16.499240    2.035263   -0.532246
     65          6           0      -17.807239    1.311886   -1.054962
     66          6           0      -16.138263    3.238119   -1.447470
     67          1           0        0.518961    0.974737   -0.547587
     68          1           0        5.262840    5.568584   -0.146055
     69          1           0        9.648917    1.123806    0.382837
     70          1           0        2.582469   -3.509731   -0.124723
     71          1           0        0.488036   -1.468082    0.474204
     72          1           0        1.361319   -1.153783   -2.288814
     73          1           0       -0.169062   -1.594703   -1.715241
     74          1           0        0.958081   -2.870328   -1.890784
     75          1           0        1.983944   -2.087653    2.371037
     76          1           0        3.105683   -3.363996    2.264286
     77          1           0        0.395005   -3.626529    3.013430
     78          1           0        1.389968   -4.943326    2.459442
     79          1           0        0.211505    4.247222   -2.126129
     80          1           0       -0.123757    4.644737   -0.478017
     81          1           0       -0.312315    2.892898   -1.110700
     82          1           0        1.688433    7.725216   -2.156616
     83          1           0        0.811693    6.800820   -0.945129
     84          1           0        0.947183    6.206055   -2.648382
     85          1           0        7.540747    5.266503    1.344968
     86          1           0        9.395975    3.740763   -0.031577
     87          1           0        7.436552    5.640002   -1.539634
     88          1           0        9.057971    5.759460   -0.763511
     89          1           0        7.645000    6.670441   -0.099573
     90          1           0        9.378720    2.388250    2.420994
     91          1           0        8.604349    3.951168    2.793243
     92          1           0       10.662132    4.928628    1.458057
     93          1           0       11.337396    3.554990    2.499798
     94          1           0       10.457935    4.936959    3.219357
     95          1           0       10.425201   -2.213376    0.933154
     96          1           0       10.600898   -0.887955   -0.039650
     97          1           0       10.255159   -2.551775   -0.751427
     98          1           0        4.966089   -4.372161    1.036889
     99          1           0        3.398262   -6.188501   -2.529464
    100          1           0        2.400674   -6.687952   -1.248323
    101          1           0        4.009116   -7.512646   -1.533680
    102          1           0       -2.189533   -5.079529   -0.242264
    103          1           0       -1.442798   -3.893194   -1.212256
    104          1           0       -3.804065   -3.108554    0.723862
    105          1           0       -3.274763   -2.573389   -3.234095
    106          1           0       -4.760639   -3.433922   -3.181664
    107          1           0       -3.332965   -4.321415   -2.721013
    108          1           0       -6.043245   -2.945508   -0.376978
    109          1           0       -5.985345   -2.138487   -1.953099
    110          1           0       -5.985667   -0.204238   -1.100439
    111          1           0       -4.372162   -0.509574   -0.346254
    112          1           0       -5.217820   -0.303458    1.595100
    113          1           0       -6.228543   -1.744808    1.444712
    114          1           0       -7.107287    0.990797    0.662854
    115          1           0       -8.390255    0.485439    3.080016
    116          1           0       -7.459188    1.741832    2.679576
    117          1           0       -6.586057    0.432662    3.388376
    118          1           0       -8.913004   -1.242073    1.538803
    119          1           0       -8.333923   -1.318042   -0.056415
    120          1           0       -9.497488    0.397687   -0.960747
    121          1           0       -9.218764    1.317446    0.511034
    122          1           0      -10.908904   -1.198753    0.920223
    123          1           0      -11.324538   -0.534466   -0.622176
    124          1           0      -11.893932    1.686245    0.664958
    125          1           0      -12.514786    0.579698    3.224816
    126          1           0      -11.156743    1.802873    2.765708
    127          1           0      -10.857495    0.087176    2.907766
    128          1           0      -13.784052   -0.244064    1.885592
    129          1           0      -13.468749   -0.431435    0.096609
    130          1           0      -13.781827    2.357130    0.472952
    131          1           0      -14.919275    1.739252    1.597273
    132          1           0      -15.508759    0.092285   -0.602286
    133          1           0      -14.760073    1.306053   -1.492700
    134          1           0      -16.671797    2.413777    0.476085
    135          1           0      -18.193995    1.668486   -2.010025
    136          1           0      -18.643838    1.442133   -0.368188
    137          1           0      -17.754317    0.224301   -1.106930
    138          1           0      -15.758980    2.839498   -2.388417
    139          1           0      -15.424946    3.841411   -0.886095
    140          1           0      -17.056173    3.765822   -1.708567
 ---------------------------------------------------------------------

 SCF Done:  E(RZINDO/S) =  -474.008135786     A.U. after   20 cycles

 Excitation energies and oscillator strengths:

 Excited State   1:      Singlet-A      1.2123 eV 1022.69 nm  f=0.6070  <S**2>=0.000
     175 ->178         0.18790
     176 ->177         0.66173
 This state for optimization and/or second-order correction.
 Total Energy, E(CIS/TDA) =  -473.963583233
 Copying the excited state density for this state as the 1-particle RhoCI density.

 Excited State   2:      Singlet-A      1.9025 eV  651.70 nm  f=0.0406  <S**2>=0.000
     175 ->177         0.53626
     176 ->178        -0.42572
     176 ->179         0.10557

 Excited State   3:      Singlet-A      2.8453 eV  435.75 nm  f=0.5042  <S**2>=0.000
     175 ->177         0.30269
     176 ->178         0.47815
     176 ->179         0.37297

 Excited State   4:      Singlet-A      2.8942 eV  428.39 nm  f=0.0030  <S**2>=0.000
     168 ->177         0.36368
     168 ->178        -0.21354
     168 ->179        -0.40079
     168 ->181         0.21420
     168 ->182        -0.10276
     168 ->186        -0.18794
     168 ->196         0.13291

 Excited State   5:      Singlet-A      3.0540 eV  405.97 nm  f=0.0126  <S**2>=0.000
     169 ->177         0.24850
     169 ->179         0.28659
     169 ->181         0.41255
     169 ->186         0.18297
     169 ->187         0.17657
     169 ->188        -0.12954
     170 ->181        -0.11896

 The electronic state is 1-A.
 Alpha  occ. eigenvalues --   -1.83280  -1.81491  -1.77494  -1.71415  -1.69699
 Alpha  occ. eigenvalues --   -1.68358  -1.65631  -1.61752  -1.58765  -1.56307
 Alpha  occ. eigenvalues --   -1.55560  -1.52190  -1.49110  -1.48056  -1.45042
 Alpha  occ. eigenvalues --   -1.43963  -1.43313  -1.40798  -1.39994  -1.38201
 Alpha  occ. eigenvalues --   -1.35843  -1.33832  -1.32457  -1.30602  -1.29492
 Alpha  occ. eigenvalues --   -1.27249  -1.25129  -1.21806  -1.20370  -1.18693
 Alpha  occ. eigenvalues --   -1.16803  -1.15709  -1.15090  -1.14393  -1.12630
 Alpha  occ. eigenvalues --   -1.12525  -1.09515  -1.09124  -1.03905  -1.03349
 Alpha  occ. eigenvalues --   -1.02857  -1.01034  -0.99809  -0.97749  -0.96874
 Alpha  occ. eigenvalues --   -0.94712  -0.94208  -0.93810  -0.93105  -0.92343
 Alpha  occ. eigenvalues --   -0.91397  -0.90683  -0.89186  -0.88377  -0.86238
 Alpha  occ. eigenvalues --   -0.85627  -0.85132  -0.83436  -0.82599  -0.80230
 Alpha  occ. eigenvalues --   -0.79227  -0.79007  -0.78107  -0.76564  -0.75928
 Alpha  occ. eigenvalues --   -0.75539  -0.74633  -0.73826  -0.73189  -0.72592
 Alpha  occ. eigenvalues --   -0.72341  -0.71934  -0.71579  -0.71303  -0.70865
 Alpha  occ. eigenvalues --   -0.70176  -0.69567  -0.69525  -0.68861  -0.67995
 Alpha  occ. eigenvalues --   -0.67339  -0.66918  -0.66680  -0.66151  -0.65493
 Alpha  occ. eigenvalues --   -0.65394  -0.64872  -0.64304  -0.63999  -0.63548
 Alpha  occ. eigenvalues --   -0.63360  -0.63100  -0.62863  -0.62185  -0.61601
 Alpha  occ. eigenvalues --   -0.61246  -0.61135  -0.60790  -0.60325  -0.60185
 Alpha  occ. eigenvalues --   -0.59365  -0.59026  -0.58574  -0.58393  -0.57955
 Alpha  occ. eigenvalues --   -0.57699  -0.57514  -0.57118  -0.56902  -0.56631
 Alpha  occ. eigenvalues --   -0.56547  -0.56429  -0.55945  -0.55262  -0.54922
 Alpha  occ. eigenvalues --   -0.54594  -0.53903  -0.53654  -0.53203  -0.52924
 Alpha  occ. eigenvalues --   -0.52736  -0.52639  -0.52231  -0.51539  -0.51373
 Alpha  occ. eigenvalues --   -0.51157  -0.50901  -0.50573  -0.50421  -0.50009
 Alpha  occ. eigenvalues --   -0.49894  -0.49604  -0.49508  -0.49169  -0.49038
 Alpha  occ. eigenvalues --   -0.48786  -0.48707  -0.48389  -0.48190  -0.47957
 Alpha  occ. eigenvalues --   -0.47830  -0.47533  -0.47204  -0.46769  -0.46660
 Alpha  occ. eigenvalues --   -0.46319  -0.46195  -0.45618  -0.45511  -0.45059
 Alpha  occ. eigenvalues --   -0.44683  -0.44339  -0.44251  -0.44082  -0.44059
 Alpha  occ. eigenvalues --   -0.43832  -0.43427  -0.43310  -0.42989  -0.42255
 Alpha  occ. eigenvalues --   -0.42186  -0.41285  -0.40230  -0.39876  -0.38998
 Alpha  occ. eigenvalues --   -0.37972  -0.36976  -0.35590  -0.34735  -0.34320
 Alpha  occ. eigenvalues --   -0.33445  -0.32238  -0.31869  -0.31493  -0.26549
 Alpha  occ. eigenvalues --   -0.21541
 Alpha virt. eigenvalues --   -0.08571  -0.02187  -0.00542   0.00858   0.01357
 Alpha virt. eigenvalues --    0.02495   0.03047   0.03662   0.04346   0.04453
 Alpha virt. eigenvalues --    0.06316   0.06728   0.07258   0.07275   0.07568

 Mulliken charges:
               1
     1  Mg   0.414903
     2  C   -0.055107
     3  C   -0.084275
     4  C   -0.047873
     5  C   -0.072007
     6  N   -0.268776
     7  C    0.105377
     8  C    0.006924
     9  C    0.016556
    10  C    0.137869
    11  C   -0.051912
    12  C   -0.020553
    13  C    0.005682
    14  C    0.462090
    15  O   -0.494524
    16  O   -0.278423
    17  N   -0.330207
    18  C    0.080786
    19  C    0.003883
    20  C   -0.082602
    21  C    0.133683
    22  C   -0.045309
    23  C    0.337617
    24  O   -0.530820
    25  C   -0.024785
    26  N   -0.261600
    27  C    0.129140
    28  C   -0.000629
    29  C   -0.008678
    30  C    0.150650
    31  C   -0.050370
    32  C   -0.035508
    33  C   -0.056717
    34  N   -0.320943
    35  C    0.084899
    36  C    0.055908
    37  C   -0.041829
    38  C    0.121409
    39  C   -0.037478
    40  C    0.334803
    41  O   -0.522562
    42  C    0.061561
    43  C    0.488157
    44  O   -0.502566
    45  O   -0.277537
    46  C    0.072545
    47  C    0.109355
    48  C   -0.097950
    49  C   -0.010141
    50  C   -0.042063
    51  C   -0.019744
    52  C   -0.028185
    53  C   -0.030536
    54  C   -0.013044
    55  C   -0.062736
    56  C   -0.033635
    57  C   -0.040548
    58  C   -0.038374
    59  C   -0.018754
    60  C   -0.066779
    61  C   -0.036133
    62  C   -0.046951
    63  C   -0.031268
    64  C   -0.008979
    65  C   -0.065583
    66  C   -0.057584
    67  H    0.030800
    68  H    0.041339
    69  H    0.037829
    70  H    0.043698
    71  H    0.031451
    72  H    0.025794
    73  H    0.011499
    74  H    0.028711
    75  H    0.016058
    76  H    0.028866
    77  H    0.034433
    78  H    0.039781
    79  H    0.026567
    80  H    0.034620
    81  H    0.027830
    82  H    0.032049
    83  H    0.039934
    84  H    0.039096
    85  H    0.022271
    86  H    0.022703
    87  H    0.033623
    88  H    0.019437
    89  H    0.025568
    90  H    0.030635
    91  H    0.014965
    92  H    0.027277
    93  H    0.022987
    94  H    0.022222
    95  H    0.031037
    96  H    0.021785
    97  H    0.043032
    98  H    0.055650
    99  H    0.044209
   100  H    0.038228
   101  H    0.046227
   102  H    0.045541
   103  H    0.053461
   104  H    0.026340
   105  H    0.033134
   106  H    0.013951
   107  H    0.029918
   108  H    0.032335
   109  H    0.011221
   110  H    0.022584
   111  H    0.025993
   112  H    0.006327
   113  H    0.022114
   114  H    0.010764
   115  H    0.018317
   116  H    0.008418
   117  H    0.027083
   118  H    0.022187
   119  H    0.007835
   120  H    0.016548
   121  H    0.032555
   122  H    0.022216
   123  H    0.011930
   124  H    0.022454
   125  H    0.028913
   126  H    0.023741
   127  H    0.017746
   128  H    0.025890
   129  H    0.022217
   130  H    0.019005
   131  H    0.022237
   132  H    0.013608
   133  H    0.018318
   134  H    0.024438
   135  H    0.020791
   136  H    0.009917
   137  H    0.017322
   138  H    0.022887
   139  H    0.023887
   140  H    0.012425
 Sum of Mulliken charges =  -0.00000

 Dipole moment (field-independent basis, Debye):
    X=             -6.6396    Y=              2.8326    Z=              4.2373  Tot=              8.3703
 N-N= 4.302565616962D+03 E-N= 0.000000000000D+00  KE=-9.279283497881D+03
 Leave Link  601 at Wed May  4 12:30:57 2022, MaxMem=  6710886400 cpu:               0.8 elap:               0.0
 (Enter /sw/apps/gaussian-16.0/g16/l9999.exe)
 1\1\GINC-BP1-COMPUTE089\SP\RZINDO CIS\STO-3G\C55H74Mg1N4O6\OF15641\04-
 May-2022\0\\#p ZINDO=(nstates=5)\\step_1701_chromophore_21 ZINDO\\0,1\
 Mg,0,16.244,51.507,26.028\C,0,18.346,50.484,28.628\C,0,13.722,52.068,2
 8.453\C,0,14.183,52.383,23.479\C,0,18.63,50.616,23.677\N,0,16.034,51.3
 39,28.257\C,0,17.125,51.103,29.091\C,0,16.723,51.332,30.592\C,0,15.19,
 51.471,30.471\C,0,14.963,51.63,28.971\C,0,14.393,50.23,30.941\C,0,17.4
 7,52.543,31.159\C,0,17.344,52.82,32.72\C,0,16.376,51.904,33.544\O,0,16

 Normal termination of Gaussian 16 at Wed May  4 12:30:57 2022.
