 Gaussian 16, Revision A.03,
 Gaussian 16:  ES64L-G16RevA.03 25-Dec-2016

 ------------------------------
 #p blyp/Def2SVP td=(nstates=5)
 ------------------------------

 --------------------------------------------------
 step_301_chromophore_26 TDDFT with blyp functional
 --------------------------------------------------
 Symbolic Z-matrix:
 Charge =  0 Multiplicity = 1

                         Standard orientation:
 ---------------------------------------------------------------------
 Center     Atomic      Atomic             Coordinates (Angstroms)
 Number     Number       Type             X           Y           Z
 ---------------------------------------------------------------------
      1         12           0       -4.407949    1.267887    0.639774
      2          6           0       -5.270652   -2.093494    0.030404
      3          6           0       -2.361790    0.107143    3.222365
      4          6           0       -3.021680    4.360217    0.832396
      5          6           0       -5.874351    2.218693   -2.414212
      6          7           0       -3.884775   -0.741599    1.517793
      7          6           0       -4.451359   -2.010129    1.164235
      8          6           0       -3.913221   -3.119741    1.969134
      9          6           0       -3.147666   -2.377701    3.159231
     10          6           0       -3.090105   -0.962026    2.593712
     11          6           0       -3.671705   -2.439990    4.616451
     12          6           0       -2.888619   -4.088818    1.139252
     13          6           0       -1.768395   -3.443821    0.227812
     14          6           0       -0.576085   -4.243456   -0.237196
     15          8           0       -0.659116   -5.371194   -0.698431
     16          8           0        0.646414   -3.677835   -0.003368
     17          7           0       -2.897055    2.095316    1.910534
     18          6           0       -2.167153    1.484296    2.839168
     19          6           0       -1.409133    2.437515    3.525189
     20          6           0       -1.404074    3.632125    2.816056
     21          6           0       -2.434331    3.400289    1.763881
     22          6           0       -0.627865    2.143624    4.707525
     23          6           0       -0.641711    4.900369    3.068603
     24          8           0        0.141412    4.915244    4.040811
     25          6           0       -0.548650    6.098601    2.131952
     26          7           0       -4.432523    3.021621   -0.740098
     27          6           0       -3.958891    4.176160   -0.258232
     28          6           0       -4.326029    5.328800   -1.138320
     29          6           0       -5.357193    4.717027   -2.120890
     30          6           0       -5.284948    3.213638   -1.729218
     31          6           0       -4.705511    6.606412   -0.459423
     32          6           0       -5.136392    5.029758   -3.612911
     33          6           0       -6.194301    5.735115   -4.358448
     34          7           0       -5.390242    0.381465   -0.798419
     35          6           0       -5.960896    0.837650   -1.980987
     36          6           0       -6.661116   -0.317398   -2.589929
     37          6           0       -6.418828   -1.402939   -1.781173
     38          6           0       -5.587238   -0.988875   -0.748123
     39          6           0       -7.305215   -0.276937   -3.898850
     40          6           0       -6.682678   -2.826989   -1.705981
     41          8           0       -7.246695   -3.583244   -2.538703
     42          6           0       -5.878572   -3.315020   -0.527360
     43          6           0       -6.857968   -3.959648    0.371050
     44          8           0       -7.021998   -5.148003    0.564596
     45          8           0       -7.564668   -3.003423    1.127816
     46          6           0       -8.358435   -3.539333    2.245314
     47          6           0        1.861410   -4.428072    0.027243
     48          6           0        2.967521   -3.710251   -0.601583
     49          6           0        3.091433   -3.132421   -1.857055
     50          6           0        1.980300   -3.257293   -2.900950
     51          6           0        4.386490   -2.519266   -2.217191
     52          6           0        4.339510   -1.026650   -2.907330
     53          6           0        5.712446   -0.419005   -3.050940
     54          6           0        6.186858    0.300189   -1.811801
     55          6           0        5.730294    1.763172   -1.779156
     56          6           0        7.739766    0.083409   -1.629489
     57          6           0        8.105578   -0.378115   -0.153907
     58          6           0        9.293837   -1.357644   -0.107021
     59          6           0       10.582217   -0.613026    0.453343
     60          6           0       10.633602   -0.765518    1.990118
     61          6           0       11.920410   -1.027825   -0.229079
     62          6           0       12.796486    0.105307   -0.733642
     63          6           0       13.737558    0.825060    0.359853
     64          6           0       15.231705    0.785371    0.032443
     65          6           0       16.217674    0.837227    1.152441
     66          6           0       15.544721    1.869093   -0.962832
     67          1           0       -1.802059   -0.155157    4.123530
     68          1           0       -2.546976    5.321414    1.041256
     69          1           0       -6.473728    2.479132   -3.289808
     70          1           0       -4.779313   -3.662467    2.348579
     71          1           0       -2.127051   -2.755895    3.210579
     72          1           0       -2.873646   -2.688032    5.315931
     73          1           0       -4.616923   -2.983017    4.645992
     74          1           0       -4.077085   -1.495115    4.976711
     75          1           0       -3.504183   -4.622505    0.414502
     76          1           0       -2.556970   -4.987638    1.657394
     77          1           0       -1.482273   -2.521377    0.732715
     78          1           0       -2.166894   -3.121611   -0.734377
     79          1           0        0.400105    2.314164    4.388814
     80          1           0       -0.771690    1.241180    5.302588
     81          1           0       -0.917798    2.823197    5.508094
     82          1           0       -1.484548    6.656661    2.127008
     83          1           0       -0.261200    5.774691    1.132337
     84          1           0        0.283226    6.691092    2.512817
     85          1           0       -3.406928    5.538276   -1.686832
     86          1           0       -6.362560    5.045921   -1.859874
     87          1           0       -4.062095    7.457832   -0.682288
     88          1           0       -4.636492    6.425649    0.613875
     89          1           0       -5.757060    6.870698   -0.566286
     90          1           0       -5.205178    4.058217   -4.102714
     91          1           0       -4.264551    5.627654   -3.877778
     92          1           0       -5.764573    6.531257   -4.965913
     93          1           0       -6.890314    6.149133   -3.628694
     94          1           0       -6.830911    5.169056   -5.038442
     95          1           0       -6.584339   -0.886401   -4.444243
     96          1           0       -7.471958    0.721541   -4.302504
     97          1           0       -8.273834   -0.725205   -3.676859
     98          1           0       -5.174195   -4.083272   -0.845667
     99          1           0       -9.206626   -4.073017    1.816643
    100          1           0       -8.786437   -2.668080    2.740274
    101          1           0       -7.774523   -4.179734    2.905786
    102          1           0        1.668264   -5.439848   -0.330574
    103          1           0        2.192290   -4.572260    1.055747
    104          1           0        3.761915   -3.549095    0.126738
    105          1           0        1.085270   -3.728224   -2.494934
    106          1           0        2.397894   -3.576668   -3.856171
    107          1           0        1.570606   -2.248189   -2.935604
    108          1           0        5.032994   -3.220005   -2.746253
    109          1           0        5.041995   -2.434112   -1.349903
    110          1           0        3.686486   -0.491720   -2.218822
    111          1           0        3.646981   -1.070152   -3.748270
    112          1           0        5.646145    0.321344   -3.847317
    113          1           0        6.408086   -1.217496   -3.310568
    114          1           0        5.602544   -0.286497   -1.103225
    115          1           0        5.074445    1.841269   -2.646317
    116          1           0        6.552371    2.339416   -2.204972
    117          1           0        5.339888    2.212984   -0.866460
    118          1           0        8.277622    1.028671   -1.695496
    119          1           0        8.138341   -0.582179   -2.394458
    120          1           0        7.303093   -0.972793    0.281975
    121          1           0        8.275179    0.503525    0.464002
    122          1           0        9.560142   -1.710336   -1.104285
    123          1           0        9.104067   -2.193502    0.566281
    124          1           0       10.447441    0.448051    0.245158
    125          1           0        9.934177   -0.137539    2.542076
    126          1           0       11.642562   -0.636309    2.381824
    127          1           0       10.405541   -1.791100    2.279738
    128          1           0       11.616560   -1.644906   -1.074647
    129          1           0       12.518303   -1.635195    0.450666
    130          1           0       12.062280    0.864561   -1.005054
    131          1           0       13.362747   -0.173771   -1.621084
    132          1           0       13.502645    0.406688    1.338195
    133          1           0       13.469193    1.878531    0.284081
    134          1           0       15.462502   -0.147228   -0.481428
    135          1           0       15.687282    1.015418    2.088702
    136          1           0       16.994704    1.599287    1.104510
    137          1           0       16.972451    0.069710    1.319317
    138          1           0       14.654682    2.081238   -1.555597
    139          1           0       16.287330    1.436065   -1.633413
    140          1           0       15.886955    2.830342   -0.580705
 ---------------------------------------------------------------------

 SCF Done:  E(RB-LYP) =  -3007.31356557     A.U. after   22 cycles

 Excitation energies and oscillator strengths:

 Excited State   1:      Singlet-A      1.7862 eV  694.12 nm  f=0.2673  <S**2>=0.000
     245 -> 248        0.20250
     246 -> 247        0.68500
     246 <- 247       -0.14102
 This state for optimization and/or second-order correction.
 Total Energy, E(TD-HF/TD-DFT) =  -3007.24792399
 Copying the excited state density for this state as the 1-particle RhoCI density.

 Excited State   2:      Singlet-A      1.8408 eV  673.54 nm  f=0.0018  <S**2>=0.000
     244 -> 247        0.70521

 Excited State   3:      Singlet-A      1.9673 eV  630.24 nm  f=0.0102  <S**2>=0.000
     243 -> 247        0.63334
     245 -> 247       -0.29336
     246 -> 248        0.10160

 Excited State   4:      Singlet-A      2.0352 eV  609.19 nm  f=0.0061  <S**2>=0.000
     242 -> 247        0.67411
     245 -> 247       -0.17259

 Excited State   5:      Singlet-A      2.0448 eV  606.35 nm  f=0.0538  <S**2>=0.000
     242 -> 247        0.21325
     243 -> 247        0.29611
     245 -> 247        0.54490
     246 -> 248       -0.24282

 The electronic state is 1-A.
 Alpha  occ. eigenvalues --  -46.27864 -18.81695 -18.81245 -18.77212 -18.76441
 Alpha  occ. eigenvalues --  -18.75963 -18.75312 -14.03931 -14.03163 -14.01648
 Alpha  occ. eigenvalues --  -14.01288 -10.04381 -10.04300 -10.00091  -9.99939
 Alpha  occ. eigenvalues --   -9.98081  -9.97255  -9.97205  -9.97087  -9.96669
 Alpha  occ. eigenvalues --   -9.96632  -9.96255  -9.95980  -9.95798  -9.95313
 Alpha  occ. eigenvalues --   -9.95002  -9.94856  -9.94700  -9.94421  -9.94417
 Alpha  occ. eigenvalues --   -9.94079  -9.93941  -9.93814  -9.93726  -9.93389
 Alpha  occ. eigenvalues --   -9.93339  -9.93246  -9.93227  -9.93159  -9.93021
 Alpha  occ. eigenvalues --   -9.92805  -9.92649  -9.92509  -9.92504  -9.92176
 Alpha  occ. eigenvalues --   -9.92054  -9.91964  -9.91944  -9.91672  -9.91640
 Alpha  occ. eigenvalues --   -9.91588  -9.91385  -9.91374  -9.91299  -9.91186
 Alpha  occ. eigenvalues --   -9.91180  -9.91169  -9.91126  -9.91077  -9.90977
 Alpha  occ. eigenvalues --   -9.90962  -9.90792  -9.90683  -9.90577  -9.90203
 Alpha  occ. eigenvalues --   -9.90186  -2.92529  -1.72924  -1.72454  -1.72218
 Alpha  occ. eigenvalues --   -0.98001  -0.97318  -0.90445  -0.90000  -0.89736
 Alpha  occ. eigenvalues --   -0.89630  -0.88042  -0.86471  -0.86006  -0.85045
 Alpha  occ. eigenvalues --   -0.77609  -0.73627  -0.73463  -0.72743  -0.72619
 Alpha  occ. eigenvalues --   -0.72508  -0.72037  -0.71373  -0.71229  -0.71013
 Alpha  occ. eigenvalues --   -0.70343  -0.69534  -0.68910  -0.68335  -0.67669
 Alpha  occ. eigenvalues --   -0.66880  -0.66469  -0.65378  -0.64989  -0.64747
 Alpha  occ. eigenvalues --   -0.63767  -0.63246  -0.62642  -0.62200  -0.61799
 Alpha  occ. eigenvalues --   -0.60834  -0.60342  -0.60125  -0.59378  -0.59073
 Alpha  occ. eigenvalues --   -0.58642  -0.57893  -0.57362  -0.56306  -0.54783
 Alpha  occ. eigenvalues --   -0.54592  -0.54083  -0.53545  -0.52813  -0.52138
 Alpha  occ. eigenvalues --   -0.51878  -0.51309  -0.50728  -0.50582  -0.50193
 Alpha  occ. eigenvalues --   -0.49519  -0.49506  -0.49471  -0.48506  -0.46750
 Alpha  occ. eigenvalues --   -0.46244  -0.46130  -0.45958  -0.45683  -0.45063
 Alpha  occ. eigenvalues --   -0.44564  -0.43996  -0.43743  -0.43426  -0.43293
 Alpha  occ. eigenvalues --   -0.42589  -0.42270  -0.41607  -0.41517  -0.41323
 Alpha  occ. eigenvalues --   -0.41119  -0.40937  -0.40620  -0.40599  -0.40316
 Alpha  occ. eigenvalues --   -0.40065  -0.39877  -0.39787  -0.39670  -0.39572
 Alpha  occ. eigenvalues --   -0.39329  -0.39144  -0.39012  -0.38879  -0.38755
 Alpha  occ. eigenvalues --   -0.38627  -0.38341  -0.38222  -0.37962  -0.37767
 Alpha  occ. eigenvalues --   -0.37499  -0.37285  -0.36866  -0.36805  -0.36492
 Alpha  occ. eigenvalues --   -0.36374  -0.36100  -0.35965  -0.35821  -0.35767
 Alpha  occ. eigenvalues --   -0.35613  -0.35340  -0.35214  -0.35104  -0.34849
 Alpha  occ. eigenvalues --   -0.34777  -0.34517  -0.34268  -0.34037  -0.33982
 Alpha  occ. eigenvalues --   -0.33881  -0.33584  -0.33442  -0.33362  -0.33268
 Alpha  occ. eigenvalues --   -0.33030  -0.32844  -0.32600  -0.32281  -0.32180
 Alpha  occ. eigenvalues --   -0.32127  -0.31962  -0.31928  -0.31676  -0.31542
 Alpha  occ. eigenvalues --   -0.31267  -0.31100  -0.31075  -0.30854  -0.30701
 Alpha  occ. eigenvalues --   -0.30597  -0.30365  -0.30284  -0.29970  -0.29871
 Alpha  occ. eigenvalues --   -0.29678  -0.29515  -0.29367  -0.29199  -0.28853
 Alpha  occ. eigenvalues --   -0.28257  -0.28212  -0.28121  -0.28037  -0.27824
 Alpha  occ. eigenvalues --   -0.27598  -0.27406  -0.26687  -0.26613  -0.26570
 Alpha  occ. eigenvalues --   -0.26482  -0.26122  -0.26021  -0.25883  -0.25459
 Alpha  occ. eigenvalues --   -0.25119  -0.24876  -0.24601  -0.23996  -0.23795
 Alpha  occ. eigenvalues --   -0.23586  -0.22775  -0.21939  -0.21764  -0.20975
 Alpha  occ. eigenvalues --   -0.20623  -0.19244  -0.18944  -0.18445  -0.17525
 Alpha  occ. eigenvalues --   -0.16085
 Alpha virt. eigenvalues --   -0.11762  -0.07434  -0.07011  -0.05293  -0.03684
 Alpha virt. eigenvalues --   -0.03445  -0.02766  -0.02561  -0.02265  -0.00687
 Alpha virt. eigenvalues --    0.00585   0.01152   0.02035   0.02563   0.02924

 Mulliken charges:
               1
     1  Mg   0.712212
     2  C   -0.058756
     3  C   -0.067901
     4  C   -0.024580
     5  C   -0.082399
     6  N   -0.219208
     7  C   -0.096356
     8  C    0.078368
     9  C    0.011838
    10  C    0.011251
    11  C    0.150938
    12  C    0.098054
    13  C    0.122178
    14  C    0.067923
    15  O   -0.195019
    16  O   -0.261570
    17  N   -0.267421
    18  C    0.119539
    19  C   -0.144962
    20  C    0.087892
    21  C    0.043419
    22  C    0.194938
    23  C   -0.105496
    24  O   -0.199157
    25  C    0.141846
    26  N   -0.164479
    27  C    0.031198
    28  C    0.003194
    29  C    0.091488
    30  C    0.000082
    31  C    0.157253
    32  C    0.121307
    33  C    0.040704
    34  N   -0.340474
    35  C    0.110607
    36  C   -0.223132
    37  C    0.102978
    38  C    0.198607
    39  C    0.185558
    40  C   -0.081450
    41  O   -0.162217
    42  C    0.130641
    43  C    0.093013
    44  O   -0.151690
    45  O   -0.310921
    46  C    0.228707
    47  C    0.339204
    48  C   -0.128972
    49  C   -0.126605
    50  C    0.186191
    51  C    0.097213
    52  C    0.026605
    53  C    0.152545
    54  C   -0.098350
    55  C    0.157016
    56  C    0.112051
    57  C    0.050700
    58  C    0.108461
    59  C   -0.092327
    60  C    0.103255
    61  C    0.120545
    62  C    0.057465
    63  C    0.116846
    64  C   -0.067703
    65  C    0.108801
    66  C    0.098962
    67  H   -0.073149
    68  H   -0.104297
    69  H   -0.060719
    70  H   -0.022268
    71  H   -0.017328
    72  H    0.008886
    73  H   -0.015612
    74  H   -0.021595
    75  H   -0.016986
    76  H   -0.008742
    77  H   -0.003487
    78  H    0.011555
    79  H    0.019096
    80  H   -0.028807
    81  H   -0.008079
    82  H    0.031141
    83  H    0.011536
    84  H   -0.006589
    85  H   -0.016602
    86  H   -0.035156
    87  H   -0.009087
    88  H   -0.023018
    89  H   -0.021120
    90  H   -0.023814
    91  H   -0.013872
    92  H   -0.015301
    93  H   -0.025409
    94  H   -0.010766
    95  H    0.028018
    96  H   -0.019451
    97  H    0.014177
    98  H    0.015562
    99  H    0.014192
   100  H    0.008471
   101  H    0.018863
   102  H   -0.000839
   103  H   -0.030613
   104  H   -0.044774
   105  H   -0.020441
   106  H    0.014197
   107  H   -0.012560
   108  H   -0.018706
   109  H   -0.046048
   110  H   -0.030757
   111  H   -0.031221
   112  H   -0.044176
   113  H   -0.034881
   114  H   -0.029387
   115  H   -0.040625
   116  H   -0.036139
   117  H    0.007131
   118  H   -0.033542
   119  H   -0.027447
   120  H   -0.030994
   121  H   -0.016931
   122  H   -0.033299
   123  H   -0.030998
   124  H   -0.036636
   125  H   -0.015261
   126  H   -0.021717
   127  H   -0.028406
   128  H   -0.049707
   129  H   -0.038060
   130  H   -0.039495
   131  H   -0.023927
   132  H   -0.028363
   133  H   -0.035538
   134  H   -0.037838
   135  H   -0.024683
   136  H   -0.039800
   137  H   -0.027673
   138  H   -0.027753
   139  H   -0.022197
   140  H   -0.010589
 Sum of Mulliken charges =  -0.00000

 Dipole moment (field-independent basis, Debye):
    X=             -0.4516    Y=              5.5843    Z=              1.4048  Tot=              5.7759
 Quadrupole moment (field-independent basis, Debye-Ang):
   XX=           -402.9861   YY=           -431.1753   ZZ=           -401.7103
   XY=            -49.5612   XZ=            -29.5485   YZ=            -39.6291

 Normal termination of Gaussian 16 at Wed May  4 20:22:11 2022.
