 Gaussian 16, Revision A.03,
 Gaussian 16:  ES64L-G16RevA.03 25-Dec-2016

 -----------------------------------
 #p cam-b3lyp/Def2SVP td=(nstates=5)
 -----------------------------------

 -------------------------------------------------------
 step_301_chromophore_26 TDDFT with cam-b3lyp functional
 -------------------------------------------------------
 Symbolic Z-matrix:
 Charge =  0 Multiplicity = 1

                         Standard orientation:
 ---------------------------------------------------------------------
 Center     Atomic      Atomic             Coordinates (Angstroms)
 Number     Number       Type             X           Y           Z
 ---------------------------------------------------------------------
      1         12           0       -4.407949    1.267887    0.639774
      2          6           0       -5.270652   -2.093494    0.030404
      3          6           0       -2.361790    0.107143    3.222365
      4          6           0       -3.021680    4.360217    0.832396
      5          6           0       -5.874351    2.218693   -2.414212
      6          7           0       -3.884775   -0.741599    1.517793
      7          6           0       -4.451359   -2.010129    1.164235
      8          6           0       -3.913221   -3.119741    1.969134
      9          6           0       -3.147666   -2.377701    3.159231
     10          6           0       -3.090105   -0.962026    2.593712
     11          6           0       -3.671705   -2.439990    4.616451
     12          6           0       -2.888619   -4.088818    1.139252
     13          6           0       -1.768395   -3.443821    0.227812
     14          6           0       -0.576085   -4.243456   -0.237196
     15          8           0       -0.659116   -5.371194   -0.698431
     16          8           0        0.646414   -3.677835   -0.003368
     17          7           0       -2.897055    2.095316    1.910534
     18          6           0       -2.167153    1.484296    2.839168
     19          6           0       -1.409133    2.437515    3.525189
     20          6           0       -1.404074    3.632125    2.816056
     21          6           0       -2.434331    3.400289    1.763881
     22          6           0       -0.627865    2.143624    4.707525
     23          6           0       -0.641711    4.900369    3.068603
     24          8           0        0.141412    4.915244    4.040811
     25          6           0       -0.548650    6.098601    2.131952
     26          7           0       -4.432523    3.021621   -0.740098
     27          6           0       -3.958891    4.176160   -0.258232
     28          6           0       -4.326029    5.328800   -1.138320
     29          6           0       -5.357193    4.717027   -2.120890
     30          6           0       -5.284948    3.213638   -1.729218
     31          6           0       -4.705511    6.606412   -0.459423
     32          6           0       -5.136392    5.029758   -3.612911
     33          6           0       -6.194301    5.735115   -4.358448
     34          7           0       -5.390242    0.381465   -0.798419
     35          6           0       -5.960896    0.837650   -1.980987
     36          6           0       -6.661116   -0.317398   -2.589929
     37          6           0       -6.418828   -1.402939   -1.781173
     38          6           0       -5.587238   -0.988875   -0.748123
     39          6           0       -7.305215   -0.276937   -3.898850
     40          6           0       -6.682678   -2.826989   -1.705981
     41          8           0       -7.246695   -3.583244   -2.538703
     42          6           0       -5.878572   -3.315020   -0.527360
     43          6           0       -6.857968   -3.959648    0.371050
     44          8           0       -7.021998   -5.148003    0.564596
     45          8           0       -7.564668   -3.003423    1.127816
     46          6           0       -8.358435   -3.539333    2.245314
     47          6           0        1.861410   -4.428072    0.027243
     48          6           0        2.967521   -3.710251   -0.601583
     49          6           0        3.091433   -3.132421   -1.857055
     50          6           0        1.980300   -3.257293   -2.900950
     51          6           0        4.386490   -2.519266   -2.217191
     52          6           0        4.339510   -1.026650   -2.907330
     53          6           0        5.712446   -0.419005   -3.050940
     54          6           0        6.186858    0.300189   -1.811801
     55          6           0        5.730294    1.763172   -1.779156
     56          6           0        7.739766    0.083409   -1.629489
     57          6           0        8.105578   -0.378115   -0.153907
     58          6           0        9.293837   -1.357644   -0.107021
     59          6           0       10.582217   -0.613026    0.453343
     60          6           0       10.633602   -0.765518    1.990118
     61          6           0       11.920410   -1.027825   -0.229079
     62          6           0       12.796486    0.105307   -0.733642
     63          6           0       13.737558    0.825060    0.359853
     64          6           0       15.231705    0.785371    0.032443
     65          6           0       16.217674    0.837227    1.152441
     66          6           0       15.544721    1.869093   -0.962832
     67          1           0       -1.802059   -0.155157    4.123530
     68          1           0       -2.546976    5.321414    1.041256
     69          1           0       -6.473728    2.479132   -3.289808
     70          1           0       -4.779313   -3.662467    2.348579
     71          1           0       -2.127051   -2.755895    3.210579
     72          1           0       -2.873646   -2.688032    5.315931
     73          1           0       -4.616923   -2.983017    4.645992
     74          1           0       -4.077085   -1.495115    4.976711
     75          1           0       -3.504183   -4.622505    0.414502
     76          1           0       -2.556970   -4.987638    1.657394
     77          1           0       -1.482273   -2.521377    0.732715
     78          1           0       -2.166894   -3.121611   -0.734377
     79          1           0        0.400105    2.314164    4.388814
     80          1           0       -0.771690    1.241180    5.302588
     81          1           0       -0.917798    2.823197    5.508094
     82          1           0       -1.484548    6.656661    2.127008
     83          1           0       -0.261200    5.774691    1.132337
     84          1           0        0.283226    6.691092    2.512817
     85          1           0       -3.406928    5.538276   -1.686832
     86          1           0       -6.362560    5.045921   -1.859874
     87          1           0       -4.062095    7.457832   -0.682288
     88          1           0       -4.636492    6.425649    0.613875
     89          1           0       -5.757060    6.870698   -0.566286
     90          1           0       -5.205178    4.058217   -4.102714
     91          1           0       -4.264551    5.627654   -3.877778
     92          1           0       -5.764573    6.531257   -4.965913
     93          1           0       -6.890314    6.149133   -3.628694
     94          1           0       -6.830911    5.169056   -5.038442
     95          1           0       -6.584339   -0.886401   -4.444243
     96          1           0       -7.471958    0.721541   -4.302504
     97          1           0       -8.273834   -0.725205   -3.676859
     98          1           0       -5.174195   -4.083272   -0.845667
     99          1           0       -9.206626   -4.073017    1.816643
    100          1           0       -8.786437   -2.668080    2.740274
    101          1           0       -7.774523   -4.179734    2.905786
    102          1           0        1.668264   -5.439848   -0.330574
    103          1           0        2.192290   -4.572260    1.055747
    104          1           0        3.761915   -3.549095    0.126738
    105          1           0        1.085270   -3.728224   -2.494934
    106          1           0        2.397894   -3.576668   -3.856171
    107          1           0        1.570606   -2.248189   -2.935604
    108          1           0        5.032994   -3.220005   -2.746253
    109          1           0        5.041995   -2.434112   -1.349903
    110          1           0        3.686486   -0.491720   -2.218822
    111          1           0        3.646981   -1.070152   -3.748270
    112          1           0        5.646145    0.321344   -3.847317
    113          1           0        6.408086   -1.217496   -3.310568
    114          1           0        5.602544   -0.286497   -1.103225
    115          1           0        5.074445    1.841269   -2.646317
    116          1           0        6.552371    2.339416   -2.204972
    117          1           0        5.339888    2.212984   -0.866460
    118          1           0        8.277622    1.028671   -1.695496
    119          1           0        8.138341   -0.582179   -2.394458
    120          1           0        7.303093   -0.972793    0.281975
    121          1           0        8.275179    0.503525    0.464002
    122          1           0        9.560142   -1.710336   -1.104285
    123          1           0        9.104067   -2.193502    0.566281
    124          1           0       10.447441    0.448051    0.245158
    125          1           0        9.934177   -0.137539    2.542076
    126          1           0       11.642562   -0.636309    2.381824
    127          1           0       10.405541   -1.791100    2.279738
    128          1           0       11.616560   -1.644906   -1.074647
    129          1           0       12.518303   -1.635195    0.450666
    130          1           0       12.062280    0.864561   -1.005054
    131          1           0       13.362747   -0.173771   -1.621084
    132          1           0       13.502645    0.406688    1.338195
    133          1           0       13.469193    1.878531    0.284081
    134          1           0       15.462502   -0.147228   -0.481428
    135          1           0       15.687282    1.015418    2.088702
    136          1           0       16.994704    1.599287    1.104510
    137          1           0       16.972451    0.069710    1.319317
    138          1           0       14.654682    2.081238   -1.555597
    139          1           0       16.287330    1.436065   -1.633413
    140          1           0       15.886955    2.830342   -0.580705
 ---------------------------------------------------------------------

 SCF Done:  E(RCAM-B3LYP) =  -3007.11011627     A.U. after   17 cycles

 Excitation energies and oscillator strengths:

 Excited State   1:      Singlet-A      1.7128 eV  723.87 nm  f=0.3359  <S**2>=0.000
     245 -> 248        0.18544
     246 -> 247        0.68392
     245 <- 248        0.10821
 This state for optimization and/or second-order correction.
 Total Energy, E(TD-HF/TD-DFT) =  -3007.04717244
 Copying the excited state density for this state as the 1-particle RhoCI density.

 Excited State   2:      Singlet-A      2.2467 eV  551.85 nm  f=0.0885  <S**2>=0.000
     245 -> 247        0.62711
     246 -> 248       -0.31348

 Excited State   3:      Singlet-A      3.3680 eV  368.12 nm  f=0.1217  <S**2>=0.000
     242 -> 247        0.52742
     243 -> 247        0.25463
     245 -> 247       -0.12518
     246 -> 248       -0.35280

 Excited State   4:      Singlet-A      3.4708 eV  357.22 nm  f=0.0309  <S**2>=0.000
     240 -> 247        0.48089
     240 -> 248       -0.14691
     240 -> 249        0.26333
     240 -> 251       -0.27248
     241 -> 247        0.14358
     241 -> 249        0.11639
     246 -> 248        0.13046

 Excited State   5:      Singlet-A      3.5129 eV  352.94 nm  f=0.0847  <S**2>=0.000
     240 -> 249       -0.13719
     241 -> 247       -0.30228
     241 -> 249        0.24228
     241 -> 250       -0.13319
     241 -> 251        0.11433
     243 -> 247        0.42984
     243 -> 249       -0.11416
     245 -> 247        0.11012
     246 -> 248        0.23212

 The electronic state is 1-A.
 Alpha  occ. eigenvalues --  -46.89476 -19.24512 -19.24013 -19.20338 -19.19339
 Alpha  occ. eigenvalues --  -19.19045 -19.18850 -14.42988 -14.41949 -14.39960
 Alpha  occ. eigenvalues --  -14.39906 -10.39749 -10.39621 -10.35570 -10.35152
 Alpha  occ. eigenvalues --  -10.32049 -10.31966 -10.31964 -10.31653 -10.31024
 Alpha  occ. eigenvalues --  -10.30968 -10.30181 -10.30080 -10.29952 -10.29874
 Alpha  occ. eigenvalues --  -10.29102 -10.28885 -10.28664 -10.28642 -10.28324
 Alpha  occ. eigenvalues --  -10.28182 -10.28089 -10.28084 -10.27974 -10.27658
 Alpha  occ. eigenvalues --  -10.27582 -10.27437 -10.27427 -10.27315 -10.27165
 Alpha  occ. eigenvalues --  -10.26942 -10.26909 -10.26283 -10.26123 -10.25809
 Alpha  occ. eigenvalues --  -10.25695 -10.25556 -10.25546 -10.25363 -10.25357
 Alpha  occ. eigenvalues --  -10.25356 -10.25214 -10.25096 -10.24942 -10.24912
 Alpha  occ. eigenvalues --  -10.24883 -10.24873 -10.24842 -10.24791 -10.24677
 Alpha  occ. eigenvalues --  -10.24554 -10.24550 -10.24341 -10.24205 -10.23771
 Alpha  occ. eigenvalues --  -10.23749  -3.18042  -1.92912  -1.92519  -1.92331
 Alpha  occ. eigenvalues --   -1.16402  -1.15829  -1.09090  -1.08208  -1.07538
 Alpha  occ. eigenvalues --   -1.07472  -1.05818  -1.04396  -1.03613  -1.02516
 Alpha  occ. eigenvalues --   -0.94722  -0.90483  -0.90169  -0.89533  -0.89342
 Alpha  occ. eigenvalues --   -0.89214  -0.88727  -0.88019  -0.87858  -0.87781
 Alpha  occ. eigenvalues --   -0.86824  -0.85980  -0.85089  -0.84636  -0.83915
 Alpha  occ. eigenvalues --   -0.82891  -0.82559  -0.81624  -0.80855  -0.80577
 Alpha  occ. eigenvalues --   -0.79531  -0.78835  -0.78156  -0.77884  -0.77329
 Alpha  occ. eigenvalues --   -0.76177  -0.75732  -0.75430  -0.74686  -0.74319
 Alpha  occ. eigenvalues --   -0.73686  -0.72844  -0.72330  -0.71151  -0.69531
 Alpha  occ. eigenvalues --   -0.69126  -0.68631  -0.68121  -0.67212  -0.66242
 Alpha  occ. eigenvalues --   -0.66121  -0.65377  -0.64766  -0.64717  -0.63929
 Alpha  occ. eigenvalues --   -0.63516  -0.63440  -0.63150  -0.62401  -0.60412
 Alpha  occ. eigenvalues --   -0.59830  -0.59777  -0.59469  -0.59057  -0.58474
 Alpha  occ. eigenvalues --   -0.57946  -0.57447  -0.57051  -0.56661  -0.56404
 Alpha  occ. eigenvalues --   -0.55640  -0.55171  -0.54612  -0.54309  -0.54225
 Alpha  occ. eigenvalues --   -0.53806  -0.53665  -0.53378  -0.53303  -0.53180
 Alpha  occ. eigenvalues --   -0.52908  -0.52751  -0.52543  -0.52332  -0.52123
 Alpha  occ. eigenvalues --   -0.52014  -0.51646  -0.51526  -0.51421  -0.51258
 Alpha  occ. eigenvalues --   -0.51176  -0.50734  -0.50519  -0.50187  -0.49984
 Alpha  occ. eigenvalues --   -0.49642  -0.49512  -0.49241  -0.49103  -0.48966
 Alpha  occ. eigenvalues --   -0.48704  -0.48545  -0.48398  -0.47915  -0.47850
 Alpha  occ. eigenvalues --   -0.47793  -0.47324  -0.47136  -0.46991  -0.46891
 Alpha  occ. eigenvalues --   -0.46744  -0.46595  -0.46193  -0.45982  -0.45945
 Alpha  occ. eigenvalues --   -0.45626  -0.45484  -0.45301  -0.45120  -0.45004
 Alpha  occ. eigenvalues --   -0.44829  -0.44557  -0.44200  -0.43908  -0.43785
 Alpha  occ. eigenvalues --   -0.43742  -0.43555  -0.43395  -0.43294  -0.43162
 Alpha  occ. eigenvalues --   -0.42686  -0.42511  -0.42483  -0.42347  -0.42231
 Alpha  occ. eigenvalues --   -0.41916  -0.41855  -0.41724  -0.41445  -0.41198
 Alpha  occ. eigenvalues --   -0.41024  -0.40889  -0.40652  -0.40354  -0.39949
 Alpha  occ. eigenvalues --   -0.39647  -0.39264  -0.39238  -0.39098  -0.38717
 Alpha  occ. eigenvalues --   -0.38561  -0.38219  -0.37797  -0.37485  -0.37268
 Alpha  occ. eigenvalues --   -0.37221  -0.36943  -0.36876  -0.36782  -0.36606
 Alpha  occ. eigenvalues --   -0.36172  -0.35750  -0.35398  -0.34974  -0.34530
 Alpha  occ. eigenvalues --   -0.34123  -0.33948  -0.33187  -0.31497  -0.31205
 Alpha  occ. eigenvalues --   -0.31145  -0.30315  -0.29926  -0.28711  -0.24305
 Alpha  occ. eigenvalues --   -0.21425
 Alpha virt. eigenvalues --   -0.08791  -0.02377  -0.00472   0.01176   0.01676
 Alpha virt. eigenvalues --    0.04190   0.04651   0.04969   0.05319   0.06687
 Alpha virt. eigenvalues --    0.07066   0.07688   0.08298   0.08811   0.09108

 Mulliken charges:
               1
     1  Mg   0.842888
     2  C   -0.081448
     3  C   -0.080091
     4  C   -0.047312
     5  C   -0.083910
     6  N   -0.283151
     7  C   -0.053180
     8  C    0.026249
     9  C   -0.039661
    10  C    0.028658
    11  C    0.086891
    12  C    0.048450
    13  C    0.051972
    14  C    0.153053
    15  O   -0.236306
    16  O   -0.326953
    17  N   -0.354111
    18  C    0.131459
    19  C   -0.143388
    20  C    0.012783
    21  C    0.080234
    22  C    0.128597
    23  C   -0.026935
    24  O   -0.236469
    25  C    0.056988
    26  N   -0.236622
    27  C    0.059770
    28  C   -0.055316
    29  C    0.035632
    30  C    0.017688
    31  C    0.090576
    32  C    0.057135
    33  C   -0.016535
    34  N   -0.428840
    35  C    0.113438
    36  C   -0.223142
    37  C    0.019555
    38  C    0.228894
    39  C    0.132450
    40  C    0.022852
    41  O   -0.199685
    42  C    0.045036
    43  C    0.183369
    44  O   -0.189325
    45  O   -0.372683
    46  C    0.188896
    47  C    0.305161
    48  C   -0.158347
    49  C   -0.142229
    50  C    0.122692
    51  C    0.045925
    52  C   -0.027254
    53  C    0.090296
    54  C   -0.152294
    55  C    0.094665
    56  C    0.061247
    57  C    0.000069
    58  C    0.054813
    59  C   -0.147685
    60  C    0.049112
    61  C    0.066283
    62  C    0.005231
    63  C    0.059470
    64  C   -0.127082
    65  C    0.045425
    66  C    0.037303
    67  H   -0.037380
    68  H   -0.069054
    69  H   -0.028315
    70  H    0.012073
    71  H    0.018737
    72  H    0.032947
    73  H    0.010429
    74  H    0.006653
    75  H    0.011018
    76  H    0.023529
    77  H    0.027518
    78  H    0.040490
    79  H    0.047915
    80  H    0.001683
    81  H    0.022322
    82  H    0.056176
    83  H    0.041479
    84  H    0.031715
    85  H    0.019506
    86  H    0.000166
    87  H    0.016996
    88  H    0.003918
    89  H    0.006542
    90  H    0.007577
    91  H    0.014802
    92  H    0.009395
    93  H   -0.002988
    94  H    0.012950
    95  H    0.051603
    96  H    0.004166
    97  H    0.038501
    98  H    0.058084
    99  H    0.037696
   100  H    0.032462
   101  H    0.038820
   102  H    0.033333
   103  H   -0.002176
   104  H   -0.012152
   105  H    0.005598
   106  H    0.037935
   107  H    0.012019
   108  H    0.010105
   109  H   -0.018054
   110  H   -0.002243
   111  H   -0.001396
   112  H   -0.013377
   113  H   -0.004960
   114  H    0.000029
   115  H   -0.014727
   116  H   -0.010694
   117  H    0.031311
   118  H   -0.006260
   119  H    0.000135
   120  H   -0.003829
   121  H    0.008826
   122  H   -0.005616
   123  H   -0.002254
   124  H   -0.007591
   125  H    0.008955
   126  H    0.000799
   127  H   -0.004828
   128  H   -0.018166
   129  H   -0.009474
   130  H   -0.011630
   131  H    0.003996
   132  H   -0.003485
   133  H   -0.005453
   134  H   -0.005326
   135  H    0.000152
   136  H   -0.012930
   137  H   -0.001268
   138  H   -0.003955
   139  H    0.003222
   140  H    0.014042
 Sum of Mulliken charges =  -0.00000

 Dipole moment (field-independent basis, Debye):
    X=              0.0660    Y=              6.3504    Z=              2.0963  Tot=              6.6877
 Quadrupole moment (field-independent basis, Debye-Ang):
   XX=           -405.0780   YY=           -427.6273   ZZ=           -399.8525
   XY=            -51.6049   XZ=            -31.5711   YZ=            -40.5850

 Normal termination of Gaussian 16 at Wed May  4 18:34:46 2022.
