 Gaussian 16, Revision A.03,
 Gaussian 16:  ES64L-G16RevA.03 25-Dec-2016

 ---------------------------------
 #p PBE1PBE/Def2SVP td=(nstates=5)
 ---------------------------------

 -----------------------------------------------------
 step_301_chromophore_26 TDDFT with PBE1PBE functional
 -----------------------------------------------------
 Symbolic Z-matrix:
 Charge =  0 Multiplicity = 1

                         Standard orientation:
 ---------------------------------------------------------------------
 Center     Atomic      Atomic             Coordinates (Angstroms)
 Number     Number       Type             X           Y           Z
 ---------------------------------------------------------------------
      1         12           0       -4.407949    1.267887    0.639774
      2          6           0       -5.270652   -2.093494    0.030404
      3          6           0       -2.361790    0.107143    3.222365
      4          6           0       -3.021680    4.360217    0.832396
      5          6           0       -5.874351    2.218693   -2.414212
      6          7           0       -3.884775   -0.741599    1.517793
      7          6           0       -4.451359   -2.010129    1.164235
      8          6           0       -3.913221   -3.119741    1.969134
      9          6           0       -3.147666   -2.377701    3.159231
     10          6           0       -3.090105   -0.962026    2.593712
     11          6           0       -3.671705   -2.439990    4.616451
     12          6           0       -2.888619   -4.088818    1.139252
     13          6           0       -1.768395   -3.443821    0.227812
     14          6           0       -0.576085   -4.243456   -0.237196
     15          8           0       -0.659116   -5.371194   -0.698431
     16          8           0        0.646414   -3.677835   -0.003368
     17          7           0       -2.897055    2.095316    1.910534
     18          6           0       -2.167153    1.484296    2.839168
     19          6           0       -1.409133    2.437515    3.525189
     20          6           0       -1.404074    3.632125    2.816056
     21          6           0       -2.434331    3.400289    1.763881
     22          6           0       -0.627865    2.143624    4.707525
     23          6           0       -0.641711    4.900369    3.068603
     24          8           0        0.141412    4.915244    4.040811
     25          6           0       -0.548650    6.098601    2.131952
     26          7           0       -4.432523    3.021621   -0.740098
     27          6           0       -3.958891    4.176160   -0.258232
     28          6           0       -4.326029    5.328800   -1.138320
     29          6           0       -5.357193    4.717027   -2.120890
     30          6           0       -5.284948    3.213638   -1.729218
     31          6           0       -4.705511    6.606412   -0.459423
     32          6           0       -5.136392    5.029758   -3.612911
     33          6           0       -6.194301    5.735115   -4.358448
     34          7           0       -5.390242    0.381465   -0.798419
     35          6           0       -5.960896    0.837650   -1.980987
     36          6           0       -6.661116   -0.317398   -2.589929
     37          6           0       -6.418828   -1.402939   -1.781173
     38          6           0       -5.587238   -0.988875   -0.748123
     39          6           0       -7.305215   -0.276937   -3.898850
     40          6           0       -6.682678   -2.826989   -1.705981
     41          8           0       -7.246695   -3.583244   -2.538703
     42          6           0       -5.878572   -3.315020   -0.527360
     43          6           0       -6.857968   -3.959648    0.371050
     44          8           0       -7.021998   -5.148003    0.564596
     45          8           0       -7.564668   -3.003423    1.127816
     46          6           0       -8.358435   -3.539333    2.245314
     47          6           0        1.861410   -4.428072    0.027243
     48          6           0        2.967521   -3.710251   -0.601583
     49          6           0        3.091433   -3.132421   -1.857055
     50          6           0        1.980300   -3.257293   -2.900950
     51          6           0        4.386490   -2.519266   -2.217191
     52          6           0        4.339510   -1.026650   -2.907330
     53          6           0        5.712446   -0.419005   -3.050940
     54          6           0        6.186858    0.300189   -1.811801
     55          6           0        5.730294    1.763172   -1.779156
     56          6           0        7.739766    0.083409   -1.629489
     57          6           0        8.105578   -0.378115   -0.153907
     58          6           0        9.293837   -1.357644   -0.107021
     59          6           0       10.582217   -0.613026    0.453343
     60          6           0       10.633602   -0.765518    1.990118
     61          6           0       11.920410   -1.027825   -0.229079
     62          6           0       12.796486    0.105307   -0.733642
     63          6           0       13.737558    0.825060    0.359853
     64          6           0       15.231705    0.785371    0.032443
     65          6           0       16.217674    0.837227    1.152441
     66          6           0       15.544721    1.869093   -0.962832
     67          1           0       -1.802059   -0.155157    4.123530
     68          1           0       -2.546976    5.321414    1.041256
     69          1           0       -6.473728    2.479132   -3.289808
     70          1           0       -4.779313   -3.662467    2.348579
     71          1           0       -2.127051   -2.755895    3.210579
     72          1           0       -2.873646   -2.688032    5.315931
     73          1           0       -4.616923   -2.983017    4.645992
     74          1           0       -4.077085   -1.495115    4.976711
     75          1           0       -3.504183   -4.622505    0.414502
     76          1           0       -2.556970   -4.987638    1.657394
     77          1           0       -1.482273   -2.521377    0.732715
     78          1           0       -2.166894   -3.121611   -0.734377
     79          1           0        0.400105    2.314164    4.388814
     80          1           0       -0.771690    1.241180    5.302588
     81          1           0       -0.917798    2.823197    5.508094
     82          1           0       -1.484548    6.656661    2.127008
     83          1           0       -0.261200    5.774691    1.132337
     84          1           0        0.283226    6.691092    2.512817
     85          1           0       -3.406928    5.538276   -1.686832
     86          1           0       -6.362560    5.045921   -1.859874
     87          1           0       -4.062095    7.457832   -0.682288
     88          1           0       -4.636492    6.425649    0.613875
     89          1           0       -5.757060    6.870698   -0.566286
     90          1           0       -5.205178    4.058217   -4.102714
     91          1           0       -4.264551    5.627654   -3.877778
     92          1           0       -5.764573    6.531257   -4.965913
     93          1           0       -6.890314    6.149133   -3.628694
     94          1           0       -6.830911    5.169056   -5.038442
     95          1           0       -6.584339   -0.886401   -4.444243
     96          1           0       -7.471958    0.721541   -4.302504
     97          1           0       -8.273834   -0.725205   -3.676859
     98          1           0       -5.174195   -4.083272   -0.845667
     99          1           0       -9.206626   -4.073017    1.816643
    100          1           0       -8.786437   -2.668080    2.740274
    101          1           0       -7.774523   -4.179734    2.905786
    102          1           0        1.668264   -5.439848   -0.330574
    103          1           0        2.192290   -4.572260    1.055747
    104          1           0        3.761915   -3.549095    0.126738
    105          1           0        1.085270   -3.728224   -2.494934
    106          1           0        2.397894   -3.576668   -3.856171
    107          1           0        1.570606   -2.248189   -2.935604
    108          1           0        5.032994   -3.220005   -2.746253
    109          1           0        5.041995   -2.434112   -1.349903
    110          1           0        3.686486   -0.491720   -2.218822
    111          1           0        3.646981   -1.070152   -3.748270
    112          1           0        5.646145    0.321344   -3.847317
    113          1           0        6.408086   -1.217496   -3.310568
    114          1           0        5.602544   -0.286497   -1.103225
    115          1           0        5.074445    1.841269   -2.646317
    116          1           0        6.552371    2.339416   -2.204972
    117          1           0        5.339888    2.212984   -0.866460
    118          1           0        8.277622    1.028671   -1.695496
    119          1           0        8.138341   -0.582179   -2.394458
    120          1           0        7.303093   -0.972793    0.281975
    121          1           0        8.275179    0.503525    0.464002
    122          1           0        9.560142   -1.710336   -1.104285
    123          1           0        9.104067   -2.193502    0.566281
    124          1           0       10.447441    0.448051    0.245158
    125          1           0        9.934177   -0.137539    2.542076
    126          1           0       11.642562   -0.636309    2.381824
    127          1           0       10.405541   -1.791100    2.279738
    128          1           0       11.616560   -1.644906   -1.074647
    129          1           0       12.518303   -1.635195    0.450666
    130          1           0       12.062280    0.864561   -1.005054
    131          1           0       13.362747   -0.173771   -1.621084
    132          1           0       13.502645    0.406688    1.338195
    133          1           0       13.469193    1.878531    0.284081
    134          1           0       15.462502   -0.147228   -0.481428
    135          1           0       15.687282    1.015418    2.088702
    136          1           0       16.994704    1.599287    1.104510
    137          1           0       16.972451    0.069710    1.319317
    138          1           0       14.654682    2.081238   -1.555597
    139          1           0       16.287330    1.436065   -1.633413
    140          1           0       15.886955    2.830342   -0.580705
 ---------------------------------------------------------------------

 SCF Done:  E(RPBE1PBE) =  -3005.30084642     A.U. after   15 cycles

 Excitation energies and oscillator strengths:

 Excited State   1:      Singlet-A      1.8454 eV  671.84 nm  f=0.3279  <S**2>=0.000
     245 -> 248        0.17994
     246 -> 247        0.69033
 This state for optimization and/or second-order correction.
 Total Energy, E(TD-HF/TD-DFT) =  -3005.23302792
 Copying the excited state density for this state as the 1-particle RhoCI density.

 Excited State   2:      Singlet-A      2.2561 eV  549.56 nm  f=0.0886  <S**2>=0.000
     245 -> 247        0.63997
     246 -> 248       -0.29107

 Excited State   3:      Singlet-A      2.9974 eV  413.64 nm  f=0.0001  <S**2>=0.000
     241 -> 247        0.31047
     242 -> 247        0.45671
     242 -> 249       -0.12052
     242 -> 250       -0.10536
     243 -> 247        0.36251

 Excited State   4:      Singlet-A      3.0557 eV  405.75 nm  f=0.0016  <S**2>=0.000
     240 -> 247       -0.22911
     240 -> 249       -0.14108
     242 -> 247       -0.36592
     243 -> 247        0.50052
     244 -> 247        0.11464

 Excited State   5:      Singlet-A      3.0704 eV  403.80 nm  f=0.0001  <S**2>=0.000
     244 -> 247        0.69738

 The electronic state is 1-A.
 Alpha  occ. eigenvalues --  -46.92868 -19.25223 -19.24696 -19.20613 -19.19624
 Alpha  occ. eigenvalues --  -19.19444 -19.18901 -14.42484 -14.41438 -14.39766
 Alpha  occ. eigenvalues --  -14.39426 -10.36836 -10.36643 -10.32570 -10.32461
 Alpha  occ. eigenvalues --  -10.29562 -10.29518 -10.29219 -10.29078 -10.28892
 Alpha  occ. eigenvalues --  -10.28386 -10.28239 -10.27916 -10.27733 -10.27320
 Alpha  occ. eigenvalues --  -10.26856 -10.26810 -10.26388 -10.26318 -10.25999
 Alpha  occ. eigenvalues --  -10.25837 -10.25816 -10.25761 -10.25389 -10.25373
 Alpha  occ. eigenvalues --  -10.25290 -10.25153 -10.25064 -10.24941 -10.24663
 Alpha  occ. eigenvalues --  -10.24606 -10.24132 -10.23775 -10.23692 -10.23375
 Alpha  occ. eigenvalues --  -10.23251 -10.23161 -10.23062 -10.23052 -10.22933
 Alpha  occ. eigenvalues --  -10.22681 -10.22652 -10.22611 -10.22524 -10.22500
 Alpha  occ. eigenvalues --  -10.22488 -10.22427 -10.22422 -10.22393 -10.22338
 Alpha  occ. eigenvalues --  -10.22251 -10.21926 -10.21880 -10.21586 -10.21133
 Alpha  occ. eigenvalues --  -10.21108  -3.15013  -1.87822  -1.87409  -1.87225
 Alpha  occ. eigenvalues --   -1.11222  -1.10617  -1.03636  -1.03055  -1.02407
 Alpha  occ. eigenvalues --   -1.02355  -1.00452  -0.98882  -0.98300  -0.97231
 Alpha  occ. eigenvalues --   -0.89230  -0.84574  -0.84457  -0.83650  -0.83615
 Alpha  occ. eigenvalues --   -0.83422  -0.82893  -0.82310  -0.82055  -0.81964
 Alpha  occ. eigenvalues --   -0.81175  -0.80164  -0.79443  -0.78892  -0.78064
 Alpha  occ. eigenvalues --   -0.77199  -0.76762  -0.75757  -0.75049  -0.74909
 Alpha  occ. eigenvalues --   -0.73683  -0.73162  -0.72479  -0.72091  -0.71626
 Alpha  occ. eigenvalues --   -0.70329  -0.69816  -0.69806  -0.68791  -0.68477
 Alpha  occ. eigenvalues --   -0.68012  -0.67296  -0.66789  -0.65422  -0.63894
 Alpha  occ. eigenvalues --   -0.63616  -0.62916  -0.62564  -0.61462  -0.60593
 Alpha  occ. eigenvalues --   -0.60580  -0.59970  -0.59281  -0.58972  -0.58417
 Alpha  occ. eigenvalues --   -0.57721  -0.57639  -0.57613  -0.56546  -0.54938
 Alpha  occ. eigenvalues --   -0.54396  -0.54277  -0.53872  -0.53653  -0.52867
 Alpha  occ. eigenvalues --   -0.52589  -0.51923  -0.51589  -0.51084  -0.50899
 Alpha  occ. eigenvalues --   -0.50279  -0.49687  -0.49274  -0.48820  -0.48746
 Alpha  occ. eigenvalues --   -0.48273  -0.48170  -0.47880  -0.47766  -0.47609
 Alpha  occ. eigenvalues --   -0.47422  -0.47247  -0.47032  -0.46857  -0.46675
 Alpha  occ. eigenvalues --   -0.46593  -0.46245  -0.46032  -0.45995  -0.45790
 Alpha  occ. eigenvalues --   -0.45711  -0.45334  -0.45110  -0.44714  -0.44623
 Alpha  occ. eigenvalues --   -0.44330  -0.44094  -0.43840  -0.43757  -0.43525
 Alpha  occ. eigenvalues --   -0.43322  -0.43177  -0.42941  -0.42586  -0.42553
 Alpha  occ. eigenvalues --   -0.42348  -0.42051  -0.41736  -0.41724  -0.41547
 Alpha  occ. eigenvalues --   -0.41518  -0.41265  -0.40856  -0.40669  -0.40585
 Alpha  occ. eigenvalues --   -0.40460  -0.40146  -0.40091  -0.39837  -0.39568
 Alpha  occ. eigenvalues --   -0.39537  -0.39345  -0.38894  -0.38671  -0.38534
 Alpha  occ. eigenvalues --   -0.38457  -0.38322  -0.38121  -0.38083  -0.37976
 Alpha  occ. eigenvalues --   -0.37497  -0.37353  -0.37280  -0.37123  -0.36970
 Alpha  occ. eigenvalues --   -0.36741  -0.36631  -0.36593  -0.36380  -0.36099
 Alpha  occ. eigenvalues --   -0.35884  -0.35737  -0.35496  -0.35053  -0.34724
 Alpha  occ. eigenvalues --   -0.34446  -0.34160  -0.33985  -0.33877  -0.33528
 Alpha  occ. eigenvalues --   -0.33486  -0.33016  -0.32797  -0.32299  -0.32279
 Alpha  occ. eigenvalues --   -0.32058  -0.31929  -0.31720  -0.31573  -0.31557
 Alpha  occ. eigenvalues --   -0.31042  -0.30654  -0.30225  -0.29965  -0.29661
 Alpha  occ. eigenvalues --   -0.28916  -0.28876  -0.28746  -0.27116  -0.26250
 Alpha  occ. eigenvalues --   -0.25814  -0.25695  -0.25545  -0.24078  -0.21231
 Alpha  occ. eigenvalues --   -0.19031
 Alpha virt. eigenvalues --   -0.11318  -0.05839  -0.04720  -0.02831  -0.01419
 Alpha virt. eigenvalues --   -0.00355   0.00335   0.00432   0.00676   0.02309
 Alpha virt. eigenvalues --    0.03545   0.03869   0.04757   0.05458   0.05850

 Mulliken charges:
               1
     1  Mg   0.985535
     2  C   -0.087549
     3  C   -0.071558
     4  C   -0.041979
     5  C   -0.079704
     6  N   -0.380955
     7  C    0.036211
     8  C   -0.051058
     9  C   -0.108353
    10  C    0.060103
    11  C    0.029838
    12  C   -0.001035
    13  C   -0.031210
    14  C    0.224570
    15  O   -0.270106
    16  O   -0.359485
    17  N   -0.464794
    18  C    0.162194
    19  C   -0.180975
    20  C   -0.039906
    21  C    0.112105
    22  C    0.073302
    23  C    0.024792
    24  O   -0.268919
    25  C   -0.022557
    26  N   -0.341520
    27  C    0.091088
    28  C   -0.132115
    29  C   -0.043811
    30  C    0.060115
    31  C    0.032537
    32  C   -0.006288
    33  C   -0.083159
    34  N   -0.559475
    35  C    0.147126
    36  C   -0.250291
    37  C   -0.023962
    38  C    0.264271
    39  C    0.076247
    40  C    0.126188
    41  O   -0.244134
    42  C   -0.081041
    43  C    0.279925
    44  O   -0.227802
    45  O   -0.401561
    46  C    0.133313
    47  C    0.262124
    48  C   -0.172072
    49  C   -0.184095
    50  C    0.055740
    51  C   -0.008299
    52  C   -0.091886
    53  C    0.028754
    54  C   -0.237084
    55  C    0.035115
    56  C    0.009342
    57  C   -0.063790
    58  C   -0.000421
    59  C   -0.230016
    60  C   -0.010064
    61  C    0.010990
    62  C   -0.058748
    63  C   -0.004191
    64  C   -0.220188
    65  C   -0.008261
    66  C   -0.025366
    67  H   -0.004249
    68  H   -0.028571
    69  H    0.004868
    70  H    0.052983
    71  H    0.055678
    72  H    0.058654
    73  H    0.037605
    74  H    0.034614
    75  H    0.046125
    76  H    0.055072
    77  H    0.063901
    78  H    0.072434
    79  H    0.074526
    80  H    0.025941
    81  H    0.049578
    82  H    0.079695
    83  H    0.068518
    84  H    0.059425
    85  H    0.057576
    86  H    0.038288
    87  H    0.043972
    88  H    0.032215
    89  H    0.033781
    90  H    0.041580
    91  H    0.046135
    92  H    0.037191
    93  H    0.024900
    94  H    0.039492
    95  H    0.080443
    96  H    0.032561
    97  H    0.067533
    98  H    0.094293
    99  H    0.060204
   100  H    0.054936
   101  H    0.059994
   102  H    0.058786
   103  H    0.025581
   104  H    0.017497
   105  H    0.038050
   106  H    0.064382
   107  H    0.041031
   108  H    0.042575
   109  H    0.014233
   110  H    0.031871
   111  H    0.030781
   112  H    0.020718
   113  H    0.027956
   114  H    0.039763
   115  H    0.013601
   116  H    0.017662
   117  H    0.057924
   118  H    0.026708
   119  H    0.029556
   120  H    0.029115
   121  H    0.040438
   122  H    0.026093
   123  H    0.029790
   124  H    0.030877
   125  H    0.036468
   126  H    0.029190
   127  H    0.022780
   128  H    0.015411
   129  H    0.024166
   130  H    0.021888
   131  H    0.034634
   132  H    0.030553
   133  H    0.028838
   134  H    0.033306
   135  H    0.027418
   136  H    0.013639
   137  H    0.025275
   138  H    0.024985
   139  H    0.031719
   140  H    0.041108
 Sum of Mulliken charges =  -0.00000

 Dipole moment (field-independent basis, Debye):
    X=             -0.2430    Y=              6.1934    Z=              1.7711  Tot=              6.4462
 Quadrupole moment (field-independent basis, Debye-Ang):
   XX=           -399.4948   YY=           -424.7094   ZZ=           -396.2523
   XY=            -51.6470   XZ=            -29.7968   YZ=            -42.2017

 Normal termination of Gaussian 16 at Wed May  4 19:07:26 2022.
