 Gaussian 16, Revision A.03,
 Gaussian 16:  ES64L-G16RevA.03 25-Dec-2016

 --------------------------------
 #p wB97XD/Def2SVP td=(nstates=5)
 --------------------------------

 ----------------------------------------------------
 step_301_chromophore_26 TDDFT with wB97XD functional
 ----------------------------------------------------
 Symbolic Z-matrix:
 Charge =  0 Multiplicity = 1

                         Standard orientation:
 ---------------------------------------------------------------------
 Center     Atomic      Atomic             Coordinates (Angstroms)
 Number     Number       Type             X           Y           Z
 ---------------------------------------------------------------------
      1         12           0       -4.407949    1.267887    0.639774
      2          6           0       -5.270652   -2.093494    0.030404
      3          6           0       -2.361790    0.107143    3.222365
      4          6           0       -3.021680    4.360217    0.832396
      5          6           0       -5.874351    2.218693   -2.414212
      6          7           0       -3.884775   -0.741599    1.517793
      7          6           0       -4.451359   -2.010129    1.164235
      8          6           0       -3.913221   -3.119741    1.969134
      9          6           0       -3.147666   -2.377701    3.159231
     10          6           0       -3.090105   -0.962026    2.593712
     11          6           0       -3.671705   -2.439990    4.616451
     12          6           0       -2.888619   -4.088818    1.139252
     13          6           0       -1.768395   -3.443821    0.227812
     14          6           0       -0.576085   -4.243456   -0.237196
     15          8           0       -0.659116   -5.371194   -0.698431
     16          8           0        0.646414   -3.677835   -0.003368
     17          7           0       -2.897055    2.095316    1.910534
     18          6           0       -2.167153    1.484296    2.839168
     19          6           0       -1.409133    2.437515    3.525189
     20          6           0       -1.404074    3.632125    2.816056
     21          6           0       -2.434331    3.400289    1.763881
     22          6           0       -0.627865    2.143624    4.707525
     23          6           0       -0.641711    4.900369    3.068603
     24          8           0        0.141412    4.915244    4.040811
     25          6           0       -0.548650    6.098601    2.131952
     26          7           0       -4.432523    3.021621   -0.740098
     27          6           0       -3.958891    4.176160   -0.258232
     28          6           0       -4.326029    5.328800   -1.138320
     29          6           0       -5.357193    4.717027   -2.120890
     30          6           0       -5.284948    3.213638   -1.729218
     31          6           0       -4.705511    6.606412   -0.459423
     32          6           0       -5.136392    5.029758   -3.612911
     33          6           0       -6.194301    5.735115   -4.358448
     34          7           0       -5.390242    0.381465   -0.798419
     35          6           0       -5.960896    0.837650   -1.980987
     36          6           0       -6.661116   -0.317398   -2.589929
     37          6           0       -6.418828   -1.402939   -1.781173
     38          6           0       -5.587238   -0.988875   -0.748123
     39          6           0       -7.305215   -0.276937   -3.898850
     40          6           0       -6.682678   -2.826989   -1.705981
     41          8           0       -7.246695   -3.583244   -2.538703
     42          6           0       -5.878572   -3.315020   -0.527360
     43          6           0       -6.857968   -3.959648    0.371050
     44          8           0       -7.021998   -5.148003    0.564596
     45          8           0       -7.564668   -3.003423    1.127816
     46          6           0       -8.358435   -3.539333    2.245314
     47          6           0        1.861410   -4.428072    0.027243
     48          6           0        2.967521   -3.710251   -0.601583
     49          6           0        3.091433   -3.132421   -1.857055
     50          6           0        1.980300   -3.257293   -2.900950
     51          6           0        4.386490   -2.519266   -2.217191
     52          6           0        4.339510   -1.026650   -2.907330
     53          6           0        5.712446   -0.419005   -3.050940
     54          6           0        6.186858    0.300189   -1.811801
     55          6           0        5.730294    1.763172   -1.779156
     56          6           0        7.739766    0.083409   -1.629489
     57          6           0        8.105578   -0.378115   -0.153907
     58          6           0        9.293837   -1.357644   -0.107021
     59          6           0       10.582217   -0.613026    0.453343
     60          6           0       10.633602   -0.765518    1.990118
     61          6           0       11.920410   -1.027825   -0.229079
     62          6           0       12.796486    0.105307   -0.733642
     63          6           0       13.737558    0.825060    0.359853
     64          6           0       15.231705    0.785371    0.032443
     65          6           0       16.217674    0.837227    1.152441
     66          6           0       15.544721    1.869093   -0.962832
     67          1           0       -1.802059   -0.155157    4.123530
     68          1           0       -2.546976    5.321414    1.041256
     69          1           0       -6.473728    2.479132   -3.289808
     70          1           0       -4.779313   -3.662467    2.348579
     71          1           0       -2.127051   -2.755895    3.210579
     72          1           0       -2.873646   -2.688032    5.315931
     73          1           0       -4.616923   -2.983017    4.645992
     74          1           0       -4.077085   -1.495115    4.976711
     75          1           0       -3.504183   -4.622505    0.414502
     76          1           0       -2.556970   -4.987638    1.657394
     77          1           0       -1.482273   -2.521377    0.732715
     78          1           0       -2.166894   -3.121611   -0.734377
     79          1           0        0.400105    2.314164    4.388814
     80          1           0       -0.771690    1.241180    5.302588
     81          1           0       -0.917798    2.823197    5.508094
     82          1           0       -1.484548    6.656661    2.127008
     83          1           0       -0.261200    5.774691    1.132337
     84          1           0        0.283226    6.691092    2.512817
     85          1           0       -3.406928    5.538276   -1.686832
     86          1           0       -6.362560    5.045921   -1.859874
     87          1           0       -4.062095    7.457832   -0.682288
     88          1           0       -4.636492    6.425649    0.613875
     89          1           0       -5.757060    6.870698   -0.566286
     90          1           0       -5.205178    4.058217   -4.102714
     91          1           0       -4.264551    5.627654   -3.877778
     92          1           0       -5.764573    6.531257   -4.965913
     93          1           0       -6.890314    6.149133   -3.628694
     94          1           0       -6.830911    5.169056   -5.038442
     95          1           0       -6.584339   -0.886401   -4.444243
     96          1           0       -7.471958    0.721541   -4.302504
     97          1           0       -8.273834   -0.725205   -3.676859
     98          1           0       -5.174195   -4.083272   -0.845667
     99          1           0       -9.206626   -4.073017    1.816643
    100          1           0       -8.786437   -2.668080    2.740274
    101          1           0       -7.774523   -4.179734    2.905786
    102          1           0        1.668264   -5.439848   -0.330574
    103          1           0        2.192290   -4.572260    1.055747
    104          1           0        3.761915   -3.549095    0.126738
    105          1           0        1.085270   -3.728224   -2.494934
    106          1           0        2.397894   -3.576668   -3.856171
    107          1           0        1.570606   -2.248189   -2.935604
    108          1           0        5.032994   -3.220005   -2.746253
    109          1           0        5.041995   -2.434112   -1.349903
    110          1           0        3.686486   -0.491720   -2.218822
    111          1           0        3.646981   -1.070152   -3.748270
    112          1           0        5.646145    0.321344   -3.847317
    113          1           0        6.408086   -1.217496   -3.310568
    114          1           0        5.602544   -0.286497   -1.103225
    115          1           0        5.074445    1.841269   -2.646317
    116          1           0        6.552371    2.339416   -2.204972
    117          1           0        5.339888    2.212984   -0.866460
    118          1           0        8.277622    1.028671   -1.695496
    119          1           0        8.138341   -0.582179   -2.394458
    120          1           0        7.303093   -0.972793    0.281975
    121          1           0        8.275179    0.503525    0.464002
    122          1           0        9.560142   -1.710336   -1.104285
    123          1           0        9.104067   -2.193502    0.566281
    124          1           0       10.447441    0.448051    0.245158
    125          1           0        9.934177   -0.137539    2.542076
    126          1           0       11.642562   -0.636309    2.381824
    127          1           0       10.405541   -1.791100    2.279738
    128          1           0       11.616560   -1.644906   -1.074647
    129          1           0       12.518303   -1.635195    0.450666
    130          1           0       12.062280    0.864561   -1.005054
    131          1           0       13.362747   -0.173771   -1.621084
    132          1           0       13.502645    0.406688    1.338195
    133          1           0       13.469193    1.878531    0.284081
    134          1           0       15.462502   -0.147228   -0.481428
    135          1           0       15.687282    1.015418    2.088702
    136          1           0       16.994704    1.599287    1.104510
    137          1           0       16.972451    0.069710    1.319317
    138          1           0       14.654682    2.081238   -1.555597
    139          1           0       16.287330    1.436065   -1.633413
    140          1           0       15.886955    2.830342   -0.580705
 ---------------------------------------------------------------------

 SCF Done:  E(RwB97XD) =  -3007.80754619     A.U. after   18 cycles

 Excitation energies and oscillator strengths:

 Excited State   1:      Singlet-A      1.6671 eV  743.70 nm  f=0.3346  <S**2>=0.000
     245 -> 248        0.19003
     246 -> 247        0.68185
     245 <- 248        0.11689
 This state for optimization and/or second-order correction.
 Total Energy, E(TD-HF/TD-DFT) =  -3007.74628006
 Copying the excited state density for this state as the 1-particle RhoCI density.

 Excited State   2:      Singlet-A      2.1967 eV  564.40 nm  f=0.0862  <S**2>=0.000
     245 -> 247        0.62481
     246 -> 248       -0.31504

 Excited State   3:      Singlet-A      3.3747 eV  367.39 nm  f=0.1319  <S**2>=0.000
     242 -> 247        0.54421
     243 -> 247        0.19399
     245 -> 247       -0.12415
     246 -> 248       -0.36055

 Excited State   4:      Singlet-A      3.4680 eV  357.51 nm  f=0.0178  <S**2>=0.000
     240 -> 247        0.48054
     240 -> 248       -0.14889
     240 -> 249       -0.29597
     240 -> 250        0.28057
     240 -> 251       -0.10275
     241 -> 247        0.12231

 Excited State   5:      Singlet-A      3.5421 eV  350.03 nm  f=0.1350  <S**2>=0.000
     240 -> 249        0.10573
     241 -> 247       -0.25138
     241 -> 249       -0.25877
     241 -> 250       -0.16899
     243 -> 247        0.42848
     243 -> 249        0.14338
     245 -> 247        0.13694
     246 -> 248        0.27107

 The electronic state is 1-A.
 Alpha  occ. eigenvalues --  -46.95820 -19.29719 -19.29240 -19.25266 -19.24271
 Alpha  occ. eigenvalues --  -19.24073 -19.23928 -14.47620 -14.46508 -14.44546
 Alpha  occ. eigenvalues --  -14.44531 -10.43598 -10.43422 -10.39596 -10.39145
 Alpha  occ. eigenvalues --  -10.36130 -10.36061 -10.35829 -10.35680 -10.34957
 Alpha  occ. eigenvalues --  -10.34869 -10.34150 -10.34051 -10.34022 -10.33943
 Alpha  occ. eigenvalues --  -10.33172 -10.32828 -10.32669 -10.32654 -10.32276
 Alpha  occ. eigenvalues --  -10.32261 -10.32222 -10.32212 -10.32017 -10.31707
 Alpha  occ. eigenvalues --  -10.31691 -10.31599 -10.31429 -10.31321 -10.31055
 Alpha  occ. eigenvalues --  -10.30901 -10.30852 -10.30161 -10.30036 -10.29757
 Alpha  occ. eigenvalues --  -10.29634 -10.29377 -10.29346 -10.29345 -10.29343
 Alpha  occ. eigenvalues --  -10.29327 -10.29049 -10.29003 -10.28865 -10.28831
 Alpha  occ. eigenvalues --  -10.28801 -10.28796 -10.28768 -10.28716 -10.28612
 Alpha  occ. eigenvalues --  -10.28516 -10.28380 -10.28253 -10.28043 -10.27583
 Alpha  occ. eigenvalues --  -10.27545  -3.21838  -1.95395  -1.94981  -1.94792
 Alpha  occ. eigenvalues --   -1.18573  -1.17962  -1.11346  -1.10391  -1.09724
 Alpha  occ. eigenvalues --   -1.09661  -1.07822  -1.06498  -1.05617  -1.04525
 Alpha  occ. eigenvalues --   -0.96698  -0.92252  -0.92023  -0.91295  -0.91258
 Alpha  occ. eigenvalues --   -0.91057  -0.90548  -0.90008  -0.89728  -0.89632
 Alpha  occ. eigenvalues --   -0.88750  -0.87873  -0.86970  -0.86558  -0.85740
 Alpha  occ. eigenvalues --   -0.84793  -0.84455  -0.83564  -0.82709  -0.82547
 Alpha  occ. eigenvalues --   -0.81351  -0.80726  -0.80085  -0.79859  -0.79244
 Alpha  occ. eigenvalues --   -0.78003  -0.77510  -0.77404  -0.76495  -0.76153
 Alpha  occ. eigenvalues --   -0.75605  -0.74808  -0.74325  -0.73053  -0.71513
 Alpha  occ. eigenvalues --   -0.71068  -0.70521  -0.70142  -0.69090  -0.68153
 Alpha  occ. eigenvalues --   -0.68089  -0.67370  -0.66736  -0.66612  -0.65869
 Alpha  occ. eigenvalues --   -0.65323  -0.65271  -0.65124  -0.64209  -0.62395
 Alpha  occ. eigenvalues --   -0.61839  -0.61781  -0.61354  -0.61043  -0.60373
 Alpha  occ. eigenvalues --   -0.59947  -0.59369  -0.59033  -0.58539  -0.58321
 Alpha  occ. eigenvalues --   -0.57619  -0.57053  -0.56547  -0.56187  -0.56126
 Alpha  occ. eigenvalues --   -0.55647  -0.55602  -0.55303  -0.55195  -0.55083
 Alpha  occ. eigenvalues --   -0.54885  -0.54681  -0.54436  -0.54264  -0.54023
 Alpha  occ. eigenvalues --   -0.53921  -0.53560  -0.53384  -0.53335  -0.53209
 Alpha  occ. eigenvalues --   -0.53065  -0.52656  -0.52439  -0.52059  -0.51902
 Alpha  occ. eigenvalues --   -0.51552  -0.51416  -0.51174  -0.51006  -0.50847
 Alpha  occ. eigenvalues --   -0.50659  -0.50451  -0.50261  -0.49837  -0.49756
 Alpha  occ. eigenvalues --   -0.49667  -0.49288  -0.49009  -0.48967  -0.48806
 Alpha  occ. eigenvalues --   -0.48669  -0.48475  -0.48115  -0.47904  -0.47885
 Alpha  occ. eigenvalues --   -0.47543  -0.47390  -0.47234  -0.47042  -0.46831
 Alpha  occ. eigenvalues --   -0.46769  -0.46464  -0.46080  -0.45842  -0.45691
 Alpha  occ. eigenvalues --   -0.45626  -0.45506  -0.45268  -0.45235  -0.45087
 Alpha  occ. eigenvalues --   -0.44586  -0.44439  -0.44387  -0.44269  -0.44217
 Alpha  occ. eigenvalues --   -0.43874  -0.43734  -0.43667  -0.43366  -0.43083
 Alpha  occ. eigenvalues --   -0.42895  -0.42785  -0.42538  -0.42191  -0.41818
 Alpha  occ. eigenvalues --   -0.41525  -0.41155  -0.41084  -0.40943  -0.40572
 Alpha  occ. eigenvalues --   -0.40484  -0.40059  -0.39713  -0.39350  -0.39321
 Alpha  occ. eigenvalues --   -0.39115  -0.38884  -0.38743  -0.38615  -0.38610
 Alpha  occ. eigenvalues --   -0.38061  -0.37666  -0.37236  -0.36965  -0.36502
 Alpha  occ. eigenvalues --   -0.36014  -0.35788  -0.35418  -0.33709  -0.33165
 Alpha  occ. eigenvalues --   -0.33097  -0.32546  -0.32038  -0.30737  -0.26243
 Alpha  occ. eigenvalues --   -0.23245
 Alpha virt. eigenvalues --   -0.07123  -0.00473   0.01636   0.03579   0.04521
 Alpha virt. eigenvalues --    0.06400   0.07045   0.07229   0.07517   0.09018
 Alpha virt. eigenvalues --    0.10036   0.10635   0.11342   0.12315   0.12554

 Mulliken charges:
               1
     1  Mg   0.977166
     2  C   -0.083645
     3  C   -0.087230
     4  C   -0.055609
     5  C   -0.093190
     6  N   -0.349305
     7  C   -0.007758
     8  C   -0.022409
     9  C   -0.088548
    10  C    0.050605
    11  C    0.038613
    12  C    0.008932
    13  C   -0.008806
    14  C    0.211661
    15  O   -0.266099
    16  O   -0.357241
    17  N   -0.435458
    18  C    0.153327
    19  C   -0.161607
    20  C   -0.032226
    21  C    0.107700
    22  C    0.078815
    23  C    0.018071
    24  O   -0.263818
    25  C   -0.007577
    26  N   -0.306408
    27  C    0.086084
    28  C   -0.109083
    29  C   -0.015474
    30  C    0.044341
    31  C    0.042602
    32  C    0.009459
    33  C   -0.067946
    34  N   -0.521723
    35  C    0.131953
    36  C   -0.241979
    37  C   -0.021131
    38  C    0.247807
    39  C    0.086930
    40  C    0.101877
    41  O   -0.234654
    42  C   -0.037164
    43  C    0.254887
    44  O   -0.221724
    45  O   -0.401284
    46  C    0.148056
    47  C    0.275530
    48  C   -0.178853
    49  C   -0.173026
    50  C    0.070748
    51  C    0.007329
    52  C   -0.069510
    53  C    0.046926
    54  C   -0.205816
    55  C    0.047643
    56  C    0.024107
    57  C   -0.045565
    58  C    0.016859
    59  C   -0.201185
    60  C    0.003423
    61  C    0.025800
    62  C   -0.040728
    63  C    0.016800
    64  C   -0.189698
    65  C   -0.000700
    66  C   -0.013864
    67  H   -0.012703
    68  H   -0.047231
    69  H   -0.004325
    70  H    0.041444
    71  H    0.046090
    72  H    0.054936
    73  H    0.032799
    74  H    0.027747
    75  H    0.034888
    76  H    0.049636
    77  H    0.051903
    78  H    0.065609
    79  H    0.071649
    80  H    0.024397
    81  H    0.046417
    82  H    0.076587
    83  H    0.063939
    84  H    0.058812
    85  H    0.047050
    86  H    0.025084
    87  H    0.040118
    88  H    0.023943
    89  H    0.029278
    90  H    0.030895
    91  H    0.039468
    92  H    0.031785
    93  H    0.016454
    94  H    0.034338
    95  H    0.073970
    96  H    0.026609
    97  H    0.061431
    98  H    0.088721
    99  H    0.055922
   100  H    0.051543
   101  H    0.055557
   102  H    0.055220
   103  H    0.021561
   104  H    0.013534
   105  H    0.029965
   106  H    0.060626
   107  H    0.034126
   108  H    0.034903
   109  H    0.002077
   110  H    0.019698
   111  H    0.023079
   112  H    0.011648
   113  H    0.018122
   114  H    0.020034
   115  H    0.005285
   116  H    0.010204
   117  H    0.054622
   118  H    0.017062
   119  H    0.020468
   120  H    0.020139
   121  H    0.031394
   122  H    0.014977
   123  H    0.021477
   124  H    0.013580
   125  H    0.031344
   126  H    0.021223
   127  H    0.015402
   128  H    0.007271
   129  H    0.014672
   130  H    0.011196
   131  H    0.027587
   132  H    0.017492
   133  H    0.018844
   134  H    0.021730
   135  H    0.021534
   136  H    0.007470
   137  H    0.020657
   138  H    0.017080
   139  H    0.026363
   140  H    0.035566
 Sum of Mulliken charges =  -0.00000

 Dipole moment (field-independent basis, Debye):
    X=              0.1529    Y=              6.5619    Z=              2.2654  Tot=              6.9437
 Quadrupole moment (field-independent basis, Debye-Ang):
   XX=           -401.7951   YY=           -423.7153   ZZ=           -395.5417
   XY=            -52.1106   XZ=            -31.7426   YZ=            -41.2178

 Normal termination of Gaussian 16 at Wed May  4 19:58:11 2022.
