 Gaussian 16, Revision A.03,
 Gaussian 16:  ES64L-G16RevA.03 25-Dec-2016

 --------------------
 #p ZINDO=(nstates=5)
 --------------------

 -----------------------------
 step_301_chromophore_26 ZINDO
 -----------------------------
 Symbolic Z-matrix:
 Charge =  0 Multiplicity = 1

                         Standard orientation:
 ---------------------------------------------------------------------
 Center     Atomic      Atomic             Coordinates (Angstroms)
 Number     Number       Type             X           Y           Z
 ---------------------------------------------------------------------
      1         12           0       -4.407949    1.267887    0.639774
      2          6           0       -5.270652   -2.093494    0.030404
      3          6           0       -2.361790    0.107143    3.222365
      4          6           0       -3.021680    4.360217    0.832396
      5          6           0       -5.874351    2.218693   -2.414212
      6          7           0       -3.884775   -0.741599    1.517793
      7          6           0       -4.451359   -2.010129    1.164235
      8          6           0       -3.913221   -3.119741    1.969134
      9          6           0       -3.147666   -2.377701    3.159231
     10          6           0       -3.090105   -0.962026    2.593712
     11          6           0       -3.671705   -2.439990    4.616451
     12          6           0       -2.888619   -4.088818    1.139252
     13          6           0       -1.768395   -3.443821    0.227812
     14          6           0       -0.576085   -4.243456   -0.237196
     15          8           0       -0.659116   -5.371194   -0.698431
     16          8           0        0.646414   -3.677835   -0.003368
     17          7           0       -2.897055    2.095316    1.910534
     18          6           0       -2.167153    1.484296    2.839168
     19          6           0       -1.409133    2.437515    3.525189
     20          6           0       -1.404074    3.632125    2.816056
     21          6           0       -2.434331    3.400289    1.763881
     22          6           0       -0.627865    2.143624    4.707525
     23          6           0       -0.641711    4.900369    3.068603
     24          8           0        0.141412    4.915244    4.040811
     25          6           0       -0.548650    6.098601    2.131952
     26          7           0       -4.432523    3.021621   -0.740098
     27          6           0       -3.958891    4.176160   -0.258232
     28          6           0       -4.326029    5.328800   -1.138320
     29          6           0       -5.357193    4.717027   -2.120890
     30          6           0       -5.284948    3.213638   -1.729218
     31          6           0       -4.705511    6.606412   -0.459423
     32          6           0       -5.136392    5.029758   -3.612911
     33          6           0       -6.194301    5.735115   -4.358448
     34          7           0       -5.390242    0.381465   -0.798419
     35          6           0       -5.960896    0.837650   -1.980987
     36          6           0       -6.661116   -0.317398   -2.589929
     37          6           0       -6.418828   -1.402939   -1.781173
     38          6           0       -5.587238   -0.988875   -0.748123
     39          6           0       -7.305215   -0.276937   -3.898850
     40          6           0       -6.682678   -2.826989   -1.705981
     41          8           0       -7.246695   -3.583244   -2.538703
     42          6           0       -5.878572   -3.315020   -0.527360
     43          6           0       -6.857968   -3.959648    0.371050
     44          8           0       -7.021998   -5.148003    0.564596
     45          8           0       -7.564668   -3.003423    1.127816
     46          6           0       -8.358435   -3.539333    2.245314
     47          6           0        1.861410   -4.428072    0.027243
     48          6           0        2.967521   -3.710251   -0.601583
     49          6           0        3.091433   -3.132421   -1.857055
     50          6           0        1.980300   -3.257293   -2.900950
     51          6           0        4.386490   -2.519266   -2.217191
     52          6           0        4.339510   -1.026650   -2.907330
     53          6           0        5.712446   -0.419005   -3.050940
     54          6           0        6.186858    0.300189   -1.811801
     55          6           0        5.730294    1.763172   -1.779156
     56          6           0        7.739766    0.083409   -1.629489
     57          6           0        8.105578   -0.378115   -0.153907
     58          6           0        9.293837   -1.357644   -0.107021
     59          6           0       10.582217   -0.613026    0.453343
     60          6           0       10.633602   -0.765518    1.990118
     61          6           0       11.920410   -1.027825   -0.229079
     62          6           0       12.796486    0.105307   -0.733642
     63          6           0       13.737558    0.825060    0.359853
     64          6           0       15.231705    0.785371    0.032443
     65          6           0       16.217674    0.837227    1.152441
     66          6           0       15.544721    1.869093   -0.962832
     67          1           0       -1.802059   -0.155157    4.123530
     68          1           0       -2.546976    5.321414    1.041256
     69          1           0       -6.473728    2.479132   -3.289808
     70          1           0       -4.779313   -3.662467    2.348579
     71          1           0       -2.127051   -2.755895    3.210579
     72          1           0       -2.873646   -2.688032    5.315931
     73          1           0       -4.616923   -2.983017    4.645992
     74          1           0       -4.077085   -1.495115    4.976711
     75          1           0       -3.504183   -4.622505    0.414502
     76          1           0       -2.556970   -4.987638    1.657394
     77          1           0       -1.482273   -2.521377    0.732715
     78          1           0       -2.166894   -3.121611   -0.734377
     79          1           0        0.400105    2.314164    4.388814
     80          1           0       -0.771690    1.241180    5.302588
     81          1           0       -0.917798    2.823197    5.508094
     82          1           0       -1.484548    6.656661    2.127008
     83          1           0       -0.261200    5.774691    1.132337
     84          1           0        0.283226    6.691092    2.512817
     85          1           0       -3.406928    5.538276   -1.686832
     86          1           0       -6.362560    5.045921   -1.859874
     87          1           0       -4.062095    7.457832   -0.682288
     88          1           0       -4.636492    6.425649    0.613875
     89          1           0       -5.757060    6.870698   -0.566286
     90          1           0       -5.205178    4.058217   -4.102714
     91          1           0       -4.264551    5.627654   -3.877778
     92          1           0       -5.764573    6.531257   -4.965913
     93          1           0       -6.890314    6.149133   -3.628694
     94          1           0       -6.830911    5.169056   -5.038442
     95          1           0       -6.584339   -0.886401   -4.444243
     96          1           0       -7.471958    0.721541   -4.302504
     97          1           0       -8.273834   -0.725205   -3.676859
     98          1           0       -5.174195   -4.083272   -0.845667
     99          1           0       -9.206626   -4.073017    1.816643
    100          1           0       -8.786437   -2.668080    2.740274
    101          1           0       -7.774523   -4.179734    2.905786
    102          1           0        1.668264   -5.439848   -0.330574
    103          1           0        2.192290   -4.572260    1.055747
    104          1           0        3.761915   -3.549095    0.126738
    105          1           0        1.085270   -3.728224   -2.494934
    106          1           0        2.397894   -3.576668   -3.856171
    107          1           0        1.570606   -2.248189   -2.935604
    108          1           0        5.032994   -3.220005   -2.746253
    109          1           0        5.041995   -2.434112   -1.349903
    110          1           0        3.686486   -0.491720   -2.218822
    111          1           0        3.646981   -1.070152   -3.748270
    112          1           0        5.646145    0.321344   -3.847317
    113          1           0        6.408086   -1.217496   -3.310568
    114          1           0        5.602544   -0.286497   -1.103225
    115          1           0        5.074445    1.841269   -2.646317
    116          1           0        6.552371    2.339416   -2.204972
    117          1           0        5.339888    2.212984   -0.866460
    118          1           0        8.277622    1.028671   -1.695496
    119          1           0        8.138341   -0.582179   -2.394458
    120          1           0        7.303093   -0.972793    0.281975
    121          1           0        8.275179    0.503525    0.464002
    122          1           0        9.560142   -1.710336   -1.104285
    123          1           0        9.104067   -2.193502    0.566281
    124          1           0       10.447441    0.448051    0.245158
    125          1           0        9.934177   -0.137539    2.542076
    126          1           0       11.642562   -0.636309    2.381824
    127          1           0       10.405541   -1.791100    2.279738
    128          1           0       11.616560   -1.644906   -1.074647
    129          1           0       12.518303   -1.635195    0.450666
    130          1           0       12.062280    0.864561   -1.005054
    131          1           0       13.362747   -0.173771   -1.621084
    132          1           0       13.502645    0.406688    1.338195
    133          1           0       13.469193    1.878531    0.284081
    134          1           0       15.462502   -0.147228   -0.481428
    135          1           0       15.687282    1.015418    2.088702
    136          1           0       16.994704    1.599287    1.104510
    137          1           0       16.972451    0.069710    1.319317
    138          1           0       14.654682    2.081238   -1.555597
    139          1           0       16.287330    1.436065   -1.633413
    140          1           0       15.886955    2.830342   -0.580705
 ---------------------------------------------------------------------

 SCF Done:  E(RZINDO/S) =  -474.493534538     A.U. after   20 cycles

 Excitation energies and oscillator strengths:

 Excited State   1:      Singlet-A      1.2819 eV  967.23 nm  f=0.5113  <S**2>=0.000
     175 ->178         0.17862
     176 ->177         0.66733
 This state for optimization and/or second-order correction.
 Total Energy, E(CIS/TDA) =  -474.446427315
 Copying the excited state density for this state as the 1-particle RhoCI density.

 Excited State   2:      Singlet-A      1.8942 eV  654.56 nm  f=0.0194  <S**2>=0.000
     175 ->177         0.51760
     176 ->178        -0.45165

 Excited State   3:      Singlet-A      2.8375 eV  436.95 nm  f=0.0026  <S**2>=0.000
     168 ->177         0.31201
     168 ->178        -0.17945
     168 ->179        -0.38960
     168 ->180        -0.24486
     168 ->181         0.23285
     168 ->184        -0.14504
     168 ->185        -0.16825

 Excited State   4:      Singlet-A      2.8774 eV  430.90 nm  f=0.2249  <S**2>=0.000
     170 ->179         0.15961
     170 ->180        -0.13411
     175 ->177        -0.19836
     176 ->178        -0.21390
     176 ->179         0.50102
     176 ->180        -0.11790
     176 ->181         0.16366

 Excited State   5:      Singlet-A      2.9264 eV  423.67 nm  f=0.0717  <S**2>=0.000
     169 ->179         0.15048
     169 ->180        -0.12941
     170 ->177         0.19871
     170 ->178        -0.13367
     170 ->179         0.31089
     170 ->180        -0.24627
     170 ->181         0.12754
     170 ->185         0.17586
     170 ->187         0.11721
     176 ->178         0.10208
     176 ->179        -0.23568

 The electronic state is 1-A.
 Alpha  occ. eigenvalues --   -1.85744  -1.83242  -1.81743  -1.74176  -1.72282
 Alpha  occ. eigenvalues --   -1.71777  -1.65366  -1.62234  -1.59453  -1.58553
 Alpha  occ. eigenvalues --   -1.56039  -1.51725  -1.50396  -1.47857  -1.46458
 Alpha  occ. eigenvalues --   -1.44569  -1.43773  -1.41303  -1.40198  -1.39365
 Alpha  occ. eigenvalues --   -1.36966  -1.35207  -1.31874  -1.30780  -1.29489
 Alpha  occ. eigenvalues --   -1.27432  -1.26267  -1.23113  -1.22066  -1.19372
 Alpha  occ. eigenvalues --   -1.17462  -1.16659  -1.14923  -1.13888  -1.13401
 Alpha  occ. eigenvalues --   -1.13311  -1.11173  -1.09895  -1.05940  -1.04217
 Alpha  occ. eigenvalues --   -1.03405  -1.01895  -1.00730  -0.98052  -0.97154
 Alpha  occ. eigenvalues --   -0.95164  -0.94772  -0.93744  -0.92914  -0.92281
 Alpha  occ. eigenvalues --   -0.91866  -0.91348  -0.89361  -0.88512  -0.87810
 Alpha  occ. eigenvalues --   -0.86700  -0.85323  -0.83848  -0.83045  -0.81131
 Alpha  occ. eigenvalues --   -0.80162  -0.79156  -0.79023  -0.77361  -0.76855
 Alpha  occ. eigenvalues --   -0.76313  -0.76011  -0.75472  -0.74753  -0.73978
 Alpha  occ. eigenvalues --   -0.73580  -0.72199  -0.71892  -0.71417  -0.70630
 Alpha  occ. eigenvalues --   -0.70379  -0.69720  -0.69633  -0.68256  -0.68111
 Alpha  occ. eigenvalues --   -0.67499  -0.66779  -0.66661  -0.66584  -0.66317
 Alpha  occ. eigenvalues --   -0.65811  -0.65135  -0.65036  -0.64660  -0.64337
 Alpha  occ. eigenvalues --   -0.63826  -0.63311  -0.62948  -0.62669  -0.62393
 Alpha  occ. eigenvalues --   -0.62301  -0.61693  -0.61254  -0.60237  -0.60176
 Alpha  occ. eigenvalues --   -0.59453  -0.59258  -0.58760  -0.58441  -0.57744
 Alpha  occ. eigenvalues --   -0.57424  -0.57094  -0.56953  -0.56682  -0.56234
 Alpha  occ. eigenvalues --   -0.55633  -0.55463  -0.55111  -0.54855  -0.54743
 Alpha  occ. eigenvalues --   -0.54196  -0.54027  -0.53899  -0.53562  -0.53224
 Alpha  occ. eigenvalues --   -0.52836  -0.52645  -0.52296  -0.51746  -0.51513
 Alpha  occ. eigenvalues --   -0.51188  -0.50871  -0.50479  -0.50142  -0.49870
 Alpha  occ. eigenvalues --   -0.49629  -0.49290  -0.49147  -0.49013  -0.48846
 Alpha  occ. eigenvalues --   -0.48311  -0.48068  -0.47809  -0.47609  -0.47283
 Alpha  occ. eigenvalues --   -0.46840  -0.46806  -0.46519  -0.46490  -0.46333
 Alpha  occ. eigenvalues --   -0.46131  -0.46061  -0.45845  -0.45594  -0.45531
 Alpha  occ. eigenvalues --   -0.45478  -0.44752  -0.44567  -0.44368  -0.44186
 Alpha  occ. eigenvalues --   -0.43820  -0.43513  -0.43250  -0.42648  -0.42118
 Alpha  occ. eigenvalues --   -0.41941  -0.41862  -0.41269  -0.39188  -0.38807
 Alpha  occ. eigenvalues --   -0.38289  -0.37575  -0.36236  -0.35129  -0.34790
 Alpha  occ. eigenvalues --   -0.33933  -0.33105  -0.32073  -0.31293  -0.27189
 Alpha  occ. eigenvalues --   -0.22200
 Alpha virt. eigenvalues --   -0.08681  -0.02918  -0.01317   0.00399   0.00895
 Alpha virt. eigenvalues --    0.01789   0.02329   0.03025   0.03906   0.04407
 Alpha virt. eigenvalues --    0.05678   0.06424   0.07165   0.07324   0.07437

 Mulliken charges:
               1
     1  Mg   0.438998
     2  C   -0.019490
     3  C   -0.105746
     4  C   -0.114445
     5  C   -0.058123
     6  N   -0.302788
     7  C    0.078745
     8  C    0.015242
     9  C    0.004756
    10  C    0.170158
    11  C   -0.051248
    12  C   -0.030739
    13  C    0.013301
    14  C    0.476427
    15  O   -0.522091
    16  O   -0.279630
    17  N   -0.326301
    18  C    0.143385
    19  C    0.090059
    20  C   -0.045353
    21  C    0.117963
    22  C   -0.042169
    23  C    0.320276
    24  O   -0.531205
    25  C   -0.023644
    26  N   -0.260504
    27  C    0.167441
    28  C    0.013521
    29  C   -0.000065
    30  C    0.103602
    31  C   -0.050535
    32  C   -0.034350
    33  C   -0.055419
    34  N   -0.317305
    35  C    0.047120
    36  C    0.025762
    37  C   -0.055634
    38  C    0.091159
    39  C   -0.045291
    40  C    0.328633
    41  O   -0.536197
    42  C    0.072793
    43  C    0.486898
    44  O   -0.512179
    45  O   -0.292220
    46  C    0.076928
    47  C    0.118805
    48  C   -0.101254
    49  C    0.007071
    50  C   -0.048299
    51  C   -0.029466
    52  C   -0.039992
    53  C   -0.020062
    54  C   -0.012973
    55  C   -0.063214
    56  C   -0.040405
    57  C   -0.039458
    58  C   -0.039243
    59  C   -0.018363
    60  C   -0.057629
    61  C   -0.030511
    62  C   -0.042294
    63  C   -0.034203
    64  C    0.005718
    65  C   -0.061427
    66  C   -0.052003
    67  H    0.021473
    68  H    0.031953
    69  H    0.026125
    70  H    0.042241
    71  H    0.028448
    72  H    0.033763
    73  H    0.029670
    74  H    0.016972
    75  H    0.018407
    76  H    0.041202
    77  H    0.027872
    78  H    0.046698
    79  H    0.049025
    80  H    0.024711
    81  H    0.034094
    82  H    0.042645
    83  H    0.036384
    84  H    0.039559
    85  H    0.031278
    86  H    0.031082
    87  H    0.024007
    88  H    0.013671
    89  H    0.022468
    90  H    0.025796
    91  H    0.030042
    92  H    0.014044
    93  H    0.011062
    94  H    0.018895
    95  H    0.049489
    96  H    0.022788
    97  H    0.039524
    98  H    0.069755
    99  H    0.044961
   100  H    0.027940
   101  H    0.048347
   102  H    0.056146
   103  H    0.026191
   104  H    0.018354
   105  H    0.039332
   106  H    0.040022
   107  H    0.022905
   108  H    0.028584
   109  H    0.013528
   110  H    0.012815
   111  H    0.021605
   112  H    0.013779
   113  H    0.020008
   114  H    0.024020
   115  H    0.016332
   116  H    0.013822
   117  H    0.035427
   118  H    0.017221
   119  H    0.028386
   120  H    0.013941
   121  H    0.026953
   122  H    0.021576
   123  H    0.023044
   124  H    0.018444
   125  H    0.019017
   126  H    0.014215
   127  H    0.012395
   128  H    0.013072
   129  H    0.017756
   130  H    0.012895
   131  H    0.024414
   132  H    0.023424
   133  H    0.019742
   134  H    0.014681
   135  H    0.012257
   136  H    0.010793
   137  H    0.020408
   138  H    0.008829
   139  H    0.011889
   140  H    0.024094
 Sum of Mulliken charges =   0.00000

 Dipole moment (field-independent basis, Debye):
    X=              1.8237    Y=              9.7406    Z=              3.3186  Tot=             10.4507
 N-N= 4.388762245117D+03 E-N= 0.000000000000D+00  KE=-9.451304648309D+03
 Leave Link  601 at Wed May  4 20:22:18 2022, MaxMem=  6710886400 cpu:               0.7 elap:               0.0
 (Enter /sw/apps/gaussian-16.0/g16/l9999.exe)
 1\1\GINC-BP1-COMPUTE160\SP\RZINDO CIS\STO-3G\C55H74Mg1N4O6\OF15641\04-
 May-2022\0\\#p ZINDO=(nstates=5)\\step_301_chromophore_26 ZINDO\\0,1\M
 g,0,-9.441,18.396,43.045\C,0,-5.93,18.106,43.102\C,0,-8.99,21.733,42.1
 15\C,0,-12.75,18.561,42.307\C,0,-9.753,14.896,43.229\N,0,-7.68,19.75,4
 2.66\C,0,-6.294,19.435,42.847\C,0,-5.405,20.569,42.543\C,0,-6.406,21.8
 11,42.451\C,0,-7.737,21.071,42.361\C,0,-6.395,22.935,43.518\C,0,-4.577
 ,20.39,41.143\C,0,-5.332,19.888,39.847\C,0,-4.741,20.074,38.471\O,0,-3

 Normal termination of Gaussian 16 at Wed May  4 20:22:19 2022.
