 Gaussian 16, Revision A.03,
 Gaussian 16:  ES64L-G16RevA.03 25-Dec-2016

 ------------------------------
 #p blyp/Def2SVP td=(nstates=5)
 ------------------------------

 --------------------------------------------------
 step_801_chromophore_25 TDDFT with blyp functional
 --------------------------------------------------
 Symbolic Z-matrix:
 Charge =  0 Multiplicity = 1

                         Standard orientation:
 ---------------------------------------------------------------------
 Center     Atomic      Atomic             Coordinates (Angstroms)
 Number     Number       Type             X           Y           Z
 ---------------------------------------------------------------------
      1         12           0       -6.280603    0.298178   -0.401911
      2          6           0       -3.541903   -1.881115   -0.554272
      3          6           0       -4.062895    2.877887    0.128447
      4          6           0       -8.889407    2.312192    0.382586
      5          6           0       -8.476805   -2.509211   -0.346122
      6          7           0       -4.028331    0.373282   -0.232634
      7          6           0       -3.117051   -0.625540   -0.225122
      8          6           0       -1.660341   -0.007738    0.019168
      9          6           0       -1.853911    1.516412    0.131999
     10          6           0       -3.405580    1.618869    0.070715
     11          6           0       -1.224801    2.216083    1.294277
     12          6           0       -0.565544   -0.407934   -1.056794
     13          6           0        0.758800   -1.073668   -0.392313
     14          6           0        2.131503   -0.694843   -0.899767
     15          8           0        2.414789   -0.449281   -2.070027
     16          8           0        3.141889   -0.542040    0.019571
     17          7           0       -6.471428    2.321080   -0.051314
     18          6           0       -5.419470    3.176295    0.161742
     19          6           0       -5.897719    4.484927    0.482455
     20          6           0       -7.393764    4.424899    0.558711
     21          6           0       -7.637975    2.961934    0.303163
     22          6           0       -4.944235    5.578341    0.726791
     23          6           0       -8.504713    5.450382    0.809003
     24          8           0       -9.706066    5.234649    0.717718
     25          6           0       -8.100239    6.863587    1.193177
     26          7           0       -8.327499   -0.101224   -0.141106
     27          6           0       -9.238102    0.986472    0.163821
     28          6           0      -10.702064    0.406965    0.427939
     29          6           0      -10.557866   -1.029645   -0.227435
     30          6           0       -9.034045   -1.237271   -0.155517
     31          6           0      -11.120986    0.491469    1.937883
     32          6           0      -11.105783   -1.169988   -1.699029
     33          6           0      -12.615832   -1.336812   -1.748648
     34          7           0       -6.116040   -1.760269   -0.447031
     35          6           0       -7.093089   -2.765793   -0.504525
     36          6           0       -6.459200   -4.029917   -0.797472
     37          6           0       -5.088385   -3.736647   -0.783056
     38          6           0       -4.920888   -2.334468   -0.611591
     39          6           0       -7.119219   -5.381662   -0.927456
     40          6           0       -3.816471   -4.300799   -0.966579
     41          8           0       -3.455859   -5.408240   -1.293123
     42          6           0       -2.742014   -3.219179   -0.570231
     43          6           0       -1.993756   -3.644919    0.712159
     44          8           0       -2.358050   -3.414365    1.836191
     45          8           0       -0.856605   -4.301976    0.341268
     46          6           0        0.112945   -4.632407    1.403521
     47          6           0        4.450047   -0.290074   -0.565096
     48          6           0        5.428780   -0.047815    0.574984
     49          6           0        6.757473    0.354828    0.441724
     50          6           0        7.568186    0.284221   -0.862540
     51          6           0        7.559131    0.748226    1.710628
     52          6           0        8.107145   -0.408810    2.507358
     53          6           0        9.468197   -0.031438    3.243405
     54          6           0       10.645682   -1.144069    3.058918
     55          6           0       10.759005   -2.061929    4.348715
     56          6           0       11.982023   -0.403076    2.821432
     57          6           0       12.703316   -0.679229    1.423025
     58          6           0       13.590838    0.463710    0.944085
     59          6           0       14.384292    0.047323   -0.360443
     60          6           0       15.742366   -0.612741    0.036002
     61          6           0       14.647804    1.209165   -1.267395
     62          6           0       13.638449    1.172399   -2.497230
     63          6           0       12.766026    2.422118   -2.368710
     64          6           0       11.527914    2.437984   -3.171354
     65          6           0       10.382550    1.556865   -2.646268
     66          6           0       11.789064    2.237843   -4.636253
     67          1           0       -3.282456    3.639601    0.183362
     68          1           0       -9.840104    2.828738    0.532415
     69          1           0       -9.127001   -3.384661   -0.390546
     70          1           0       -1.269195   -0.444362    0.938431
     71          1           0       -1.347751    2.048548   -0.673472
     72          1           0       -1.905122    2.862561    1.848472
     73          1           0       -0.343278    2.823914    1.089026
     74          1           0       -0.749732    1.523897    1.989554
     75          1           0       -0.211962    0.413077   -1.680536
     76          1           0       -0.985633   -1.139708   -1.746664
     77          1           0        0.583791   -2.148702   -0.433247
     78          1           0        0.744246   -0.722465    0.639384
     79          1           0       -5.448669    6.542663    0.649185
     80          1           0       -4.073950    5.710763    0.083050
     81          1           0       -4.734794    5.568883    1.795592
     82          1           0       -7.321497    6.997984    1.944695
     83          1           0       -8.941142    7.549241    1.298083
     84          1           0       -7.603857    7.129643    0.259669
     85          1           0      -11.467216    0.971428   -0.106220
     86          1           0      -10.948267   -1.718600    0.522104
     87          1           0      -10.247775    0.880200    2.461804
     88          1           0      -11.329607   -0.496063    2.349770
     89          1           0      -11.979551    1.148028    2.077797
     90          1           0      -10.579906   -1.919166   -2.289785
     91          1           0      -11.016679   -0.228672   -2.241050
     92          1           0      -13.027173   -1.432805   -0.743441
     93          1           0      -12.802341   -2.327044   -2.165611
     94          1           0      -13.082464   -0.515059   -2.291077
     95          1           0       -7.089920   -5.800392   -1.934136
     96          1           0       -8.118814   -5.456041   -0.500445
     97          1           0       -6.531011   -5.999785   -0.248371
     98          1           0       -2.017574   -3.088491   -1.374007
     99          1           0       -0.452980   -4.883746    2.300462
    100          1           0        0.580485   -3.661415    1.568537
    101          1           0        0.772350   -5.464636    1.156294
    102          1           0        4.471551    0.600396   -1.192964
    103          1           0        4.825601   -1.112073   -1.175670
    104          1           0        4.919297   -0.111121    1.535674
    105          1           0        8.082507    1.139182   -1.302470
    106          1           0        6.858632    0.111573   -1.672186
    107          1           0        8.314118   -0.510814   -0.868264
    108          1           0        7.111096    1.460116    2.403247
    109          1           0        8.466959    1.206016    1.316365
    110          1           0        8.098432   -1.319828    1.909092
    111          1           0        7.340806   -0.644627    3.246612
    112          1           0        9.223708    0.185583    4.282722
    113          1           0        9.793686    0.940330    2.872581
    114          1           0       10.469372   -1.836017    2.234690
    115          1           0       11.495601   -1.735576    5.083224
    116          1           0       11.039802   -3.078961    4.074409
    117          1           0        9.825869   -2.154846    4.904569
    118          1           0       12.636442   -0.689745    3.644515
    119          1           0       11.892574    0.680260    2.902660
    120          1           0       12.019022   -0.856619    0.593047
    121          1           0       13.262372   -1.610646    1.502291
    122          1           0       14.280740    0.742581    1.740003
    123          1           0       13.044640    1.394054    0.793745
    124          1           0       13.923530   -0.745789   -0.950308
    125          1           0       15.727454   -1.513086   -0.579488
    126          1           0       15.827987   -0.978321    1.059205
    127          1           0       16.681491   -0.078903   -0.111760
    128          1           0       15.672403    1.164196   -1.635755
    129          1           0       14.456491    2.119223   -0.698406
    130          1           0       13.098143    0.230689   -2.588126
    131          1           0       14.262242    1.262236   -3.386766
    132          1           0       13.510917    3.168724   -2.645250
    133          1           0       12.549329    2.505502   -1.304521
    134          1           0       11.134931    3.410906   -2.879476
    135          1           0       10.387746    0.619839   -3.204172
    136          1           0        9.443115    2.071383   -2.848481
    137          1           0       10.431608    1.402654   -1.568220
    138          1           0       11.281756    3.066544   -5.130360
    139          1           0       11.435110    1.260673   -4.964477
    140          1           0       12.844110    2.452819   -4.805546
 ---------------------------------------------------------------------

 SCF Done:  E(RB-LYP) =  -3007.36183006     A.U. after   21 cycles

 Excitation energies and oscillator strengths:

 Excited State   1:      Singlet-A      1.7354 eV  714.44 nm  f=0.0122  <S**2>=0.000
     244 -> 247        0.65099
     245 -> 247       -0.22053
     246 -> 247       -0.15820
 This state for optimization and/or second-order correction.
 Total Energy, E(TD-HF/TD-DFT) =  -3007.29805498
 Copying the excited state density for this state as the 1-particle RhoCI density.

 Excited State   2:      Singlet-A      1.7831 eV  695.31 nm  f=0.2782  <S**2>=0.000
     244 -> 247        0.15684
     245 -> 248        0.17101
     246 -> 247        0.67310
     246 <- 247       -0.15443

 Excited State   3:      Singlet-A      1.8900 eV  656.01 nm  f=0.0114  <S**2>=0.000
     243 -> 247        0.68217
     245 -> 247       -0.15209

 Excited State   4:      Singlet-A      2.0355 eV  609.11 nm  f=0.0000  <S**2>=0.000
     242 -> 247        0.70709

 Excited State   5:      Singlet-A      2.0523 eV  604.12 nm  f=0.1004  <S**2>=0.000
     243 -> 247        0.16772
     244 -> 247        0.20521
     245 -> 247        0.59540
     246 -> 248       -0.23438
     246 -> 249       -0.10182

 The electronic state is 1-A.
 Alpha  occ. eigenvalues --  -46.26934 -18.82343 -18.82155 -18.77056 -18.76248
 Alpha  occ. eigenvalues --  -18.75712 -18.75039 -14.03643 -14.03140 -14.01702
 Alpha  occ. eigenvalues --  -14.00834 -10.04332 -10.04185 -10.00432  -9.98761
 Alpha  occ. eigenvalues --   -9.98089  -9.97765  -9.97078  -9.96944  -9.96598
 Alpha  occ. eigenvalues --   -9.96532  -9.96240  -9.95650  -9.95541  -9.95119
 Alpha  occ. eigenvalues --   -9.95038  -9.94713  -9.94454  -9.94387  -9.94257
 Alpha  occ. eigenvalues --   -9.94144  -9.93993  -9.93811  -9.93809  -9.93772
 Alpha  occ. eigenvalues --   -9.93626  -9.93507  -9.93222  -9.93010  -9.92918
 Alpha  occ. eigenvalues --   -9.92867  -9.92819  -9.92585  -9.92384  -9.92291
 Alpha  occ. eigenvalues --   -9.92285  -9.92272  -9.92213  -9.91920  -9.91831
 Alpha  occ. eigenvalues --   -9.91755  -9.91549  -9.91421  -9.91361  -9.91168
 Alpha  occ. eigenvalues --   -9.91156  -9.91145  -9.91093  -9.91027  -9.90968
 Alpha  occ. eigenvalues --   -9.90860  -9.90781  -9.90538  -9.90484  -9.90408
 Alpha  occ. eigenvalues --   -9.90311  -2.91602  -1.72032  -1.71479  -1.71315
 Alpha  occ. eigenvalues --   -0.98378  -0.98040  -0.91559  -0.91519  -0.90651
 Alpha  occ. eigenvalues --   -0.88991  -0.86132  -0.85283  -0.84758  -0.84097
 Alpha  occ. eigenvalues --   -0.74667  -0.73687  -0.73034  -0.72475  -0.72108
 Alpha  occ. eigenvalues --   -0.71952  -0.71572  -0.70859  -0.70500  -0.70406
 Alpha  occ. eigenvalues --   -0.69865  -0.69127  -0.67931  -0.67419  -0.66900
 Alpha  occ. eigenvalues --   -0.66464  -0.65938  -0.65419  -0.64905  -0.64459
 Alpha  occ. eigenvalues --   -0.64084  -0.62855  -0.62385  -0.61748  -0.60794
 Alpha  occ. eigenvalues --   -0.60761  -0.59797  -0.59735  -0.59155  -0.58864
 Alpha  occ. eigenvalues --   -0.58263  -0.57707  -0.56328  -0.55502  -0.54217
 Alpha  occ. eigenvalues --   -0.53928  -0.53770  -0.52832  -0.52326  -0.51540
 Alpha  occ. eigenvalues --   -0.51152  -0.50977  -0.50560  -0.50493  -0.50157
 Alpha  occ. eigenvalues --   -0.49969  -0.49212  -0.48274  -0.47386  -0.46560
 Alpha  occ. eigenvalues --   -0.46404  -0.46224  -0.45767  -0.45057  -0.44275
 Alpha  occ. eigenvalues --   -0.43999  -0.43749  -0.43148  -0.42867  -0.42463
 Alpha  occ. eigenvalues --   -0.41845  -0.41676  -0.41333  -0.41249  -0.41154
 Alpha  occ. eigenvalues --   -0.40915  -0.40911  -0.40508  -0.40407  -0.40128
 Alpha  occ. eigenvalues --   -0.40026  -0.39765  -0.39653  -0.39453  -0.39435
 Alpha  occ. eigenvalues --   -0.39166  -0.38764  -0.38693  -0.38647  -0.38543
 Alpha  occ. eigenvalues --   -0.38047  -0.37487  -0.37434  -0.37356  -0.37261
 Alpha  occ. eigenvalues --   -0.37092  -0.36902  -0.36671  -0.36497  -0.36324
 Alpha  occ. eigenvalues --   -0.36198  -0.36044  -0.35942  -0.35868  -0.35533
 Alpha  occ. eigenvalues --   -0.35424  -0.35272  -0.35111  -0.34665  -0.34558
 Alpha  occ. eigenvalues --   -0.34381  -0.34231  -0.34089  -0.33896  -0.33654
 Alpha  occ. eigenvalues --   -0.33491  -0.33260  -0.33187  -0.33123  -0.32955
 Alpha  occ. eigenvalues --   -0.32745  -0.32602  -0.32489  -0.32362  -0.32170
 Alpha  occ. eigenvalues --   -0.32091  -0.31975  -0.31920  -0.31636  -0.31486
 Alpha  occ. eigenvalues --   -0.31371  -0.30875  -0.30838  -0.30729  -0.30534
 Alpha  occ. eigenvalues --   -0.30376  -0.30250  -0.30037  -0.29799  -0.29729
 Alpha  occ. eigenvalues --   -0.29514  -0.29464  -0.29305  -0.29068  -0.29006
 Alpha  occ. eigenvalues --   -0.28832  -0.28469  -0.28389  -0.28257  -0.27849
 Alpha  occ. eigenvalues --   -0.27746  -0.27485  -0.27294  -0.26935  -0.26674
 Alpha  occ. eigenvalues --   -0.26320  -0.26314  -0.25919  -0.25812  -0.25395
 Alpha  occ. eigenvalues --   -0.25319  -0.25041  -0.24042  -0.23833  -0.23393
 Alpha  occ. eigenvalues --   -0.22931  -0.22735  -0.21971  -0.21276  -0.20828
 Alpha  occ. eigenvalues --   -0.20418  -0.19429  -0.18847  -0.18270  -0.17574
 Alpha  occ. eigenvalues --   -0.16056
 Alpha virt. eigenvalues --   -0.11949  -0.07034  -0.06061  -0.04682  -0.03325
 Alpha virt. eigenvalues --   -0.02640  -0.02518  -0.02221  -0.01265   0.00210
 Alpha virt. eigenvalues --    0.01083   0.01326   0.01635   0.02552   0.03045

 Mulliken charges:
               1
     1  Mg   0.709185
     2  C    0.002918
     3  C   -0.086330
     4  C   -0.012177
     5  C   -0.072064
     6  N   -0.234542
     7  C   -0.057339
     8  C    0.076492
     9  C    0.009834
    10  C    0.008018
    11  C    0.100808
    12  C    0.102273
    13  C    0.060873
    14  C    0.082083
    15  O   -0.210728
    16  O   -0.266649
    17  N   -0.299836
    18  C    0.214663
    19  C   -0.155275
    20  C    0.013965
    21  C    0.128335
    22  C    0.185208
    23  C   -0.054518
    24  O   -0.157179
    25  C    0.116126
    26  N   -0.246377
    27  C   -0.003127
    28  C   -0.038762
    29  C    0.060636
    30  C    0.013320
    31  C    0.133486
    32  C    0.098425
    33  C    0.074857
    34  N   -0.265648
    35  C    0.111965
    36  C   -0.160289
    37  C    0.125208
    38  C    0.069476
    39  C    0.168937
    40  C   -0.099378
    41  O   -0.117383
    42  C    0.022335
    43  C    0.128718
    44  O   -0.159652
    45  O   -0.273926
    46  C    0.217437
    47  C    0.295997
    48  C   -0.112147
    49  C   -0.121546
    50  C    0.112837
    51  C    0.119911
    52  C    0.066699
    53  C    0.088246
    54  C   -0.036685
    55  C    0.075835
    56  C    0.124208
    57  C    0.042099
    58  C    0.103184
    59  C   -0.068386
    60  C    0.083965
    61  C    0.129878
    62  C    0.045686
    63  C    0.046023
    64  C   -0.038713
    65  C    0.060074
    66  C    0.150693
    67  H   -0.059058
    68  H   -0.038957
    69  H   -0.065489
    70  H   -0.014505
    71  H   -0.008444
    72  H   -0.002252
    73  H   -0.022395
    74  H   -0.023173
    75  H   -0.008761
    76  H   -0.009236
    77  H    0.039224
    78  H   -0.000269
    79  H   -0.043332
    80  H    0.013387
    81  H    0.001673
    82  H    0.009292
    83  H   -0.006095
    84  H    0.005768
    85  H   -0.025625
    86  H   -0.040209
    87  H   -0.001417
    88  H   -0.010538
    89  H    0.005526
    90  H   -0.013740
    91  H   -0.021637
    92  H   -0.014899
    93  H   -0.010130
    94  H    0.004361
    95  H    0.017597
    96  H   -0.018933
    97  H    0.008388
    98  H   -0.012159
    99  H    0.018157
   100  H    0.007231
   101  H    0.035168
   102  H    0.013864
   103  H    0.009069
   104  H   -0.024654
   105  H   -0.007296
   106  H   -0.029751
   107  H    0.010236
   108  H   -0.019318
   109  H   -0.039395
   110  H   -0.028039
   111  H   -0.036839
   112  H   -0.029651
   113  H   -0.028922
   114  H   -0.023579
   115  H   -0.014464
   116  H   -0.017914
   117  H   -0.018293
   118  H   -0.038929
   119  H   -0.034067
   120  H   -0.029469
   121  H   -0.031109
   122  H   -0.038097
   123  H   -0.036379
   124  H   -0.035963
   125  H   -0.026271
   126  H   -0.027256
   127  H   -0.013318
   128  H   -0.042812
   129  H   -0.031015
   130  H   -0.032162
   131  H   -0.040228
   132  H   -0.030062
   133  H   -0.037628
   134  H   -0.048998
   135  H   -0.013690
   136  H    0.000790
   137  H   -0.006516
   138  H   -0.020543
   139  H   -0.005186
   140  H   -0.022915
 Sum of Mulliken charges =  -0.00000

 Dipole moment (field-independent basis, Debye):
    X=              1.5153    Y=              2.4677    Z=              0.9431  Tot=              3.0456
 Quadrupole moment (field-independent basis, Debye-Ang):
   XX=           -379.6540   YY=           -411.7611   ZZ=           -411.8832
   XY=             15.3980   XZ=              7.7313   YZ=             -4.6369

 Normal termination of Gaussian 16 at Thu May  5 11:10:33 2022.
