 Gaussian 16, Revision A.03,
 Gaussian 16:  ES64L-G16RevA.03 25-Dec-2016

 -----------------------------------
 #p cam-b3lyp/Def2SVP td=(nstates=5)
 -----------------------------------

 -------------------------------------------------------
 step_801_chromophore_25 TDDFT with cam-b3lyp functional
 -------------------------------------------------------
 Symbolic Z-matrix:
 Charge =  0 Multiplicity = 1

                         Standard orientation:
 ---------------------------------------------------------------------
 Center     Atomic      Atomic             Coordinates (Angstroms)
 Number     Number       Type             X           Y           Z
 ---------------------------------------------------------------------
      1         12           0       -6.280603    0.298178   -0.401911
      2          6           0       -3.541903   -1.881115   -0.554272
      3          6           0       -4.062895    2.877887    0.128447
      4          6           0       -8.889407    2.312192    0.382586
      5          6           0       -8.476805   -2.509211   -0.346122
      6          7           0       -4.028331    0.373282   -0.232634
      7          6           0       -3.117051   -0.625540   -0.225122
      8          6           0       -1.660341   -0.007738    0.019168
      9          6           0       -1.853911    1.516412    0.131999
     10          6           0       -3.405580    1.618869    0.070715
     11          6           0       -1.224801    2.216083    1.294277
     12          6           0       -0.565544   -0.407934   -1.056794
     13          6           0        0.758800   -1.073668   -0.392313
     14          6           0        2.131503   -0.694843   -0.899767
     15          8           0        2.414789   -0.449281   -2.070027
     16          8           0        3.141889   -0.542040    0.019571
     17          7           0       -6.471428    2.321080   -0.051314
     18          6           0       -5.419470    3.176295    0.161742
     19          6           0       -5.897719    4.484927    0.482455
     20          6           0       -7.393764    4.424899    0.558711
     21          6           0       -7.637975    2.961934    0.303163
     22          6           0       -4.944235    5.578341    0.726791
     23          6           0       -8.504713    5.450382    0.809003
     24          8           0       -9.706066    5.234649    0.717718
     25          6           0       -8.100239    6.863587    1.193177
     26          7           0       -8.327499   -0.101224   -0.141106
     27          6           0       -9.238102    0.986472    0.163821
     28          6           0      -10.702064    0.406965    0.427939
     29          6           0      -10.557866   -1.029645   -0.227435
     30          6           0       -9.034045   -1.237271   -0.155517
     31          6           0      -11.120986    0.491469    1.937883
     32          6           0      -11.105783   -1.169988   -1.699029
     33          6           0      -12.615832   -1.336812   -1.748648
     34          7           0       -6.116040   -1.760269   -0.447031
     35          6           0       -7.093089   -2.765793   -0.504525
     36          6           0       -6.459200   -4.029917   -0.797472
     37          6           0       -5.088385   -3.736647   -0.783056
     38          6           0       -4.920888   -2.334468   -0.611591
     39          6           0       -7.119219   -5.381662   -0.927456
     40          6           0       -3.816471   -4.300799   -0.966579
     41          8           0       -3.455859   -5.408240   -1.293123
     42          6           0       -2.742014   -3.219179   -0.570231
     43          6           0       -1.993756   -3.644919    0.712159
     44          8           0       -2.358050   -3.414365    1.836191
     45          8           0       -0.856605   -4.301976    0.341268
     46          6           0        0.112945   -4.632407    1.403521
     47          6           0        4.450047   -0.290074   -0.565096
     48          6           0        5.428780   -0.047815    0.574984
     49          6           0        6.757473    0.354828    0.441724
     50          6           0        7.568186    0.284221   -0.862540
     51          6           0        7.559131    0.748226    1.710628
     52          6           0        8.107145   -0.408810    2.507358
     53          6           0        9.468197   -0.031438    3.243405
     54          6           0       10.645682   -1.144069    3.058918
     55          6           0       10.759005   -2.061929    4.348715
     56          6           0       11.982023   -0.403076    2.821432
     57          6           0       12.703316   -0.679229    1.423025
     58          6           0       13.590838    0.463710    0.944085
     59          6           0       14.384292    0.047323   -0.360443
     60          6           0       15.742366   -0.612741    0.036002
     61          6           0       14.647804    1.209165   -1.267395
     62          6           0       13.638449    1.172399   -2.497230
     63          6           0       12.766026    2.422118   -2.368710
     64          6           0       11.527914    2.437984   -3.171354
     65          6           0       10.382550    1.556865   -2.646268
     66          6           0       11.789064    2.237843   -4.636253
     67          1           0       -3.282456    3.639601    0.183362
     68          1           0       -9.840104    2.828738    0.532415
     69          1           0       -9.127001   -3.384661   -0.390546
     70          1           0       -1.269195   -0.444362    0.938431
     71          1           0       -1.347751    2.048548   -0.673472
     72          1           0       -1.905122    2.862561    1.848472
     73          1           0       -0.343278    2.823914    1.089026
     74          1           0       -0.749732    1.523897    1.989554
     75          1           0       -0.211962    0.413077   -1.680536
     76          1           0       -0.985633   -1.139708   -1.746664
     77          1           0        0.583791   -2.148702   -0.433247
     78          1           0        0.744246   -0.722465    0.639384
     79          1           0       -5.448669    6.542663    0.649185
     80          1           0       -4.073950    5.710763    0.083050
     81          1           0       -4.734794    5.568883    1.795592
     82          1           0       -7.321497    6.997984    1.944695
     83          1           0       -8.941142    7.549241    1.298083
     84          1           0       -7.603857    7.129643    0.259669
     85          1           0      -11.467216    0.971428   -0.106220
     86          1           0      -10.948267   -1.718600    0.522104
     87          1           0      -10.247775    0.880200    2.461804
     88          1           0      -11.329607   -0.496063    2.349770
     89          1           0      -11.979551    1.148028    2.077797
     90          1           0      -10.579906   -1.919166   -2.289785
     91          1           0      -11.016679   -0.228672   -2.241050
     92          1           0      -13.027173   -1.432805   -0.743441
     93          1           0      -12.802341   -2.327044   -2.165611
     94          1           0      -13.082464   -0.515059   -2.291077
     95          1           0       -7.089920   -5.800392   -1.934136
     96          1           0       -8.118814   -5.456041   -0.500445
     97          1           0       -6.531011   -5.999785   -0.248371
     98          1           0       -2.017574   -3.088491   -1.374007
     99          1           0       -0.452980   -4.883746    2.300462
    100          1           0        0.580485   -3.661415    1.568537
    101          1           0        0.772350   -5.464636    1.156294
    102          1           0        4.471551    0.600396   -1.192964
    103          1           0        4.825601   -1.112073   -1.175670
    104          1           0        4.919297   -0.111121    1.535674
    105          1           0        8.082507    1.139182   -1.302470
    106          1           0        6.858632    0.111573   -1.672186
    107          1           0        8.314118   -0.510814   -0.868264
    108          1           0        7.111096    1.460116    2.403247
    109          1           0        8.466959    1.206016    1.316365
    110          1           0        8.098432   -1.319828    1.909092
    111          1           0        7.340806   -0.644627    3.246612
    112          1           0        9.223708    0.185583    4.282722
    113          1           0        9.793686    0.940330    2.872581
    114          1           0       10.469372   -1.836017    2.234690
    115          1           0       11.495601   -1.735576    5.083224
    116          1           0       11.039802   -3.078961    4.074409
    117          1           0        9.825869   -2.154846    4.904569
    118          1           0       12.636442   -0.689745    3.644515
    119          1           0       11.892574    0.680260    2.902660
    120          1           0       12.019022   -0.856619    0.593047
    121          1           0       13.262372   -1.610646    1.502291
    122          1           0       14.280740    0.742581    1.740003
    123          1           0       13.044640    1.394054    0.793745
    124          1           0       13.923530   -0.745789   -0.950308
    125          1           0       15.727454   -1.513086   -0.579488
    126          1           0       15.827987   -0.978321    1.059205
    127          1           0       16.681491   -0.078903   -0.111760
    128          1           0       15.672403    1.164196   -1.635755
    129          1           0       14.456491    2.119223   -0.698406
    130          1           0       13.098143    0.230689   -2.588126
    131          1           0       14.262242    1.262236   -3.386766
    132          1           0       13.510917    3.168724   -2.645250
    133          1           0       12.549329    2.505502   -1.304521
    134          1           0       11.134931    3.410906   -2.879476
    135          1           0       10.387746    0.619839   -3.204172
    136          1           0        9.443115    2.071383   -2.848481
    137          1           0       10.431608    1.402654   -1.568220
    138          1           0       11.281756    3.066544   -5.130360
    139          1           0       11.435110    1.260673   -4.964477
    140          1           0       12.844110    2.452819   -4.805546
 ---------------------------------------------------------------------

 SCF Done:  E(RCAM-B3LYP) =  -3007.14444944     A.U. after   19 cycles

 Excitation energies and oscillator strengths:

 Excited State   1:      Singlet-A      1.6468 eV  752.90 nm  f=0.3773  <S**2>=0.000
     245 -> 248        0.16774
     246 -> 247        0.68830
     245 <- 248        0.10758
 This state for optimization and/or second-order correction.
 Total Energy, E(TD-HF/TD-DFT) =  -3007.08393191
 Copying the excited state density for this state as the 1-particle RhoCI density.

 Excited State   2:      Singlet-A      2.2203 eV  558.41 nm  f=0.1488  <S**2>=0.000
     245 -> 247        0.64399
     246 -> 248       -0.27928

 Excited State   3:      Singlet-A      3.3028 eV  375.39 nm  f=0.0029  <S**2>=0.000
     241 -> 247       -0.34425
     241 -> 249       -0.15552
     241 -> 250        0.15451
     242 -> 247        0.41354
     243 -> 247       -0.37007

 Excited State   4:      Singlet-A      3.3316 eV  372.14 nm  f=0.0006  <S**2>=0.000
     241 -> 247        0.46569
     241 -> 249        0.15906
     241 -> 250       -0.13362
     242 -> 247        0.11733
     243 -> 247       -0.44503

 Excited State   5:      Singlet-A      3.4147 eV  363.09 nm  f=0.0001  <S**2>=0.000
     241 -> 247        0.22485
     242 -> 247        0.51842
     243 -> 247        0.36960
     246 -> 248        0.16448

 The electronic state is 1-A.
 Alpha  occ. eigenvalues --  -46.88428 -19.25275 -19.25162 -19.20283 -19.19328
 Alpha  occ. eigenvalues --  -19.18737 -19.18349 -14.42532 -14.42071 -14.40100
 Alpha  occ. eigenvalues --  -14.39319 -10.39737 -10.39699 -10.35526 -10.34151
 Alpha  occ. eigenvalues --  -10.32209 -10.31774 -10.31569 -10.31523 -10.31051
 Alpha  occ. eigenvalues --  -10.30837 -10.30767 -10.30126 -10.29587 -10.29578
 Alpha  occ. eigenvalues --  -10.29315 -10.28846 -10.28832 -10.28535 -10.28387
 Alpha  occ. eigenvalues --  -10.28261 -10.28239 -10.28078 -10.28054 -10.28007
 Alpha  occ. eigenvalues --  -10.27995 -10.27864 -10.27313 -10.27008 -10.26756
 Alpha  occ. eigenvalues --  -10.26688 -10.26636 -10.26464 -10.26309 -10.26272
 Alpha  occ. eigenvalues --  -10.26068 -10.26012 -10.25890 -10.25862 -10.25610
 Alpha  occ. eigenvalues --  -10.25346 -10.25299 -10.25131 -10.25060 -10.25026
 Alpha  occ. eigenvalues --  -10.24877 -10.24868 -10.24817 -10.24729 -10.24631
 Alpha  occ. eigenvalues --  -10.24596 -10.24408 -10.24237 -10.24168 -10.24044
 Alpha  occ. eigenvalues --  -10.23917  -3.17003  -1.91909  -1.91450  -1.91315
 Alpha  occ. eigenvalues --   -1.16898  -1.16712  -1.10078  -1.09801  -1.08715
 Alpha  occ. eigenvalues --   -1.06892  -1.03918  -1.02767  -1.02364  -1.01581
 Alpha  occ. eigenvalues --   -0.91832  -0.90555  -0.89830  -0.89282  -0.88803
 Alpha  occ. eigenvalues --   -0.88666  -0.88153  -0.87481  -0.87102  -0.87007
 Alpha  occ. eigenvalues --   -0.86409  -0.85517  -0.84183  -0.83590  -0.83022
 Alpha  occ. eigenvalues --   -0.82526  -0.82079  -0.81304  -0.80731  -0.80353
 Alpha  occ. eigenvalues --   -0.79914  -0.78549  -0.78010  -0.77266  -0.76269
 Alpha  occ. eigenvalues --   -0.76150  -0.75125  -0.75049  -0.74435  -0.74116
 Alpha  occ. eigenvalues --   -0.73370  -0.72740  -0.71169  -0.70306  -0.68888
 Alpha  occ. eigenvalues --   -0.68552  -0.68336  -0.67228  -0.66739  -0.65736
 Alpha  occ. eigenvalues --   -0.65384  -0.65085  -0.64566  -0.64344  -0.64239
 Alpha  occ. eigenvalues --   -0.63828  -0.63181  -0.62026  -0.61136  -0.60185
 Alpha  occ. eigenvalues --   -0.59969  -0.59841  -0.59155  -0.58408  -0.57987
 Alpha  occ. eigenvalues --   -0.57494  -0.57088  -0.56317  -0.56221  -0.55763
 Alpha  occ. eigenvalues --   -0.54902  -0.54707  -0.54453  -0.54125  -0.53990
 Alpha  occ. eigenvalues --   -0.53806  -0.53522  -0.53484  -0.53137  -0.53071
 Alpha  occ. eigenvalues --   -0.52790  -0.52609  -0.52365  -0.51934  -0.51849
 Alpha  occ. eigenvalues --   -0.51782  -0.51628  -0.51267  -0.51211  -0.50989
 Alpha  occ. eigenvalues --   -0.50318  -0.50014  -0.49817  -0.49699  -0.49597
 Alpha  occ. eigenvalues --   -0.49294  -0.49239  -0.49067  -0.48861  -0.48751
 Alpha  occ. eigenvalues --   -0.48496  -0.48283  -0.48069  -0.47956  -0.47909
 Alpha  occ. eigenvalues --   -0.47446  -0.47339  -0.47182  -0.46663  -0.46528
 Alpha  occ. eigenvalues --   -0.46344  -0.45978  -0.45890  -0.45829  -0.45612
 Alpha  occ. eigenvalues --   -0.45353  -0.45063  -0.44897  -0.44819  -0.44678
 Alpha  occ. eigenvalues --   -0.44583  -0.44405  -0.44177  -0.44023  -0.43896
 Alpha  occ. eigenvalues --   -0.43646  -0.43550  -0.43459  -0.43222  -0.43075
 Alpha  occ. eigenvalues --   -0.42941  -0.42505  -0.42192  -0.42160  -0.41822
 Alpha  occ. eigenvalues --   -0.41717  -0.41678  -0.41383  -0.41352  -0.41123
 Alpha  occ. eigenvalues --   -0.40721  -0.40657  -0.40623  -0.40331  -0.40195
 Alpha  occ. eigenvalues --   -0.40027  -0.39515  -0.39396  -0.39266  -0.38748
 Alpha  occ. eigenvalues --   -0.38647  -0.38313  -0.38164  -0.37755  -0.37639
 Alpha  occ. eigenvalues --   -0.37108  -0.37080  -0.37075  -0.36950  -0.36839
 Alpha  occ. eigenvalues --   -0.36500  -0.35593  -0.34828  -0.34475  -0.34414
 Alpha  occ. eigenvalues --   -0.33766  -0.33329  -0.32951  -0.31518  -0.30888
 Alpha  occ. eigenvalues --   -0.30419  -0.30273  -0.29571  -0.28963  -0.24352
 Alpha  occ. eigenvalues --   -0.21337
 Alpha virt. eigenvalues --   -0.09208  -0.01713   0.00376   0.02219   0.02869
 Alpha virt. eigenvalues --    0.04344   0.05075   0.05308   0.05504   0.06616
 Alpha virt. eigenvalues --    0.07102   0.08221   0.08370   0.08735   0.09364

 Mulliken charges:
               1
     1  Mg   0.841469
     2  C   -0.015703
     3  C   -0.101576
     4  C   -0.034284
     5  C   -0.079479
     6  N   -0.303632
     7  C   -0.016383
     8  C    0.028748
     9  C   -0.043395
    10  C    0.028730
    11  C    0.040165
    12  C    0.051803
    13  C   -0.005999
    14  C    0.166566
    15  O   -0.250671
    16  O   -0.332528
    17  N   -0.386525
    18  C    0.218609
    19  C   -0.161380
    20  C   -0.049201
    21  C    0.149363
    22  C    0.120005
    23  C    0.022006
    24  O   -0.200181
    25  C    0.036387
    26  N   -0.316385
    27  C    0.012707
    28  C   -0.087726
    29  C    0.000678
    30  C    0.034163
    31  C    0.076108
    32  C    0.042809
    33  C    0.012540
    34  N   -0.356036
    35  C    0.118092
    36  C   -0.153856
    37  C    0.042845
    38  C    0.108025
    39  C    0.118390
    40  C   -0.003867
    41  O   -0.155630
    42  C   -0.048447
    43  C    0.211233
    44  O   -0.195952
    45  O   -0.337753
    46  C    0.178173
    47  C    0.263533
    48  C   -0.126925
    49  C   -0.150548
    50  C    0.058043
    51  C    0.064983
    52  C    0.016095
    53  C    0.036070
    54  C   -0.097082
    55  C    0.022388
    56  C    0.072497
    57  C   -0.004634
    58  C    0.049936
    59  C   -0.126007
    60  C    0.027744
    61  C    0.073916
    62  C   -0.008047
    63  C   -0.002594
    64  C   -0.097157
    65  C    0.006728
    66  C    0.080095
    67  H   -0.023364
    68  H    0.001525
    69  H   -0.028160
    70  H    0.018799
    71  H    0.025549
    72  H    0.024102
    73  H    0.004685
    74  H    0.002348
    75  H    0.024768
    76  H    0.020275
    77  H    0.065327
    78  H    0.030060
    79  H   -0.015208
    80  H    0.039842
    81  H    0.029830
    82  H    0.036559
    83  H    0.028436
    84  H    0.029553
    85  H    0.008950
    86  H   -0.004580
    87  H    0.024814
    88  H    0.012877
    89  H    0.029163
    90  H    0.015845
    91  H    0.008033
    92  H    0.008489
    93  H    0.013812
    94  H    0.027338
    95  H    0.044902
    96  H    0.007523
    97  H    0.034990
    98  H    0.029624
    99  H    0.044751
   100  H    0.027100
   101  H    0.058447
   102  H    0.041438
   103  H    0.035178
   104  H    0.010264
   105  H    0.014920
   106  H   -0.005772
   107  H    0.031918
   108  H    0.010407
   109  H   -0.011383
   110  H    0.000605
   111  H   -0.009362
   112  H   -0.000805
   113  H   -0.002179
   114  H    0.007439
   115  H    0.008234
   116  H    0.006244
   117  H    0.005265
   118  H   -0.009867
   119  H   -0.006445
   120  H   -0.004882
   121  H   -0.004705
   122  H   -0.009240
   123  H   -0.011333
   124  H   -0.003519
   125  H   -0.002048
   126  H   -0.002651
   127  H    0.010833
   128  H   -0.010452
   129  H   -0.002251
   130  H   -0.006078
   131  H   -0.010918
   132  H   -0.000416
   133  H   -0.013066
   134  H   -0.014984
   135  H    0.007050
   136  H    0.022912
   137  H    0.013068
   138  H    0.006219
   139  H    0.018262
   140  H    0.003040
 Sum of Mulliken charges =  -0.00000

 Dipole moment (field-independent basis, Debye):
    X=              1.6755    Y=              2.4503    Z=              1.1106  Tot=              3.1693
 Quadrupole moment (field-independent basis, Debye-Ang):
   XX=           -377.8654   YY=           -407.9163   ZZ=           -412.2873
   XY=             16.1765   XZ=              8.2224   YZ=             -4.1080

 Normal termination of Gaussian 16 at Thu May  5 09:56:38 2022.
