 Gaussian 16, Revision A.03,
 Gaussian 16:  ES64L-G16RevA.03 25-Dec-2016

 ---------------------------------
 #p PBE1PBE/Def2SVP td=(nstates=5)
 ---------------------------------

 -----------------------------------------------------
 step_801_chromophore_25 TDDFT with PBE1PBE functional
 -----------------------------------------------------
 Symbolic Z-matrix:
 Charge =  0 Multiplicity = 1

                         Standard orientation:
 ---------------------------------------------------------------------
 Center     Atomic      Atomic             Coordinates (Angstroms)
 Number     Number       Type             X           Y           Z
 ---------------------------------------------------------------------
      1         12           0       -6.280603    0.298178   -0.401911
      2          6           0       -3.541903   -1.881115   -0.554272
      3          6           0       -4.062895    2.877887    0.128447
      4          6           0       -8.889407    2.312192    0.382586
      5          6           0       -8.476805   -2.509211   -0.346122
      6          7           0       -4.028331    0.373282   -0.232634
      7          6           0       -3.117051   -0.625540   -0.225122
      8          6           0       -1.660341   -0.007738    0.019168
      9          6           0       -1.853911    1.516412    0.131999
     10          6           0       -3.405580    1.618869    0.070715
     11          6           0       -1.224801    2.216083    1.294277
     12          6           0       -0.565544   -0.407934   -1.056794
     13          6           0        0.758800   -1.073668   -0.392313
     14          6           0        2.131503   -0.694843   -0.899767
     15          8           0        2.414789   -0.449281   -2.070027
     16          8           0        3.141889   -0.542040    0.019571
     17          7           0       -6.471428    2.321080   -0.051314
     18          6           0       -5.419470    3.176295    0.161742
     19          6           0       -5.897719    4.484927    0.482455
     20          6           0       -7.393764    4.424899    0.558711
     21          6           0       -7.637975    2.961934    0.303163
     22          6           0       -4.944235    5.578341    0.726791
     23          6           0       -8.504713    5.450382    0.809003
     24          8           0       -9.706066    5.234649    0.717718
     25          6           0       -8.100239    6.863587    1.193177
     26          7           0       -8.327499   -0.101224   -0.141106
     27          6           0       -9.238102    0.986472    0.163821
     28          6           0      -10.702064    0.406965    0.427939
     29          6           0      -10.557866   -1.029645   -0.227435
     30          6           0       -9.034045   -1.237271   -0.155517
     31          6           0      -11.120986    0.491469    1.937883
     32          6           0      -11.105783   -1.169988   -1.699029
     33          6           0      -12.615832   -1.336812   -1.748648
     34          7           0       -6.116040   -1.760269   -0.447031
     35          6           0       -7.093089   -2.765793   -0.504525
     36          6           0       -6.459200   -4.029917   -0.797472
     37          6           0       -5.088385   -3.736647   -0.783056
     38          6           0       -4.920888   -2.334468   -0.611591
     39          6           0       -7.119219   -5.381662   -0.927456
     40          6           0       -3.816471   -4.300799   -0.966579
     41          8           0       -3.455859   -5.408240   -1.293123
     42          6           0       -2.742014   -3.219179   -0.570231
     43          6           0       -1.993756   -3.644919    0.712159
     44          8           0       -2.358050   -3.414365    1.836191
     45          8           0       -0.856605   -4.301976    0.341268
     46          6           0        0.112945   -4.632407    1.403521
     47          6           0        4.450047   -0.290074   -0.565096
     48          6           0        5.428780   -0.047815    0.574984
     49          6           0        6.757473    0.354828    0.441724
     50          6           0        7.568186    0.284221   -0.862540
     51          6           0        7.559131    0.748226    1.710628
     52          6           0        8.107145   -0.408810    2.507358
     53          6           0        9.468197   -0.031438    3.243405
     54          6           0       10.645682   -1.144069    3.058918
     55          6           0       10.759005   -2.061929    4.348715
     56          6           0       11.982023   -0.403076    2.821432
     57          6           0       12.703316   -0.679229    1.423025
     58          6           0       13.590838    0.463710    0.944085
     59          6           0       14.384292    0.047323   -0.360443
     60          6           0       15.742366   -0.612741    0.036002
     61          6           0       14.647804    1.209165   -1.267395
     62          6           0       13.638449    1.172399   -2.497230
     63          6           0       12.766026    2.422118   -2.368710
     64          6           0       11.527914    2.437984   -3.171354
     65          6           0       10.382550    1.556865   -2.646268
     66          6           0       11.789064    2.237843   -4.636253
     67          1           0       -3.282456    3.639601    0.183362
     68          1           0       -9.840104    2.828738    0.532415
     69          1           0       -9.127001   -3.384661   -0.390546
     70          1           0       -1.269195   -0.444362    0.938431
     71          1           0       -1.347751    2.048548   -0.673472
     72          1           0       -1.905122    2.862561    1.848472
     73          1           0       -0.343278    2.823914    1.089026
     74          1           0       -0.749732    1.523897    1.989554
     75          1           0       -0.211962    0.413077   -1.680536
     76          1           0       -0.985633   -1.139708   -1.746664
     77          1           0        0.583791   -2.148702   -0.433247
     78          1           0        0.744246   -0.722465    0.639384
     79          1           0       -5.448669    6.542663    0.649185
     80          1           0       -4.073950    5.710763    0.083050
     81          1           0       -4.734794    5.568883    1.795592
     82          1           0       -7.321497    6.997984    1.944695
     83          1           0       -8.941142    7.549241    1.298083
     84          1           0       -7.603857    7.129643    0.259669
     85          1           0      -11.467216    0.971428   -0.106220
     86          1           0      -10.948267   -1.718600    0.522104
     87          1           0      -10.247775    0.880200    2.461804
     88          1           0      -11.329607   -0.496063    2.349770
     89          1           0      -11.979551    1.148028    2.077797
     90          1           0      -10.579906   -1.919166   -2.289785
     91          1           0      -11.016679   -0.228672   -2.241050
     92          1           0      -13.027173   -1.432805   -0.743441
     93          1           0      -12.802341   -2.327044   -2.165611
     94          1           0      -13.082464   -0.515059   -2.291077
     95          1           0       -7.089920   -5.800392   -1.934136
     96          1           0       -8.118814   -5.456041   -0.500445
     97          1           0       -6.531011   -5.999785   -0.248371
     98          1           0       -2.017574   -3.088491   -1.374007
     99          1           0       -0.452980   -4.883746    2.300462
    100          1           0        0.580485   -3.661415    1.568537
    101          1           0        0.772350   -5.464636    1.156294
    102          1           0        4.471551    0.600396   -1.192964
    103          1           0        4.825601   -1.112073   -1.175670
    104          1           0        4.919297   -0.111121    1.535674
    105          1           0        8.082507    1.139182   -1.302470
    106          1           0        6.858632    0.111573   -1.672186
    107          1           0        8.314118   -0.510814   -0.868264
    108          1           0        7.111096    1.460116    2.403247
    109          1           0        8.466959    1.206016    1.316365
    110          1           0        8.098432   -1.319828    1.909092
    111          1           0        7.340806   -0.644627    3.246612
    112          1           0        9.223708    0.185583    4.282722
    113          1           0        9.793686    0.940330    2.872581
    114          1           0       10.469372   -1.836017    2.234690
    115          1           0       11.495601   -1.735576    5.083224
    116          1           0       11.039802   -3.078961    4.074409
    117          1           0        9.825869   -2.154846    4.904569
    118          1           0       12.636442   -0.689745    3.644515
    119          1           0       11.892574    0.680260    2.902660
    120          1           0       12.019022   -0.856619    0.593047
    121          1           0       13.262372   -1.610646    1.502291
    122          1           0       14.280740    0.742581    1.740003
    123          1           0       13.044640    1.394054    0.793745
    124          1           0       13.923530   -0.745789   -0.950308
    125          1           0       15.727454   -1.513086   -0.579488
    126          1           0       15.827987   -0.978321    1.059205
    127          1           0       16.681491   -0.078903   -0.111760
    128          1           0       15.672403    1.164196   -1.635755
    129          1           0       14.456491    2.119223   -0.698406
    130          1           0       13.098143    0.230689   -2.588126
    131          1           0       14.262242    1.262236   -3.386766
    132          1           0       13.510917    3.168724   -2.645250
    133          1           0       12.549329    2.505502   -1.304521
    134          1           0       11.134931    3.410906   -2.879476
    135          1           0       10.387746    0.619839   -3.204172
    136          1           0        9.443115    2.071383   -2.848481
    137          1           0       10.431608    1.402654   -1.568220
    138          1           0       11.281756    3.066544   -5.130360
    139          1           0       11.435110    1.260673   -4.964477
    140          1           0       12.844110    2.452819   -4.805546
 ---------------------------------------------------------------------

 SCF Done:  E(RPBE1PBE) =  -3005.33327986     A.U. after   15 cycles

 Excitation energies and oscillator strengths:

 Excited State   1:      Singlet-A      1.8149 eV  683.14 nm  f=0.3606  <S**2>=0.000
     245 -> 248        0.16121
     246 -> 247        0.69617
     246 <- 247       -0.11681
 This state for optimization and/or second-order correction.
 Total Energy, E(TD-HF/TD-DFT) =  -3005.26658255
 Copying the excited state density for this state as the 1-particle RhoCI density.

 Excited State   2:      Singlet-A      2.2378 eV  554.04 nm  f=0.1435  <S**2>=0.000
     245 -> 247        0.65313
     246 -> 248       -0.25523

 Excited State   3:      Singlet-A      2.7800 eV  445.99 nm  f=0.0004  <S**2>=0.000
     243 -> 247        0.68409
     243 -> 249        0.12432
     243 -> 250       -0.10495

 Excited State   4:      Singlet-A      2.9690 eV  417.59 nm  f=0.0056  <S**2>=0.000
     240 -> 247       -0.12998
     242 -> 247        0.68670

 Excited State   5:      Singlet-A      3.0559 eV  405.73 nm  f=0.0009  <S**2>=0.000
     241 -> 247        0.68389
     241 -> 249       -0.11235

 The electronic state is 1-A.
 Alpha  occ. eigenvalues --  -46.91850 -19.25964 -19.25773 -19.20422 -19.19611
 Alpha  occ. eigenvalues --  -19.19066 -19.18466 -14.42102 -14.41591 -14.39812
 Alpha  occ. eigenvalues --  -14.38946 -10.36742 -10.36677 -10.32758 -10.31170
 Alpha  occ. eigenvalues --  -10.29404 -10.29384 -10.29224 -10.29209 -10.28933
 Alpha  occ. eigenvalues --  -10.28663 -10.28399 -10.27714 -10.27413 -10.27174
 Alpha  occ. eigenvalues --  -10.27120 -10.26663 -10.26351 -10.26204 -10.26100
 Alpha  occ. eigenvalues --  -10.26043 -10.26021 -10.25894 -10.25867 -10.25823
 Alpha  occ. eigenvalues --  -10.25604 -10.25585 -10.25006 -10.24566 -10.24424
 Alpha  occ. eigenvalues --  -10.24281 -10.24237 -10.23963 -10.23880 -10.23785
 Alpha  occ. eigenvalues --  -10.23559 -10.23416 -10.23395 -10.23232 -10.23231
 Alpha  occ. eigenvalues --  -10.23020 -10.22756 -10.22677 -10.22609 -10.22588
 Alpha  occ. eigenvalues --  -10.22447 -10.22435 -10.22366 -10.22265 -10.22132
 Alpha  occ. eigenvalues --  -10.22007 -10.21800 -10.21789 -10.21754 -10.21576
 Alpha  occ. eigenvalues --  -10.21339  -3.14003  -1.86850  -1.86370  -1.86238
 Alpha  occ. eigenvalues --   -1.11728  -1.11419  -1.04730  -1.04639  -1.03488
 Alpha  occ. eigenvalues --   -1.01757  -0.98493  -0.97485  -0.96956  -0.96214
 Alpha  occ. eigenvalues --   -0.86125  -0.84655  -0.84087  -0.83414  -0.83139
 Alpha  occ. eigenvalues --   -0.82785  -0.82402  -0.81739  -0.81395  -0.81145
 Alpha  occ. eigenvalues --   -0.80700  -0.79787  -0.78372  -0.77840  -0.77293
 Alpha  occ. eigenvalues --   -0.76721  -0.76312  -0.75559  -0.75014  -0.74633
 Alpha  occ. eigenvalues --   -0.74068  -0.72798  -0.72370  -0.71579  -0.70590
 Alpha  occ. eigenvalues --   -0.70242  -0.69412  -0.69264  -0.68579  -0.68294
 Alpha  occ. eigenvalues --   -0.67799  -0.67074  -0.65594  -0.64635  -0.63104
 Alpha  occ. eigenvalues --   -0.62936  -0.62642  -0.61738  -0.60959  -0.60197
 Alpha  occ. eigenvalues --   -0.59601  -0.59562  -0.59037  -0.58932  -0.58388
 Alpha  occ. eigenvalues --   -0.58304  -0.57360  -0.56587  -0.55400  -0.54608
 Alpha  occ. eigenvalues --   -0.54559  -0.54360  -0.53752  -0.53020  -0.52448
 Alpha  occ. eigenvalues --   -0.51995  -0.51553  -0.50887  -0.50623  -0.50158
 Alpha  occ. eigenvalues --   -0.49543  -0.49249  -0.48839  -0.48704  -0.48396
 Alpha  occ. eigenvalues --   -0.48353  -0.48000  -0.47933  -0.47714  -0.47625
 Alpha  occ. eigenvalues --   -0.47211  -0.47171  -0.46983  -0.46568  -0.46338
 Alpha  occ. eigenvalues --   -0.46315  -0.46072  -0.45865  -0.45798  -0.45529
 Alpha  occ. eigenvalues --   -0.45001  -0.44489  -0.44465  -0.44317  -0.44169
 Alpha  occ. eigenvalues --   -0.43933  -0.43834  -0.43648  -0.43459  -0.43369
 Alpha  occ. eigenvalues --   -0.43160  -0.42850  -0.42622  -0.42587  -0.42552
 Alpha  occ. eigenvalues --   -0.42070  -0.41952  -0.41882  -0.41330  -0.41269
 Alpha  occ. eigenvalues --   -0.41079  -0.40674  -0.40624  -0.40440  -0.40383
 Alpha  occ. eigenvalues --   -0.40136  -0.39757  -0.39571  -0.39521  -0.39385
 Alpha  occ. eigenvalues --   -0.39283  -0.39092  -0.38949  -0.38800  -0.38667
 Alpha  occ. eigenvalues --   -0.38401  -0.38309  -0.38146  -0.38070  -0.37890
 Alpha  occ. eigenvalues --   -0.37656  -0.37289  -0.37058  -0.36876  -0.36632
 Alpha  occ. eigenvalues --   -0.36605  -0.36477  -0.36237  -0.36080  -0.36018
 Alpha  occ. eigenvalues --   -0.35622  -0.35466  -0.35435  -0.35238  -0.34985
 Alpha  occ. eigenvalues --   -0.34930  -0.34499  -0.34205  -0.34044  -0.33502
 Alpha  occ. eigenvalues --   -0.33395  -0.33115  -0.33103  -0.32695  -0.32583
 Alpha  occ. eigenvalues --   -0.32174  -0.32041  -0.31973  -0.31866  -0.31827
 Alpha  occ. eigenvalues --   -0.31342  -0.30516  -0.29725  -0.29599  -0.29413
 Alpha  occ. eigenvalues --   -0.28557  -0.28505  -0.28258  -0.27172  -0.25860
 Alpha  occ. eigenvalues --   -0.25763  -0.25307  -0.25170  -0.24277  -0.21295
 Alpha  occ. eigenvalues --   -0.18991
 Alpha virt. eigenvalues --   -0.11610  -0.05298  -0.03819  -0.02152  -0.00252
 Alpha virt. eigenvalues --   -0.00108   0.00522   0.00799   0.01321   0.03163
 Alpha virt. eigenvalues --    0.04008   0.04110   0.04294   0.05381   0.06008

 Mulliken charges:
               1
     1  Mg   0.991805
     2  C   -0.019508
     3  C   -0.090609
     4  C   -0.034793
     5  C   -0.068846
     6  N   -0.400908
     7  C    0.054007
     8  C   -0.039341
     9  C   -0.123600
    10  C    0.069499
    11  C   -0.011584
    12  C    0.007694
    13  C   -0.088626
    14  C    0.233626
    15  O   -0.281864
    16  O   -0.366902
    17  N   -0.503830
    18  C    0.234485
    19  C   -0.191926
    20  C   -0.079471
    21  C    0.174951
    22  C    0.056999
    23  C    0.065091
    24  O   -0.237413
    25  C   -0.035913
    26  N   -0.414346
    27  C    0.042862
    28  C   -0.160117
    29  C   -0.078284
    30  C    0.075186
    31  C    0.020102
    32  C   -0.014906
    33  C   -0.057267
    34  N   -0.483053
    35  C    0.133834
    36  C   -0.165337
    37  C   -0.012621
    38  C    0.159642
    39  C    0.066520
    40  C    0.084837
    41  O   -0.202744
    42  C   -0.152506
    43  C    0.297679
    44  O   -0.232064
    45  O   -0.369764
    46  C    0.121940
    47  C    0.224425
    48  C   -0.133093
    49  C   -0.199034
    50  C   -0.008252
    51  C   -0.002448
    52  C   -0.039735
    53  C   -0.017796
    54  C   -0.184340
    55  C   -0.035409
    56  C    0.022071
    57  C   -0.067896
    58  C   -0.006281
    59  C   -0.212386
    60  C   -0.027101
    61  C    0.019553
    62  C   -0.063979
    63  C   -0.069128
    64  C   -0.187842
    65  C   -0.053336
    66  C    0.014664
    67  H    0.008578
    68  H    0.033208
    69  H    0.003107
    70  H    0.056325
    71  H    0.061773
    72  H    0.050439
    73  H    0.032257
    74  H    0.030188
    75  H    0.055341
    76  H    0.053896
    77  H    0.101335
    78  H    0.061720
    79  H    0.015198
    80  H    0.065605
    81  H    0.060180
    82  H    0.062892
    83  H    0.056465
    84  H    0.057563
    85  H    0.045729
    86  H    0.032656
    87  H    0.053202
    88  H    0.040475
    89  H    0.055499
    90  H    0.047825
    91  H    0.040834
    92  H    0.036432
    93  H    0.042054
    94  H    0.053601
    95  H    0.071004
    96  H    0.033397
    97  H    0.062113
    98  H    0.067946
    99  H    0.065916
   100  H    0.050111
   101  H    0.079298
   102  H    0.068264
   103  H    0.061830
   104  H    0.039883
   105  H    0.045891
   106  H    0.022218
   107  H    0.058823
   108  H    0.042001
   109  H    0.024426
   110  H    0.032324
   111  H    0.024331
   112  H    0.030717
   113  H    0.027904
   114  H    0.043494
   115  H    0.034414
   116  H    0.034260
   117  H    0.033040
   118  H    0.022835
   119  H    0.025043
   120  H    0.028588
   121  H    0.028638
   122  H    0.023800
   123  H    0.020943
   124  H    0.033040
   125  H    0.025917
   126  H    0.024606
   127  H    0.036903
   128  H    0.022627
   129  H    0.029992
   130  H    0.025124
   131  H    0.022583
   132  H    0.034491
   133  H    0.022511
   134  H    0.024392
   135  H    0.033269
   136  H    0.049804
   137  H    0.040692
   138  H    0.035126
   139  H    0.044384
   140  H    0.031435
 Sum of Mulliken charges =  -0.00000

 Dipole moment (field-independent basis, Debye):
    X=              1.6329    Y=              2.7092    Z=              1.1663  Tot=              3.3714
 Quadrupole moment (field-independent basis, Debye-Ang):
   XX=           -371.1711   YY=           -404.9078   ZZ=           -409.7432
   XY=             15.3609   XZ=              8.1022   YZ=             -3.9924

 Normal termination of Gaussian 16 at Thu May  5 10:23:14 2022.
