 Gaussian 16, Revision A.03,
 Gaussian 16:  ES64L-G16RevA.03 25-Dec-2016

 --------------------------------
 #p wB97XD/Def2SVP td=(nstates=5)
 --------------------------------

 ----------------------------------------------------
 step_801_chromophore_25 TDDFT with wB97XD functional
 ----------------------------------------------------
 Symbolic Z-matrix:
 Charge =  0 Multiplicity = 1

                         Standard orientation:
 ---------------------------------------------------------------------
 Center     Atomic      Atomic             Coordinates (Angstroms)
 Number     Number       Type             X           Y           Z
 ---------------------------------------------------------------------
      1         12           0       -6.280603    0.298178   -0.401911
      2          6           0       -3.541903   -1.881115   -0.554272
      3          6           0       -4.062895    2.877887    0.128447
      4          6           0       -8.889407    2.312192    0.382586
      5          6           0       -8.476805   -2.509211   -0.346122
      6          7           0       -4.028331    0.373282   -0.232634
      7          6           0       -3.117051   -0.625540   -0.225122
      8          6           0       -1.660341   -0.007738    0.019168
      9          6           0       -1.853911    1.516412    0.131999
     10          6           0       -3.405580    1.618869    0.070715
     11          6           0       -1.224801    2.216083    1.294277
     12          6           0       -0.565544   -0.407934   -1.056794
     13          6           0        0.758800   -1.073668   -0.392313
     14          6           0        2.131503   -0.694843   -0.899767
     15          8           0        2.414789   -0.449281   -2.070027
     16          8           0        3.141889   -0.542040    0.019571
     17          7           0       -6.471428    2.321080   -0.051314
     18          6           0       -5.419470    3.176295    0.161742
     19          6           0       -5.897719    4.484927    0.482455
     20          6           0       -7.393764    4.424899    0.558711
     21          6           0       -7.637975    2.961934    0.303163
     22          6           0       -4.944235    5.578341    0.726791
     23          6           0       -8.504713    5.450382    0.809003
     24          8           0       -9.706066    5.234649    0.717718
     25          6           0       -8.100239    6.863587    1.193177
     26          7           0       -8.327499   -0.101224   -0.141106
     27          6           0       -9.238102    0.986472    0.163821
     28          6           0      -10.702064    0.406965    0.427939
     29          6           0      -10.557866   -1.029645   -0.227435
     30          6           0       -9.034045   -1.237271   -0.155517
     31          6           0      -11.120986    0.491469    1.937883
     32          6           0      -11.105783   -1.169988   -1.699029
     33          6           0      -12.615832   -1.336812   -1.748648
     34          7           0       -6.116040   -1.760269   -0.447031
     35          6           0       -7.093089   -2.765793   -0.504525
     36          6           0       -6.459200   -4.029917   -0.797472
     37          6           0       -5.088385   -3.736647   -0.783056
     38          6           0       -4.920888   -2.334468   -0.611591
     39          6           0       -7.119219   -5.381662   -0.927456
     40          6           0       -3.816471   -4.300799   -0.966579
     41          8           0       -3.455859   -5.408240   -1.293123
     42          6           0       -2.742014   -3.219179   -0.570231
     43          6           0       -1.993756   -3.644919    0.712159
     44          8           0       -2.358050   -3.414365    1.836191
     45          8           0       -0.856605   -4.301976    0.341268
     46          6           0        0.112945   -4.632407    1.403521
     47          6           0        4.450047   -0.290074   -0.565096
     48          6           0        5.428780   -0.047815    0.574984
     49          6           0        6.757473    0.354828    0.441724
     50          6           0        7.568186    0.284221   -0.862540
     51          6           0        7.559131    0.748226    1.710628
     52          6           0        8.107145   -0.408810    2.507358
     53          6           0        9.468197   -0.031438    3.243405
     54          6           0       10.645682   -1.144069    3.058918
     55          6           0       10.759005   -2.061929    4.348715
     56          6           0       11.982023   -0.403076    2.821432
     57          6           0       12.703316   -0.679229    1.423025
     58          6           0       13.590838    0.463710    0.944085
     59          6           0       14.384292    0.047323   -0.360443
     60          6           0       15.742366   -0.612741    0.036002
     61          6           0       14.647804    1.209165   -1.267395
     62          6           0       13.638449    1.172399   -2.497230
     63          6           0       12.766026    2.422118   -2.368710
     64          6           0       11.527914    2.437984   -3.171354
     65          6           0       10.382550    1.556865   -2.646268
     66          6           0       11.789064    2.237843   -4.636253
     67          1           0       -3.282456    3.639601    0.183362
     68          1           0       -9.840104    2.828738    0.532415
     69          1           0       -9.127001   -3.384661   -0.390546
     70          1           0       -1.269195   -0.444362    0.938431
     71          1           0       -1.347751    2.048548   -0.673472
     72          1           0       -1.905122    2.862561    1.848472
     73          1           0       -0.343278    2.823914    1.089026
     74          1           0       -0.749732    1.523897    1.989554
     75          1           0       -0.211962    0.413077   -1.680536
     76          1           0       -0.985633   -1.139708   -1.746664
     77          1           0        0.583791   -2.148702   -0.433247
     78          1           0        0.744246   -0.722465    0.639384
     79          1           0       -5.448669    6.542663    0.649185
     80          1           0       -4.073950    5.710763    0.083050
     81          1           0       -4.734794    5.568883    1.795592
     82          1           0       -7.321497    6.997984    1.944695
     83          1           0       -8.941142    7.549241    1.298083
     84          1           0       -7.603857    7.129643    0.259669
     85          1           0      -11.467216    0.971428   -0.106220
     86          1           0      -10.948267   -1.718600    0.522104
     87          1           0      -10.247775    0.880200    2.461804
     88          1           0      -11.329607   -0.496063    2.349770
     89          1           0      -11.979551    1.148028    2.077797
     90          1           0      -10.579906   -1.919166   -2.289785
     91          1           0      -11.016679   -0.228672   -2.241050
     92          1           0      -13.027173   -1.432805   -0.743441
     93          1           0      -12.802341   -2.327044   -2.165611
     94          1           0      -13.082464   -0.515059   -2.291077
     95          1           0       -7.089920   -5.800392   -1.934136
     96          1           0       -8.118814   -5.456041   -0.500445
     97          1           0       -6.531011   -5.999785   -0.248371
     98          1           0       -2.017574   -3.088491   -1.374007
     99          1           0       -0.452980   -4.883746    2.300462
    100          1           0        0.580485   -3.661415    1.568537
    101          1           0        0.772350   -5.464636    1.156294
    102          1           0        4.471551    0.600396   -1.192964
    103          1           0        4.825601   -1.112073   -1.175670
    104          1           0        4.919297   -0.111121    1.535674
    105          1           0        8.082507    1.139182   -1.302470
    106          1           0        6.858632    0.111573   -1.672186
    107          1           0        8.314118   -0.510814   -0.868264
    108          1           0        7.111096    1.460116    2.403247
    109          1           0        8.466959    1.206016    1.316365
    110          1           0        8.098432   -1.319828    1.909092
    111          1           0        7.340806   -0.644627    3.246612
    112          1           0        9.223708    0.185583    4.282722
    113          1           0        9.793686    0.940330    2.872581
    114          1           0       10.469372   -1.836017    2.234690
    115          1           0       11.495601   -1.735576    5.083224
    116          1           0       11.039802   -3.078961    4.074409
    117          1           0        9.825869   -2.154846    4.904569
    118          1           0       12.636442   -0.689745    3.644515
    119          1           0       11.892574    0.680260    2.902660
    120          1           0       12.019022   -0.856619    0.593047
    121          1           0       13.262372   -1.610646    1.502291
    122          1           0       14.280740    0.742581    1.740003
    123          1           0       13.044640    1.394054    0.793745
    124          1           0       13.923530   -0.745789   -0.950308
    125          1           0       15.727454   -1.513086   -0.579488
    126          1           0       15.827987   -0.978321    1.059205
    127          1           0       16.681491   -0.078903   -0.111760
    128          1           0       15.672403    1.164196   -1.635755
    129          1           0       14.456491    2.119223   -0.698406
    130          1           0       13.098143    0.230689   -2.588126
    131          1           0       14.262242    1.262236   -3.386766
    132          1           0       13.510917    3.168724   -2.645250
    133          1           0       12.549329    2.505502   -1.304521
    134          1           0       11.134931    3.410906   -2.879476
    135          1           0       10.387746    0.619839   -3.204172
    136          1           0        9.443115    2.071383   -2.848481
    137          1           0       10.431608    1.402654   -1.568220
    138          1           0       11.281756    3.066544   -5.130360
    139          1           0       11.435110    1.260673   -4.964477
    140          1           0       12.844110    2.452819   -4.805546
 ---------------------------------------------------------------------

 SCF Done:  E(RwB97XD) =  -3007.84131754     A.U. after   19 cycles

 Excitation energies and oscillator strengths:

 Excited State   1:      Singlet-A      1.5873 eV  781.10 nm  f=0.3768  <S**2>=0.000
     245 -> 248        0.17332
     246 -> 247        0.68609
     245 <- 248        0.11708
 This state for optimization and/or second-order correction.
 Total Energy, E(TD-HF/TD-DFT) =  -3007.78298541
 Copying the excited state density for this state as the 1-particle RhoCI density.

 Excited State   2:      Singlet-A      2.1634 eV  573.11 nm  f=0.1448  <S**2>=0.000
     245 -> 247        0.64208
     246 -> 248       -0.28224

 Excited State   3:      Singlet-A      3.3280 eV  372.54 nm  f=0.0034  <S**2>=0.000
     241 -> 247       -0.16377
     242 -> 247        0.52505
     242 -> 249        0.18449
     242 -> 250       -0.13525
     243 -> 247        0.34397

 Excited State   4:      Singlet-A      3.3573 eV  369.29 nm  f=0.0005  <S**2>=0.000
     241 -> 247        0.47554
     241 -> 249        0.11246
     242 -> 247        0.26412
     242 -> 249        0.15852
     242 -> 250       -0.15655
     243 -> 247       -0.33971

 Excited State   5:      Singlet-A      3.4449 eV  359.91 nm  f=0.0049  <S**2>=0.000
     241 -> 247        0.42767
     242 -> 247       -0.15646
     243 -> 247        0.46829
     246 -> 248        0.21601

 The electronic state is 1-A.
 Alpha  occ. eigenvalues --  -46.94784 -19.30553 -19.30413 -19.25226 -19.24295
 Alpha  occ. eigenvalues --  -19.23731 -19.23449 -14.47151 -14.46711 -14.44687
 Alpha  occ. eigenvalues --  -14.43951 -10.43600 -10.43534 -10.39472 -10.38191
 Alpha  occ. eigenvalues --  -10.35970 -10.35697 -10.35629 -10.35557 -10.35104
 Alpha  occ. eigenvalues --  -10.34846 -10.34795 -10.34216 -10.33652 -10.33553
 Alpha  occ. eigenvalues --  -10.33400 -10.32937 -10.32805 -10.32729 -10.32415
 Alpha  occ. eigenvalues --  -10.32289 -10.32282 -10.32207 -10.32181 -10.32107
 Alpha  occ. eigenvalues --  -10.32067 -10.31938 -10.31348 -10.31073 -10.30706
 Alpha  occ. eigenvalues --  -10.30659 -10.30572 -10.30382 -10.30304 -10.30288
 Alpha  occ. eigenvalues --  -10.29918 -10.29892 -10.29731 -10.29705 -10.29587
 Alpha  occ. eigenvalues --  -10.29294 -10.29156 -10.29119 -10.29070 -10.28982
 Alpha  occ. eigenvalues --  -10.28817 -10.28816 -10.28743 -10.28580 -10.28560
 Alpha  occ. eigenvalues --  -10.28438 -10.28224 -10.28163 -10.28099 -10.27956
 Alpha  occ. eigenvalues --  -10.27758  -3.20792  -1.94387  -1.93910  -1.93775
 Alpha  occ. eigenvalues --   -1.19112  -1.18899  -1.12362  -1.11985  -1.10931
 Alpha  occ. eigenvalues --   -1.09120  -1.05969  -1.04777  -1.04367  -1.03609
 Alpha  occ. eigenvalues --   -0.93838  -0.92312  -0.91707  -0.91101  -0.90713
 Alpha  occ. eigenvalues --   -0.90451  -0.90004  -0.89386  -0.89071  -0.88826
 Alpha  occ. eigenvalues --   -0.88336  -0.87420  -0.86036  -0.85500  -0.84929
 Alpha  occ. eigenvalues --   -0.84380  -0.83979  -0.83248  -0.82644  -0.82295
 Alpha  occ. eigenvalues --   -0.81747  -0.80471  -0.79944  -0.79186  -0.78244
 Alpha  occ. eigenvalues --   -0.77945  -0.77033  -0.76946  -0.76257  -0.75963
 Alpha  occ. eigenvalues --   -0.75370  -0.74686  -0.73141  -0.72249  -0.70751
 Alpha  occ. eigenvalues --   -0.70536  -0.70256  -0.69218  -0.68611  -0.67715
 Alpha  occ. eigenvalues --   -0.67235  -0.67061  -0.66521  -0.66372  -0.66061
 Alpha  occ. eigenvalues --   -0.65809  -0.65013  -0.64040  -0.63001  -0.62131
 Alpha  occ. eigenvalues --   -0.61952  -0.61826  -0.61143  -0.60399  -0.59995
 Alpha  occ. eigenvalues --   -0.59479  -0.59025  -0.58275  -0.58136  -0.57657
 Alpha  occ. eigenvalues --   -0.56879  -0.56696  -0.56307  -0.56110  -0.55833
 Alpha  occ. eigenvalues --   -0.55740  -0.55397  -0.55370  -0.55085  -0.55011
 Alpha  occ. eigenvalues --   -0.54654  -0.54543  -0.54300  -0.53855  -0.53728
 Alpha  occ. eigenvalues --   -0.53702  -0.53589  -0.53220  -0.53144  -0.52867
 Alpha  occ. eigenvalues --   -0.52258  -0.51956  -0.51755  -0.51634  -0.51494
 Alpha  occ. eigenvalues --   -0.51204  -0.51133  -0.51053  -0.50770  -0.50654
 Alpha  occ. eigenvalues --   -0.50430  -0.50159  -0.49945  -0.49871  -0.49830
 Alpha  occ. eigenvalues --   -0.49378  -0.49232  -0.49133  -0.48596  -0.48465
 Alpha  occ. eigenvalues --   -0.48277  -0.47873  -0.47850  -0.47696  -0.47561
 Alpha  occ. eigenvalues --   -0.47278  -0.46999  -0.46810  -0.46708  -0.46622
 Alpha  occ. eigenvalues --   -0.46536  -0.46295  -0.46098  -0.45926  -0.45859
 Alpha  occ. eigenvalues --   -0.45526  -0.45457  -0.45318  -0.45182  -0.44990
 Alpha  occ. eigenvalues --   -0.44835  -0.44449  -0.44143  -0.44038  -0.43728
 Alpha  occ. eigenvalues --   -0.43635  -0.43582  -0.43338  -0.43225  -0.43108
 Alpha  occ. eigenvalues --   -0.42657  -0.42538  -0.42501  -0.42262  -0.42061
 Alpha  occ. eigenvalues --   -0.41937  -0.41431  -0.41266  -0.41109  -0.40582
 Alpha  occ. eigenvalues --   -0.40491  -0.40152  -0.40053  -0.39605  -0.39579
 Alpha  occ. eigenvalues --   -0.39184  -0.39108  -0.39041  -0.38925  -0.38814
 Alpha  occ. eigenvalues --   -0.38355  -0.37454  -0.36799  -0.36501  -0.36269
 Alpha  occ. eigenvalues --   -0.35682  -0.35225  -0.35167  -0.33747  -0.32806
 Alpha  occ. eigenvalues --   -0.32526  -0.32406  -0.31722  -0.31020  -0.26273
 Alpha  occ. eigenvalues --   -0.23146
 Alpha virt. eigenvalues --   -0.07575   0.00214   0.02450   0.04310   0.05929
 Alpha virt. eigenvalues --    0.06563   0.07271   0.07478   0.07831   0.09512
 Alpha virt. eigenvalues --    0.10611   0.10757   0.10977   0.12070   0.12798

 Mulliken charges:
               1
     1  Mg   0.980922
     2  C   -0.024416
     3  C   -0.106309
     4  C   -0.047373
     5  C   -0.087835
     6  N   -0.371036
     7  C    0.024584
     8  C   -0.014360
     9  C   -0.094116
    10  C    0.054933
    11  C   -0.004392
    12  C    0.015084
    13  C   -0.062913
    14  C    0.225242
    15  O   -0.279681
    16  O   -0.365257
    17  N   -0.470629
    18  C    0.227479
    19  C   -0.180176
    20  C   -0.084171
    21  C    0.168546
    22  C    0.070390
    23  C    0.066409
    24  O   -0.232780
    25  C   -0.025429
    26  N   -0.385790
    27  C    0.031078
    28  C   -0.136915
    29  C   -0.048520
    30  C    0.060233
    31  C    0.029622
    32  C   -0.003580
    33  C   -0.043134
    34  N   -0.446455
    35  C    0.131688
    36  C   -0.163817
    37  C   -0.006647
    38  C    0.144161
    39  C    0.077007
    40  C    0.070912
    41  O   -0.192155
    42  C   -0.111449
    43  C    0.272737
    44  O   -0.225837
    45  O   -0.367869
    46  C    0.138868
    47  C    0.236702
    48  C   -0.142551
    49  C   -0.184010
    50  C    0.012418
    51  C    0.021275
    52  C   -0.028111
    53  C   -0.001102
    54  C   -0.158868
    55  C   -0.022889
    56  C    0.036893
    57  C   -0.048557
    58  C    0.010061
    59  C   -0.182122
    60  C   -0.018194
    61  C    0.037149
    62  C   -0.053270
    63  C   -0.040070
    64  C   -0.159455
    65  C   -0.039866
    66  C    0.027148
    67  H   -0.000378
    68  H    0.028787
    69  H   -0.001501
    70  H    0.041949
    71  H    0.051384
    72  H    0.044339
    73  H    0.027375
    74  H    0.023772
    75  H    0.049410
    76  H    0.044217
    77  H    0.087605
    78  H    0.053180
    79  H    0.006712
    80  H    0.061905
    81  H    0.054424
    82  H    0.058635
    83  H    0.055352
    84  H    0.049038
    85  H    0.036005
    86  H    0.020599
    87  H    0.046190
    88  H    0.034274
    89  H    0.051167
    90  H    0.040475
    91  H    0.032619
    92  H    0.029037
    93  H    0.036319
    94  H    0.049264
    95  H    0.068325
    96  H    0.029235
    97  H    0.057442
    98  H    0.058377
    99  H    0.061965
   100  H    0.044309
   101  H    0.077075
   102  H    0.062355
   103  H    0.056029
   104  H    0.037420
   105  H    0.033770
   106  H    0.015908
   107  H    0.052897
   108  H    0.036519
   109  H    0.010628
   110  H    0.022954
   111  H    0.015966
   112  H    0.024007
   113  H    0.016874
   114  H    0.032585
   115  H    0.027859
   116  H    0.028716
   117  H    0.026658
   118  H    0.013755
   119  H    0.015180
   120  H    0.017346
   121  H    0.019385
   122  H    0.014658
   123  H    0.009640
   124  H    0.019070
   125  H    0.020140
   126  H    0.018316
   127  H    0.031683
   128  H    0.015117
   129  H    0.018294
   130  H    0.015201
   131  H    0.013742
   132  H    0.024633
   133  H    0.006178
   134  H    0.014128
   135  H    0.025741
   136  H    0.043577
   137  H    0.031908
   138  H    0.030076
   139  H    0.038843
   140  H    0.023923
 Sum of Mulliken charges =  -0.00000

 Dipole moment (field-independent basis, Debye):
    X=              1.7250    Y=              2.3924    Z=              1.1353  Tot=              3.1604
 Quadrupole moment (field-independent basis, Debye-Ang):
   XX=           -372.2791   YY=           -403.5618   ZZ=           -409.3833
   XY=             16.6743   XZ=              8.5967   YZ=             -3.8740

 Normal termination of Gaussian 16 at Thu May  5 10:55:55 2022.
