 Gaussian 16, Revision A.03,
 Gaussian 16:  ES64L-G16RevA.03 25-Dec-2016

 --------------------
 #p ZINDO=(nstates=5)
 --------------------

 -----------------------------
 step_801_chromophore_25 ZINDO
 -----------------------------
 Symbolic Z-matrix:
 Charge =  0 Multiplicity = 1

                         Standard orientation:
 ---------------------------------------------------------------------
 Center     Atomic      Atomic             Coordinates (Angstroms)
 Number     Number       Type             X           Y           Z
 ---------------------------------------------------------------------
      1         12           0       -6.280603    0.298178   -0.401911
      2          6           0       -3.541903   -1.881115   -0.554272
      3          6           0       -4.062895    2.877887    0.128447
      4          6           0       -8.889407    2.312192    0.382586
      5          6           0       -8.476805   -2.509211   -0.346122
      6          7           0       -4.028331    0.373282   -0.232634
      7          6           0       -3.117051   -0.625540   -0.225122
      8          6           0       -1.660341   -0.007738    0.019168
      9          6           0       -1.853911    1.516412    0.131999
     10          6           0       -3.405580    1.618869    0.070715
     11          6           0       -1.224801    2.216083    1.294277
     12          6           0       -0.565544   -0.407934   -1.056794
     13          6           0        0.758800   -1.073668   -0.392313
     14          6           0        2.131503   -0.694843   -0.899767
     15          8           0        2.414789   -0.449281   -2.070027
     16          8           0        3.141889   -0.542040    0.019571
     17          7           0       -6.471428    2.321080   -0.051314
     18          6           0       -5.419470    3.176295    0.161742
     19          6           0       -5.897719    4.484927    0.482455
     20          6           0       -7.393764    4.424899    0.558711
     21          6           0       -7.637975    2.961934    0.303163
     22          6           0       -4.944235    5.578341    0.726791
     23          6           0       -8.504713    5.450382    0.809003
     24          8           0       -9.706066    5.234649    0.717718
     25          6           0       -8.100239    6.863587    1.193177
     26          7           0       -8.327499   -0.101224   -0.141106
     27          6           0       -9.238102    0.986472    0.163821
     28          6           0      -10.702064    0.406965    0.427939
     29          6           0      -10.557866   -1.029645   -0.227435
     30          6           0       -9.034045   -1.237271   -0.155517
     31          6           0      -11.120986    0.491469    1.937883
     32          6           0      -11.105783   -1.169988   -1.699029
     33          6           0      -12.615832   -1.336812   -1.748648
     34          7           0       -6.116040   -1.760269   -0.447031
     35          6           0       -7.093089   -2.765793   -0.504525
     36          6           0       -6.459200   -4.029917   -0.797472
     37          6           0       -5.088385   -3.736647   -0.783056
     38          6           0       -4.920888   -2.334468   -0.611591
     39          6           0       -7.119219   -5.381662   -0.927456
     40          6           0       -3.816471   -4.300799   -0.966579
     41          8           0       -3.455859   -5.408240   -1.293123
     42          6           0       -2.742014   -3.219179   -0.570231
     43          6           0       -1.993756   -3.644919    0.712159
     44          8           0       -2.358050   -3.414365    1.836191
     45          8           0       -0.856605   -4.301976    0.341268
     46          6           0        0.112945   -4.632407    1.403521
     47          6           0        4.450047   -0.290074   -0.565096
     48          6           0        5.428780   -0.047815    0.574984
     49          6           0        6.757473    0.354828    0.441724
     50          6           0        7.568186    0.284221   -0.862540
     51          6           0        7.559131    0.748226    1.710628
     52          6           0        8.107145   -0.408810    2.507358
     53          6           0        9.468197   -0.031438    3.243405
     54          6           0       10.645682   -1.144069    3.058918
     55          6           0       10.759005   -2.061929    4.348715
     56          6           0       11.982023   -0.403076    2.821432
     57          6           0       12.703316   -0.679229    1.423025
     58          6           0       13.590838    0.463710    0.944085
     59          6           0       14.384292    0.047323   -0.360443
     60          6           0       15.742366   -0.612741    0.036002
     61          6           0       14.647804    1.209165   -1.267395
     62          6           0       13.638449    1.172399   -2.497230
     63          6           0       12.766026    2.422118   -2.368710
     64          6           0       11.527914    2.437984   -3.171354
     65          6           0       10.382550    1.556865   -2.646268
     66          6           0       11.789064    2.237843   -4.636253
     67          1           0       -3.282456    3.639601    0.183362
     68          1           0       -9.840104    2.828738    0.532415
     69          1           0       -9.127001   -3.384661   -0.390546
     70          1           0       -1.269195   -0.444362    0.938431
     71          1           0       -1.347751    2.048548   -0.673472
     72          1           0       -1.905122    2.862561    1.848472
     73          1           0       -0.343278    2.823914    1.089026
     74          1           0       -0.749732    1.523897    1.989554
     75          1           0       -0.211962    0.413077   -1.680536
     76          1           0       -0.985633   -1.139708   -1.746664
     77          1           0        0.583791   -2.148702   -0.433247
     78          1           0        0.744246   -0.722465    0.639384
     79          1           0       -5.448669    6.542663    0.649185
     80          1           0       -4.073950    5.710763    0.083050
     81          1           0       -4.734794    5.568883    1.795592
     82          1           0       -7.321497    6.997984    1.944695
     83          1           0       -8.941142    7.549241    1.298083
     84          1           0       -7.603857    7.129643    0.259669
     85          1           0      -11.467216    0.971428   -0.106220
     86          1           0      -10.948267   -1.718600    0.522104
     87          1           0      -10.247775    0.880200    2.461804
     88          1           0      -11.329607   -0.496063    2.349770
     89          1           0      -11.979551    1.148028    2.077797
     90          1           0      -10.579906   -1.919166   -2.289785
     91          1           0      -11.016679   -0.228672   -2.241050
     92          1           0      -13.027173   -1.432805   -0.743441
     93          1           0      -12.802341   -2.327044   -2.165611
     94          1           0      -13.082464   -0.515059   -2.291077
     95          1           0       -7.089920   -5.800392   -1.934136
     96          1           0       -8.118814   -5.456041   -0.500445
     97          1           0       -6.531011   -5.999785   -0.248371
     98          1           0       -2.017574   -3.088491   -1.374007
     99          1           0       -0.452980   -4.883746    2.300462
    100          1           0        0.580485   -3.661415    1.568537
    101          1           0        0.772350   -5.464636    1.156294
    102          1           0        4.471551    0.600396   -1.192964
    103          1           0        4.825601   -1.112073   -1.175670
    104          1           0        4.919297   -0.111121    1.535674
    105          1           0        8.082507    1.139182   -1.302470
    106          1           0        6.858632    0.111573   -1.672186
    107          1           0        8.314118   -0.510814   -0.868264
    108          1           0        7.111096    1.460116    2.403247
    109          1           0        8.466959    1.206016    1.316365
    110          1           0        8.098432   -1.319828    1.909092
    111          1           0        7.340806   -0.644627    3.246612
    112          1           0        9.223708    0.185583    4.282722
    113          1           0        9.793686    0.940330    2.872581
    114          1           0       10.469372   -1.836017    2.234690
    115          1           0       11.495601   -1.735576    5.083224
    116          1           0       11.039802   -3.078961    4.074409
    117          1           0        9.825869   -2.154846    4.904569
    118          1           0       12.636442   -0.689745    3.644515
    119          1           0       11.892574    0.680260    2.902660
    120          1           0       12.019022   -0.856619    0.593047
    121          1           0       13.262372   -1.610646    1.502291
    122          1           0       14.280740    0.742581    1.740003
    123          1           0       13.044640    1.394054    0.793745
    124          1           0       13.923530   -0.745789   -0.950308
    125          1           0       15.727454   -1.513086   -0.579488
    126          1           0       15.827987   -0.978321    1.059205
    127          1           0       16.681491   -0.078903   -0.111760
    128          1           0       15.672403    1.164196   -1.635755
    129          1           0       14.456491    2.119223   -0.698406
    130          1           0       13.098143    0.230689   -2.588126
    131          1           0       14.262242    1.262236   -3.386766
    132          1           0       13.510917    3.168724   -2.645250
    133          1           0       12.549329    2.505502   -1.304521
    134          1           0       11.134931    3.410906   -2.879476
    135          1           0       10.387746    0.619839   -3.204172
    136          1           0        9.443115    2.071383   -2.848481
    137          1           0       10.431608    1.402654   -1.568220
    138          1           0       11.281756    3.066544   -5.130360
    139          1           0       11.435110    1.260673   -4.964477
    140          1           0       12.844110    2.452819   -4.805546
 ---------------------------------------------------------------------

 SCF Done:  E(RZINDO/S) =  -473.980573282     A.U. after   19 cycles

 Excitation energies and oscillator strengths:

 Excited State   1:      Singlet-A      1.2033 eV 1030.33 nm  f=0.6139  <S**2>=0.000
     175 ->178         0.17689
     176 ->177         0.66686
 This state for optimization and/or second-order correction.
 Total Energy, E(CIS/TDA) =  -473.936351187
 Copying the excited state density for this state as the 1-particle RhoCI density.

 Excited State   2:      Singlet-A      1.9404 eV  638.95 nm  f=0.0667  <S**2>=0.000
     175 ->177         0.55661
     176 ->178        -0.41061

 Excited State   3:      Singlet-A      2.8944 eV  428.36 nm  f=0.0015  <S**2>=0.000
     168 ->177         0.40010
     168 ->179        -0.40059
     168 ->180         0.23986
     168 ->183        -0.12009
     168 ->186         0.15568
     168 ->198         0.10442

 Excited State   4:      Singlet-A      3.0099 eV  411.92 nm  f=0.8985  <S**2>=0.000
     175 ->177         0.34466
     176 ->178         0.49141
     176 ->179         0.23428
     176 ->180         0.19169

 Excited State   5:      Singlet-A      3.0769 eV  402.95 nm  f=0.2186  <S**2>=0.000
     171 ->177        -0.16917
     172 ->177         0.13377
     173 ->177         0.16337
     175 ->177        -0.13968
     176 ->178        -0.18178
     176 ->179         0.54968
     176 ->180         0.12341

 The electronic state is 1-A.
 Alpha  occ. eigenvalues --   -1.83965  -1.78052  -1.77055  -1.74091  -1.72301
 Alpha  occ. eigenvalues --   -1.68553  -1.66733  -1.59585  -1.59195  -1.57626
 Alpha  occ. eigenvalues --   -1.55964  -1.50018  -1.49333  -1.47567  -1.45910
 Alpha  occ. eigenvalues --   -1.45051  -1.42593  -1.40267  -1.39199  -1.38066
 Alpha  occ. eigenvalues --   -1.35925  -1.34378  -1.32831  -1.30436  -1.28207
 Alpha  occ. eigenvalues --   -1.27933  -1.24716  -1.21831  -1.20479  -1.18343
 Alpha  occ. eigenvalues --   -1.17877  -1.16399  -1.14224  -1.13121  -1.12312
 Alpha  occ. eigenvalues --   -1.11403  -1.10408  -1.09778  -1.04716  -1.03700
 Alpha  occ. eigenvalues --   -1.01948  -1.01601  -1.00156  -0.97774  -0.96288
 Alpha  occ. eigenvalues --   -0.95070  -0.94752  -0.93827  -0.92984  -0.92469
 Alpha  occ. eigenvalues --   -0.91073  -0.90219  -0.89163  -0.88079  -0.85964
 Alpha  occ. eigenvalues --   -0.85757  -0.84298  -0.83327  -0.81945  -0.80321
 Alpha  occ. eigenvalues --   -0.79527  -0.78548  -0.76968  -0.76919  -0.76470
 Alpha  occ. eigenvalues --   -0.76326  -0.75422  -0.74771  -0.74304  -0.73936
 Alpha  occ. eigenvalues --   -0.72554  -0.72171  -0.71195  -0.70892  -0.70689
 Alpha  occ. eigenvalues --   -0.69900  -0.69862  -0.68734  -0.68408  -0.68090
 Alpha  occ. eigenvalues --   -0.67625  -0.66991  -0.66922  -0.65596  -0.65489
 Alpha  occ. eigenvalues --   -0.65439  -0.65033  -0.64853  -0.64033  -0.63697
 Alpha  occ. eigenvalues --   -0.63204  -0.62866  -0.62735  -0.61675  -0.61604
 Alpha  occ. eigenvalues --   -0.61444  -0.60927  -0.60543  -0.60238  -0.60134
 Alpha  occ. eigenvalues --   -0.59846  -0.58898  -0.58629  -0.58549  -0.58308
 Alpha  occ. eigenvalues --   -0.57969  -0.57726  -0.57515  -0.56862  -0.56407
 Alpha  occ. eigenvalues --   -0.55817  -0.55542  -0.55055  -0.54785  -0.54609
 Alpha  occ. eigenvalues --   -0.54207  -0.54135  -0.53821  -0.52949  -0.52616
 Alpha  occ. eigenvalues --   -0.52344  -0.52158  -0.51721  -0.51351  -0.51111
 Alpha  occ. eigenvalues --   -0.51036  -0.50808  -0.50441  -0.50134  -0.49993
 Alpha  occ. eigenvalues --   -0.49921  -0.49803  -0.49679  -0.49276  -0.48993
 Alpha  occ. eigenvalues --   -0.48775  -0.48637  -0.48179  -0.48098  -0.47916
 Alpha  occ. eigenvalues --   -0.47738  -0.47413  -0.47215  -0.46861  -0.46820
 Alpha  occ. eigenvalues --   -0.46577  -0.46228  -0.46138  -0.45688  -0.45454
 Alpha  occ. eigenvalues --   -0.45153  -0.45124  -0.44637  -0.44118  -0.44059
 Alpha  occ. eigenvalues --   -0.43763  -0.43290  -0.43192  -0.42616  -0.42455
 Alpha  occ. eigenvalues --   -0.42373  -0.41912  -0.40224  -0.39516  -0.38783
 Alpha  occ. eigenvalues --   -0.38405  -0.37329  -0.35234  -0.34884  -0.34776
 Alpha  occ. eigenvalues --   -0.33705  -0.32944  -0.31654  -0.31404  -0.27035
 Alpha  occ. eigenvalues --   -0.21911
 Alpha virt. eigenvalues --   -0.09051  -0.01902  -0.00500   0.01146   0.01700
 Alpha virt. eigenvalues --    0.02236   0.02490   0.02763   0.03997   0.04880
 Alpha virt. eigenvalues --    0.06031   0.06687   0.07262   0.07419   0.07858

 Mulliken charges:
               1
     1  Mg   0.429909
     2  C   -0.060557
     3  C   -0.062709
     4  C   -0.043770
     5  C   -0.068958
     6  N   -0.294417
     7  C    0.147997
     8  C    0.009855
     9  C    0.012874
    10  C    0.082324
    11  C   -0.050799
    12  C   -0.032302
    13  C   -0.001246
    14  C    0.465254
    15  O   -0.525761
    16  O   -0.266300
    17  N   -0.312051
    18  C    0.099794
    19  C    0.000901
    20  C   -0.086488
    21  C    0.134151
    22  C   -0.041085
    23  C    0.340123
    24  O   -0.530600
    25  C   -0.034857
    26  N   -0.273632
    27  C    0.088809
    28  C   -0.003563
    29  C    0.002316
    30  C    0.160018
    31  C   -0.050727
    32  C   -0.023329
    33  C   -0.058250
    34  N   -0.322629
    35  C    0.108347
    36  C    0.051477
    37  C   -0.042265
    38  C    0.141798
    39  C   -0.037512
    40  C    0.339396
    41  O   -0.519827
    42  C    0.039543
    43  C    0.491857
    44  O   -0.510538
    45  O   -0.270049
    46  C    0.071496
    47  C    0.111645
    48  C   -0.088911
    49  C   -0.019997
    50  C   -0.048201
    51  C   -0.023489
    52  C   -0.033944
    53  C   -0.040968
    54  C   -0.010535
    55  C   -0.061050
    56  C   -0.040463
    57  C   -0.037794
    58  C   -0.030309
    59  C   -0.011720
    60  C   -0.068367
    61  C   -0.039896
    62  C   -0.048400
    63  C   -0.026053
    64  C   -0.008369
    65  C   -0.057503
    66  C   -0.052735
    67  H    0.028998
    68  H    0.047820
    69  H    0.031366
    70  H    0.037118
    71  H    0.036453
    72  H    0.023723
    73  H    0.014050
    74  H    0.012691
    75  H    0.036611
    76  H    0.024827
    77  H    0.055508
    78  H    0.031994
    79  H    0.007416
    80  H    0.036688
    81  H    0.033806
    82  H    0.037827
    83  H    0.041140
    84  H    0.030688
    85  H    0.028800
    86  H    0.030428
    87  H    0.026541
    88  H    0.019785
    89  H    0.029093
    90  H    0.028369
    91  H    0.023764
    92  H    0.016877
    93  H    0.016287
    94  H    0.030034
    95  H    0.044754
    96  H    0.023936
    97  H    0.032956
    98  H    0.046850
    99  H    0.046767
   100  H    0.037353
   101  H    0.049616
   102  H    0.054707
   103  H    0.052020
   104  H    0.038532
   105  H    0.034830
   106  H    0.011709
   107  H    0.031263
   108  H    0.030093
   109  H    0.010205
   110  H    0.025056
   111  H    0.009373
   112  H    0.023014
   113  H    0.021079
   114  H    0.031194
   115  H    0.020822
   116  H    0.014024
   117  H    0.014797
   118  H    0.018543
   119  H    0.019332
   120  H    0.017307
   121  H    0.019158
   122  H    0.016097
   123  H    0.018018
   124  H    0.027440
   125  H    0.008831
   126  H    0.011470
   127  H    0.023615
   128  H    0.019479
   129  H    0.023725
   130  H    0.025314
   131  H    0.010896
   132  H    0.017456
   133  H    0.012871
   134  H    0.007698
   135  H    0.019113
   136  H    0.015306
   137  H    0.019617
   138  H    0.014500
   139  H    0.032920
   140  H    0.020683
 Sum of Mulliken charges =  -0.00000

 Dipole moment (field-independent basis, Debye):
    X=              2.7558    Y=              1.6021    Z=              1.8236  Tot=              3.6725
 N-N= 4.209568514004D+03 E-N= 0.000000000000D+00  KE=-9.093195449517D+03
 Leave Link  601 at Thu May  5 11:10:43 2022, MaxMem=  6710886400 cpu:               1.7 elap:               0.1
 (Enter /sw/apps/gaussian-16.0/g16/l9999.exe)
 1\1\GINC-BP1-COMPUTE179\SP\RZINDO CIS\STO-3G\C55H74Mg1N4O6\OF15641\05-
 May-2022\0\\#p ZINDO=(nstates=5)\\step_801_chromophore_25 ZINDO\\0,1\M
 g,0,-2.767,34.947,26.475\C,0,-3.603,33.4,29.505\C,0,-0.885,37.204,28.2
 69\C,0,-2.455,36.833,23.678\C,0,-5.207,32.949,24.813\N,0,-2.364,35.193
 ,28.685\C,0,-2.872,34.528,29.747\C,0,-2.31,35.182,31.096\C,0,-1.372,36
 .324,30.661\C,0,-1.581,36.302,29.119\C,0,-1.559,37.663,31.3\C,0,-1.617
 ,34.17,32.102\C,0,-2.262,34.22,33.592\C,0,-1.364,34.168,34.807\O,0,-0.

 Normal termination of Gaussian 16 at Thu May  5 11:10:43 2022.
