 Gaussian 16, Revision A.03,
 Gaussian 16:  ES64L-G16RevA.03 25-Dec-2016

 ------------------------------
 #p blyp/Def2SVP td=(nstates=5)
 ------------------------------

 --------------------------------------------------
 step_1051_chromophore_3 TDDFT with blyp functional
 --------------------------------------------------
 Symbolic Z-matrix:
 Charge =  0 Multiplicity = 1

                         Standard orientation:
 ---------------------------------------------------------------------
 Center     Atomic      Atomic             Coordinates (Angstroms)
 Number     Number       Type             X           Y           Z
 ---------------------------------------------------------------------
      1         12           0       -5.361254    0.847078   -0.289500
      2          6           0       -4.111605   -2.369998   -0.211135
      3          6           0       -2.129964    2.099342    0.030598
      4          6           0       -6.643278    3.873955    0.071634
      5          6           0       -8.627600   -0.587519    0.419915
      6          7           0       -3.325830    0.023708   -0.128259
      7          6           0       -3.136887   -1.345804   -0.312678
      8          6           0       -1.677145   -1.589984   -0.435225
      9          6           0       -0.903479   -0.178105   -0.176375
     10          6           0       -2.182960    0.685798    0.022508
     11          6           0       -0.091129   -0.251732    1.112643
     12          6           0       -1.305910   -2.175748   -1.795781
     13          6           0       -0.278823   -3.373463   -1.719054
     14          6           0        0.794981   -3.381860   -0.654973
     15          8           0        0.897889   -4.118229    0.318259
     16          8           0        1.726886   -2.468975   -1.011868
     17          7           0       -4.513090    2.741435   -0.177086
     18          6           0       -3.180161    3.071931   -0.056199
     19          6           0       -3.027161    4.542922   -0.076305
     20          6           0       -4.342355    5.057884    0.022241
     21          6           0       -5.204010    3.917652   -0.060764
     22          6           0       -1.670413    5.233637   -0.114606
     23          6           0       -4.740947    6.542445    0.201671
     24          8           0       -5.899944    6.819579    0.345671
     25          6           0       -3.758909    7.607852    0.225387
     26          7           0       -7.405791    1.509697    0.017770
     27          6           0       -7.634792    2.868209    0.154029
     28          6           0       -8.989089    3.164745    0.569979
     29          6           0       -9.700946    1.745246    0.319763
     30          6           0       -8.519995    0.762651    0.217777
     31          6           0       -9.067765    3.604577    2.071043
     32          6           0      -10.697281    1.473376   -0.827217
     33          6           0      -12.087125    0.887536   -0.429461
     34          7           0       -6.241472   -1.000407    0.058835
     35          6           0       -7.566339   -1.477530    0.263779
     36          6           0       -7.589929   -2.943314    0.252838
     37          6           0       -6.240555   -3.328363    0.175053
     38          6           0       -5.489035   -2.099601   -0.021991
     39          6           0       -8.733442   -3.886609    0.664471
     40          6           0       -5.330699   -4.435074    0.223562
     41          8           0       -5.553126   -5.614363    0.443078
     42          6           0       -3.911022   -3.862839   -0.180514
     43          6           0       -3.051502   -4.381904    0.866623
     44          8           0       -2.820895   -3.857567    1.957409
     45          8           0       -2.424223   -5.550120    0.550243
     46          6           0       -1.712002   -6.329022    1.513485
     47          6           0        2.950134   -2.341927   -0.183925
     48          6           0        4.027514   -1.935171   -1.141328
     49          6           0        5.180495   -2.582183   -1.499626
     50          6           0        5.571719   -3.904083   -0.779215
     51          6           0        5.944001   -2.107049   -2.775821
     52          6           0        6.369096   -0.681141   -2.904852
     53          6           0        7.920786   -0.494739   -3.217257
     54          6           0        8.766236    0.370580   -2.180546
     55          6           0        9.217211   -0.610061   -1.119522
     56          6           0        9.971199    1.222808   -2.771579
     57          6           0       10.636696    2.176136   -1.711891
     58          6           0       12.050686    1.835979   -1.328154
     59          6           0       12.790807    2.941141   -0.403339
     60          6           0       13.797211    3.802565   -1.196829
     61          6           0       13.510073    2.295842    0.784182
     62          6           0       12.576390    1.773327    1.891691
     63          6           0       12.914404    0.333659    2.395943
     64          6           0       12.665027    0.220775    3.905411
     65          6           0       13.766030   -0.525248    4.616437
     66          6           0       11.269867   -0.451175    4.077377
     67          1           0       -1.091326    2.436555    0.049468
     68          1           0       -7.091907    4.867882    0.008706
     69          1           0       -9.568813   -1.059521    0.710868
     70          1           0       -1.377394   -2.270212    0.362452
     71          1           0       -0.309507    0.079876   -1.053109
     72          1           0       -0.736759    0.042873    1.940667
     73          1           0        0.676594    0.515665    1.026685
     74          1           0        0.416627   -1.203839    1.264639
     75          1           0       -0.849059   -1.420252   -2.434737
     76          1           0       -2.229144   -2.402538   -2.328474
     77          1           0        0.318559   -3.383569   -2.631393
     78          1           0       -0.817477   -4.321121   -1.712670
     79          1           0       -1.688949    6.139924   -0.720868
     80          1           0       -0.814351    4.611900   -0.376329
     81          1           0       -1.606611    5.477392    0.945971
     82          1           0       -4.176398    8.566966    0.532947
     83          1           0       -3.489028    7.823537   -0.807978
     84          1           0       -3.006706    7.381229    0.980270
     85          1           0       -9.421279    3.958179   -0.039905
     86          1           0      -10.189104    1.528927    1.270523
     87          1           0       -9.279757    4.671228    1.992455
     88          1           0       -8.083202    3.518231    2.530119
     89          1           0       -9.794120    3.045712    2.660787
     90          1           0      -10.282445    0.756466   -1.534964
     91          1           0      -10.959203    2.413537   -1.312382
     92          1           0      -12.102125   -0.193905   -0.297310
     93          1           0      -12.742051    0.977897   -1.296553
     94          1           0      -12.478585    1.257193    0.517932
     95          1           0       -9.393523   -4.050736   -0.187841
     96          1           0       -9.107289   -3.328255    1.522824
     97          1           0       -8.337304   -4.854685    0.971116
     98          1           0       -3.580192   -4.194904   -1.164635
     99          1           0       -0.657808   -6.072123    1.607466
    100          1           0       -1.583271   -7.334194    1.111194
    101          1           0       -2.124747   -6.168412    2.509615
    102          1           0        3.203607   -3.270785    0.327217
    103          1           0        2.773081   -1.557304    0.552519
    104          1           0        3.840656   -1.018583   -1.700531
    105          1           0        6.442841   -3.690839   -0.158761
    106          1           0        5.896628   -4.525453   -1.614094
    107          1           0        4.701479   -4.357018   -0.305220
    108          1           0        5.333522   -2.474927   -3.600490
    109          1           0        6.858081   -2.699621   -2.755748
    110          1           0        6.140362   -0.187055   -1.960679
    111          1           0        5.690000   -0.340605   -3.686448
    112          1           0        8.104558    0.053025   -4.142031
    113          1           0        8.419920   -1.428043   -3.480432
    114          1           0        8.059097    1.082492   -1.754920
    115          1           0        8.286726   -1.025516   -0.733048
    116          1           0        9.718172   -0.146548   -0.270534
    117          1           0        9.745271   -1.436148   -1.595782
    118          1           0        9.599161    1.912315   -3.528399
    119          1           0       10.688231    0.592901   -3.297918
    120          1           0        9.981237    2.162369   -0.840810
    121          1           0       10.566402    3.219837   -2.018882
    122          1           0       12.605918    1.669849   -2.251215
    123          1           0       12.018323    0.886550   -0.794121
    124          1           0       11.941187    3.440547    0.061137
    125          1           0       14.258290    3.163779   -1.950668
    126          1           0       14.615056    4.205570   -0.600589
    127          1           0       13.179534    4.581339   -1.644553
    128          1           0       14.168601    3.054251    1.207655
    129          1           0       14.062724    1.424068    0.434843
    130          1           0       11.581490    1.720468    1.450250
    131          1           0       12.395788    2.548003    2.637699
    132          1           0       13.945650    0.087380    2.142310
    133          1           0       12.360574   -0.373443    1.779023
    134          1           0       12.681293    1.203949    4.373975
    135          1           0       14.224289    0.143383    5.344314
    136          1           0       14.566334   -0.797367    3.927861
    137          1           0       13.357438   -1.374299    5.165440
    138          1           0       10.801047   -0.506305    3.094988
    139          1           0       10.618000    0.092231    4.761590
    140          1           0       11.314862   -1.503855    4.357066
 ---------------------------------------------------------------------

 SCF Done:  E(RB-LYP) =  -3007.38744407     A.U. after   21 cycles

 Excitation energies and oscillator strengths:

 Excited State   1:      Singlet-A      1.8146 eV  683.25 nm  f=0.2956  <S**2>=0.000
     245 -> 248       -0.21040
     246 -> 247        0.68648
     246 <- 247       -0.14810
 This state for optimization and/or second-order correction.
 Total Energy, E(TD-HF/TD-DFT) =  -3007.32075759
 Copying the excited state density for this state as the 1-particle RhoCI density.

 Excited State   2:      Singlet-A      2.0113 eV  616.43 nm  f=0.0594  <S**2>=0.000
     244 -> 247        0.17452
     245 -> 247        0.62625
     246 -> 248        0.26378

 Excited State   3:      Singlet-A      2.1214 eV  584.43 nm  f=0.0050  <S**2>=0.000
     244 -> 247        0.68385
     245 -> 247       -0.14674

 Excited State   4:      Singlet-A      2.1383 eV  579.83 nm  f=0.0009  <S**2>=0.000
     243 -> 247        0.70606

 Excited State   5:      Singlet-A      2.4425 eV  507.62 nm  f=0.0017  <S**2>=0.000
     242 -> 247        0.70520

 The electronic state is 1-A.
 Alpha  occ. eigenvalues --  -46.27012 -18.82286 -18.80257 -18.76970 -18.75719
 Alpha  occ. eigenvalues --  -18.75590 -18.74785 -14.03027 -14.02316 -14.00937
 Alpha  occ. eigenvalues --  -14.00921 -10.04226 -10.02673  -9.99901  -9.99580
 Alpha  occ. eigenvalues --   -9.98246  -9.96186  -9.96175  -9.95809  -9.95721
 Alpha  occ. eigenvalues --   -9.95703  -9.95677  -9.95668  -9.95432  -9.94400
 Alpha  occ. eigenvalues --   -9.94219  -9.93954  -9.93912  -9.93871  -9.93573
 Alpha  occ. eigenvalues --   -9.93545  -9.93537  -9.93469  -9.93369  -9.93284
 Alpha  occ. eigenvalues --   -9.92963  -9.92890  -9.92844  -9.92711  -9.92709
 Alpha  occ. eigenvalues --   -9.92659  -9.92586  -9.92571  -9.92570  -9.92310
 Alpha  occ. eigenvalues --   -9.92305  -9.92261  -9.92223  -9.91941  -9.91918
 Alpha  occ. eigenvalues --   -9.91851  -9.91827  -9.91786  -9.91741  -9.91708
 Alpha  occ. eigenvalues --   -9.91530  -9.91453  -9.91277  -9.91144  -9.91101
 Alpha  occ. eigenvalues --   -9.90974  -9.90790  -9.90778  -9.90669  -9.90573
 Alpha  occ. eigenvalues --   -9.90244  -2.91594  -1.72025  -1.71486  -1.71288
 Alpha  occ. eigenvalues --   -0.98255  -0.96642  -0.93136  -0.91432  -0.89854
 Alpha  occ. eigenvalues --   -0.87732  -0.86020  -0.85361  -0.85078  -0.84367
 Alpha  occ. eigenvalues --   -0.75398  -0.73714  -0.72985  -0.72574  -0.71977
 Alpha  occ. eigenvalues --   -0.71700  -0.71013  -0.71003  -0.70609  -0.70419
 Alpha  occ. eigenvalues --   -0.69578  -0.69425  -0.68186  -0.67564  -0.67242
 Alpha  occ. eigenvalues --   -0.66653  -0.66353  -0.65491  -0.64841  -0.64576
 Alpha  occ. eigenvalues --   -0.64241  -0.62745  -0.62163  -0.61296  -0.60514
 Alpha  occ. eigenvalues --   -0.60385  -0.60222  -0.59788  -0.59643  -0.58921
 Alpha  occ. eigenvalues --   -0.58107  -0.57370  -0.56446  -0.55704  -0.54223
 Alpha  occ. eigenvalues --   -0.53810  -0.53476  -0.52672  -0.52296  -0.51348
 Alpha  occ. eigenvalues --   -0.51291  -0.51031  -0.50457  -0.50090  -0.49986
 Alpha  occ. eigenvalues --   -0.49706  -0.49510  -0.48771  -0.47669  -0.46610
 Alpha  occ. eigenvalues --   -0.46091  -0.45724  -0.45410  -0.45018  -0.44409
 Alpha  occ. eigenvalues --   -0.44198  -0.43497  -0.42752  -0.42473  -0.42138
 Alpha  occ. eigenvalues --   -0.42066  -0.41505  -0.41275  -0.41221  -0.40983
 Alpha  occ. eigenvalues --   -0.40907  -0.40857  -0.40617  -0.40158  -0.39983
 Alpha  occ. eigenvalues --   -0.39734  -0.39559  -0.39328  -0.39222  -0.38869
 Alpha  occ. eigenvalues --   -0.38732  -0.38665  -0.38383  -0.38337  -0.38300
 Alpha  occ. eigenvalues --   -0.38182  -0.37886  -0.37678  -0.37318  -0.37192
 Alpha  occ. eigenvalues --   -0.37156  -0.36915  -0.36710  -0.36424  -0.36396
 Alpha  occ. eigenvalues --   -0.36305  -0.36152  -0.35954  -0.35853  -0.35786
 Alpha  occ. eigenvalues --   -0.35416  -0.35238  -0.35139  -0.34956  -0.34759
 Alpha  occ. eigenvalues --   -0.34595  -0.34228  -0.34162  -0.34014  -0.33904
 Alpha  occ. eigenvalues --   -0.33851  -0.33676  -0.33524  -0.33398  -0.33246
 Alpha  occ. eigenvalues --   -0.32604  -0.32539  -0.32491  -0.32322  -0.32195
 Alpha  occ. eigenvalues --   -0.31877  -0.31791  -0.31512  -0.31402  -0.31158
 Alpha  occ. eigenvalues --   -0.31153  -0.30816  -0.30688  -0.30414  -0.30210
 Alpha  occ. eigenvalues --   -0.30127  -0.30035  -0.29927  -0.29898  -0.29688
 Alpha  occ. eigenvalues --   -0.29461  -0.29207  -0.28997  -0.28939  -0.28707
 Alpha  occ. eigenvalues --   -0.28614  -0.28221  -0.28192  -0.27871  -0.27775
 Alpha  occ. eigenvalues --   -0.27360  -0.27219  -0.26768  -0.26710  -0.26540
 Alpha  occ. eigenvalues --   -0.26177  -0.25987  -0.25805  -0.25719  -0.25418
 Alpha  occ. eigenvalues --   -0.24786  -0.24751  -0.24036  -0.23257  -0.22908
 Alpha  occ. eigenvalues --   -0.22768  -0.22103  -0.21686  -0.20873  -0.20696
 Alpha  occ. eigenvalues --   -0.20493  -0.20042  -0.18828  -0.18792  -0.16896
 Alpha  occ. eigenvalues --   -0.15396
 Alpha virt. eigenvalues --   -0.11094  -0.06663  -0.06009  -0.04332  -0.03512
 Alpha virt. eigenvalues --   -0.02498  -0.02358  -0.01394  -0.00775   0.00198
 Alpha virt. eigenvalues --    0.01669   0.01695   0.02143   0.02767   0.03040

 Mulliken charges:
               1
     1  Mg   0.696572
     2  C   -0.011394
     3  C   -0.050664
     4  C   -0.026028
     5  C   -0.083811
     6  N   -0.204745
     7  C   -0.037695
     8  C   -0.048198
     9  C   -0.017653
    10  C   -0.022536
    11  C    0.118814
    12  C    0.145387
    13  C    0.131733
    14  C    0.071223
    15  O   -0.187172
    16  O   -0.281129
    17  N   -0.279784
    18  C    0.139908
    19  C   -0.163669
    20  C    0.038765
    21  C    0.067371
    22  C    0.170656
    23  C   -0.101024
    24  O   -0.136627
    25  C    0.172780
    26  N   -0.214600
    27  C    0.018386
    28  C   -0.005995
    29  C    0.036795
    30  C    0.040202
    31  C    0.131768
    32  C    0.124272
    33  C    0.039800
    34  N   -0.272816
    35  C    0.100176
    36  C   -0.216220
    37  C    0.123814
    38  C    0.076248
    39  C    0.163349
    40  C   -0.079638
    41  O   -0.127062
    42  C    0.126859
    43  C    0.094618
    44  O   -0.204797
    45  O   -0.254791
    46  C    0.229949
    47  C    0.338413
    48  C   -0.094229
    49  C   -0.220563
    50  C    0.143759
    51  C    0.117498
    52  C    0.121731
    53  C    0.082665
    54  C   -0.094719
    55  C    0.123490
    56  C    0.123603
    57  C    0.051310
    58  C    0.085757
    59  C   -0.080667
    60  C    0.138476
    61  C    0.099365
    62  C    0.056620
    63  C    0.091873
    64  C   -0.093810
    65  C    0.130775
    66  C    0.105055
    67  H   -0.078751
    68  H   -0.043916
    69  H   -0.060353
    70  H    0.017379
    71  H   -0.013994
    72  H    0.002640
    73  H   -0.020133
    74  H    0.020773
    75  H   -0.031309
    76  H   -0.023895
    77  H   -0.011723
    78  H   -0.001065
    79  H    0.007983
    80  H   -0.001445
    81  H    0.012334
    82  H   -0.023061
    83  H    0.016487
    84  H    0.007531
    85  H   -0.023119
    86  H   -0.041229
    87  H    0.001149
    88  H    0.000316
    89  H    0.000401
    90  H   -0.011132
    91  H   -0.019901
    92  H   -0.019060
    93  H   -0.011889
    94  H   -0.004090
    95  H    0.004125
    96  H    0.015752
    97  H    0.010256
    98  H    0.002985
    99  H    0.001417
   100  H    0.001303
   101  H    0.015242
   102  H   -0.004152
   103  H   -0.003858
   104  H   -0.042984
   105  H    0.013891
   106  H   -0.010831
   107  H    0.008314
   108  H    0.001696
   109  H   -0.044517
   110  H   -0.014529
   111  H   -0.020144
   112  H   -0.051465
   113  H   -0.033171
   114  H   -0.036450
   115  H   -0.029481
   116  H   -0.002831
   117  H   -0.019303
   118  H   -0.039721
   119  H   -0.035119
   120  H   -0.035998
   121  H   -0.036724
   122  H   -0.034707
   123  H   -0.033482
   124  H   -0.041370
   125  H   -0.015106
   126  H   -0.015992
   127  H   -0.011792
   128  H   -0.036519
   129  H   -0.036333
   130  H   -0.045225
   131  H   -0.034667
   132  H   -0.035054
   133  H   -0.025718
   134  H   -0.030125
   135  H   -0.025320
   136  H   -0.020997
   137  H   -0.020755
   138  H   -0.024068
   139  H   -0.010866
   140  H   -0.020337
 Sum of Mulliken charges =  -0.00000

 Dipole moment (field-independent basis, Debye):
    X=              3.6701    Y=              3.9320    Z=             -3.7370  Tot=              6.5494
 Quadrupole moment (field-independent basis, Debye-Ang):
   XX=           -382.0151   YY=           -426.6262   ZZ=           -403.4411
   XY=             -9.9140   XZ=              3.3457   YZ=             10.3157

 Normal termination of Gaussian 16 at Wed Apr 27 04:26:17 2022.
