 Gaussian 16, Revision A.03,
 Gaussian 16:  ES64L-G16RevA.03 25-Dec-2016

 -----------------------------------
 #p cam-b3lyp/Def2SVP td=(nstates=5)
 -----------------------------------

 -------------------------------------------------------
 step_1051_chromophore_3 TDDFT with cam-b3lyp functional
 -------------------------------------------------------
 Symbolic Z-matrix:
 Charge =  0 Multiplicity = 1

                         Standard orientation:
 ---------------------------------------------------------------------
 Center     Atomic      Atomic             Coordinates (Angstroms)
 Number     Number       Type             X           Y           Z
 ---------------------------------------------------------------------
      1         12           0       -5.361254    0.847078   -0.289500
      2          6           0       -4.111605   -2.369998   -0.211135
      3          6           0       -2.129964    2.099342    0.030598
      4          6           0       -6.643278    3.873955    0.071634
      5          6           0       -8.627600   -0.587519    0.419915
      6          7           0       -3.325830    0.023708   -0.128259
      7          6           0       -3.136887   -1.345804   -0.312678
      8          6           0       -1.677145   -1.589984   -0.435225
      9          6           0       -0.903479   -0.178105   -0.176375
     10          6           0       -2.182960    0.685798    0.022508
     11          6           0       -0.091129   -0.251732    1.112643
     12          6           0       -1.305910   -2.175748   -1.795781
     13          6           0       -0.278823   -3.373463   -1.719054
     14          6           0        0.794981   -3.381860   -0.654973
     15          8           0        0.897889   -4.118229    0.318259
     16          8           0        1.726886   -2.468975   -1.011868
     17          7           0       -4.513090    2.741435   -0.177086
     18          6           0       -3.180161    3.071931   -0.056199
     19          6           0       -3.027161    4.542922   -0.076305
     20          6           0       -4.342355    5.057884    0.022241
     21          6           0       -5.204010    3.917652   -0.060764
     22          6           0       -1.670413    5.233637   -0.114606
     23          6           0       -4.740947    6.542445    0.201671
     24          8           0       -5.899944    6.819579    0.345671
     25          6           0       -3.758909    7.607852    0.225387
     26          7           0       -7.405791    1.509697    0.017770
     27          6           0       -7.634792    2.868209    0.154029
     28          6           0       -8.989089    3.164745    0.569979
     29          6           0       -9.700946    1.745246    0.319763
     30          6           0       -8.519995    0.762651    0.217777
     31          6           0       -9.067765    3.604577    2.071043
     32          6           0      -10.697281    1.473376   -0.827217
     33          6           0      -12.087125    0.887536   -0.429461
     34          7           0       -6.241472   -1.000407    0.058835
     35          6           0       -7.566339   -1.477530    0.263779
     36          6           0       -7.589929   -2.943314    0.252838
     37          6           0       -6.240555   -3.328363    0.175053
     38          6           0       -5.489035   -2.099601   -0.021991
     39          6           0       -8.733442   -3.886609    0.664471
     40          6           0       -5.330699   -4.435074    0.223562
     41          8           0       -5.553126   -5.614363    0.443078
     42          6           0       -3.911022   -3.862839   -0.180514
     43          6           0       -3.051502   -4.381904    0.866623
     44          8           0       -2.820895   -3.857567    1.957409
     45          8           0       -2.424223   -5.550120    0.550243
     46          6           0       -1.712002   -6.329022    1.513485
     47          6           0        2.950134   -2.341927   -0.183925
     48          6           0        4.027514   -1.935171   -1.141328
     49          6           0        5.180495   -2.582183   -1.499626
     50          6           0        5.571719   -3.904083   -0.779215
     51          6           0        5.944001   -2.107049   -2.775821
     52          6           0        6.369096   -0.681141   -2.904852
     53          6           0        7.920786   -0.494739   -3.217257
     54          6           0        8.766236    0.370580   -2.180546
     55          6           0        9.217211   -0.610061   -1.119522
     56          6           0        9.971199    1.222808   -2.771579
     57          6           0       10.636696    2.176136   -1.711891
     58          6           0       12.050686    1.835979   -1.328154
     59          6           0       12.790807    2.941141   -0.403339
     60          6           0       13.797211    3.802565   -1.196829
     61          6           0       13.510073    2.295842    0.784182
     62          6           0       12.576390    1.773327    1.891691
     63          6           0       12.914404    0.333659    2.395943
     64          6           0       12.665027    0.220775    3.905411
     65          6           0       13.766030   -0.525248    4.616437
     66          6           0       11.269867   -0.451175    4.077377
     67          1           0       -1.091326    2.436555    0.049468
     68          1           0       -7.091907    4.867882    0.008706
     69          1           0       -9.568813   -1.059521    0.710868
     70          1           0       -1.377394   -2.270212    0.362452
     71          1           0       -0.309507    0.079876   -1.053109
     72          1           0       -0.736759    0.042873    1.940667
     73          1           0        0.676594    0.515665    1.026685
     74          1           0        0.416627   -1.203839    1.264639
     75          1           0       -0.849059   -1.420252   -2.434737
     76          1           0       -2.229144   -2.402538   -2.328474
     77          1           0        0.318559   -3.383569   -2.631393
     78          1           0       -0.817477   -4.321121   -1.712670
     79          1           0       -1.688949    6.139924   -0.720868
     80          1           0       -0.814351    4.611900   -0.376329
     81          1           0       -1.606611    5.477392    0.945971
     82          1           0       -4.176398    8.566966    0.532947
     83          1           0       -3.489028    7.823537   -0.807978
     84          1           0       -3.006706    7.381229    0.980270
     85          1           0       -9.421279    3.958179   -0.039905
     86          1           0      -10.189104    1.528927    1.270523
     87          1           0       -9.279757    4.671228    1.992455
     88          1           0       -8.083202    3.518231    2.530119
     89          1           0       -9.794120    3.045712    2.660787
     90          1           0      -10.282445    0.756466   -1.534964
     91          1           0      -10.959203    2.413537   -1.312382
     92          1           0      -12.102125   -0.193905   -0.297310
     93          1           0      -12.742051    0.977897   -1.296553
     94          1           0      -12.478585    1.257193    0.517932
     95          1           0       -9.393523   -4.050736   -0.187841
     96          1           0       -9.107289   -3.328255    1.522824
     97          1           0       -8.337304   -4.854685    0.971116
     98          1           0       -3.580192   -4.194904   -1.164635
     99          1           0       -0.657808   -6.072123    1.607466
    100          1           0       -1.583271   -7.334194    1.111194
    101          1           0       -2.124747   -6.168412    2.509615
    102          1           0        3.203607   -3.270785    0.327217
    103          1           0        2.773081   -1.557304    0.552519
    104          1           0        3.840656   -1.018583   -1.700531
    105          1           0        6.442841   -3.690839   -0.158761
    106          1           0        5.896628   -4.525453   -1.614094
    107          1           0        4.701479   -4.357018   -0.305220
    108          1           0        5.333522   -2.474927   -3.600490
    109          1           0        6.858081   -2.699621   -2.755748
    110          1           0        6.140362   -0.187055   -1.960679
    111          1           0        5.690000   -0.340605   -3.686448
    112          1           0        8.104558    0.053025   -4.142031
    113          1           0        8.419920   -1.428043   -3.480432
    114          1           0        8.059097    1.082492   -1.754920
    115          1           0        8.286726   -1.025516   -0.733048
    116          1           0        9.718172   -0.146548   -0.270534
    117          1           0        9.745271   -1.436148   -1.595782
    118          1           0        9.599161    1.912315   -3.528399
    119          1           0       10.688231    0.592901   -3.297918
    120          1           0        9.981237    2.162369   -0.840810
    121          1           0       10.566402    3.219837   -2.018882
    122          1           0       12.605918    1.669849   -2.251215
    123          1           0       12.018323    0.886550   -0.794121
    124          1           0       11.941187    3.440547    0.061137
    125          1           0       14.258290    3.163779   -1.950668
    126          1           0       14.615056    4.205570   -0.600589
    127          1           0       13.179534    4.581339   -1.644553
    128          1           0       14.168601    3.054251    1.207655
    129          1           0       14.062724    1.424068    0.434843
    130          1           0       11.581490    1.720468    1.450250
    131          1           0       12.395788    2.548003    2.637699
    132          1           0       13.945650    0.087380    2.142310
    133          1           0       12.360574   -0.373443    1.779023
    134          1           0       12.681293    1.203949    4.373975
    135          1           0       14.224289    0.143383    5.344314
    136          1           0       14.566334   -0.797367    3.927861
    137          1           0       13.357438   -1.374299    5.165440
    138          1           0       10.801047   -0.506305    3.094988
    139          1           0       10.618000    0.092231    4.761590
    140          1           0       11.314862   -1.503855    4.357066
 ---------------------------------------------------------------------

 SCF Done:  E(RCAM-B3LYP) =  -3007.18366560     A.U. after   17 cycles

 Excitation energies and oscillator strengths:

 Excited State   1:      Singlet-A      1.6985 eV  729.95 nm  f=0.3718  <S**2>=0.000
     245 -> 248       -0.19184
     246 -> 247        0.68271
     245 <- 248       -0.11110
 This state for optimization and/or second-order correction.
 Total Energy, E(TD-HF/TD-DFT) =  -3007.12124562
 Copying the excited state density for this state as the 1-particle RhoCI density.

 Excited State   2:      Singlet-A      2.2296 eV  556.07 nm  f=0.0884  <S**2>=0.000
     245 -> 247        0.62647
     246 -> 248        0.31941

 Excited State   3:      Singlet-A      3.4452 eV  359.87 nm  f=0.6360  <S**2>=0.000
     243 -> 247       -0.19702
     244 -> 247        0.17837
     245 -> 247       -0.28506
     246 -> 248        0.58577
     245 <- 247        0.10896

 Excited State   4:      Singlet-A      3.5725 eV  347.05 nm  f=0.0591  <S**2>=0.000
     240 -> 247       -0.13156
     240 -> 249       -0.10001
     241 -> 247       -0.17607
     244 -> 247        0.60899
     246 -> 248       -0.15526

 Excited State   5:      Singlet-A      3.6032 eV  344.09 nm  f=0.0506  <S**2>=0.000
     240 -> 247        0.35511
     240 -> 249        0.20885
     241 -> 247        0.31093
     241 -> 249        0.20314
     243 -> 247       -0.24825
     244 -> 247        0.23029
     246 -> 248       -0.10558

 The electronic state is 1-A.
 Alpha  occ. eigenvalues --  -46.88555 -19.25194 -19.23131 -19.19926 -19.18933
 Alpha  occ. eigenvalues --  -19.18884 -19.17887 -14.41936 -14.41111 -14.39459
 Alpha  occ. eigenvalues --  -14.39354 -10.39493 -10.38148 -10.35065 -10.34970
 Alpha  occ. eigenvalues --  -10.32427 -10.30703 -10.30679 -10.30247 -10.30184
 Alpha  occ. eigenvalues --  -10.30178 -10.29876 -10.29590 -10.29563 -10.28974
 Alpha  occ. eigenvalues --  -10.28705 -10.28272 -10.28202 -10.28002 -10.27996
 Alpha  occ. eigenvalues --  -10.27842 -10.27527 -10.27401 -10.27339 -10.27099
 Alpha  occ. eigenvalues --  -10.27061 -10.26885 -10.26806 -10.26733 -10.26644
 Alpha  occ. eigenvalues --  -10.26602 -10.26360 -10.26347 -10.26329 -10.26224
 Alpha  occ. eigenvalues --  -10.26179 -10.26017 -10.25997 -10.25818 -10.25778
 Alpha  occ. eigenvalues --  -10.25732 -10.25601 -10.25508 -10.25503 -10.25283
 Alpha  occ. eigenvalues --  -10.25194 -10.25151 -10.24998 -10.24812 -10.24762
 Alpha  occ. eigenvalues --  -10.24712 -10.24660 -10.24478 -10.24264 -10.24241
 Alpha  occ. eigenvalues --  -10.23805  -3.17038  -1.91947  -1.91502  -1.91324
 Alpha  occ. eigenvalues --   -1.16724  -1.15175  -1.11686  -1.09861  -1.07710
 Alpha  occ. eigenvalues --   -1.05652  -1.03766  -1.02983  -1.02696  -1.01844
 Alpha  occ. eigenvalues --   -0.92577  -0.90587  -0.89815  -0.89352  -0.88692
 Alpha  occ. eigenvalues --   -0.88361  -0.87607  -0.87557  -0.87321  -0.87008
 Alpha  occ. eigenvalues --   -0.86065  -0.85764  -0.84514  -0.83742  -0.83464
 Alpha  occ. eigenvalues --   -0.82877  -0.82479  -0.81382  -0.80736  -0.80375
 Alpha  occ. eigenvalues --   -0.80065  -0.78524  -0.77803  -0.76712  -0.75882
 Alpha  occ. eigenvalues --   -0.75743  -0.75603  -0.75104  -0.74876  -0.74182
 Alpha  occ. eigenvalues --   -0.73156  -0.72369  -0.71348  -0.70553  -0.68757
 Alpha  occ. eigenvalues --   -0.68362  -0.68117  -0.67090  -0.66777  -0.65604
 Alpha  occ. eigenvalues --   -0.65473  -0.65052  -0.64473  -0.64086  -0.63974
 Alpha  occ. eigenvalues --   -0.63611  -0.63474  -0.62682  -0.61259  -0.60242
 Alpha  occ. eigenvalues --   -0.59738  -0.59293  -0.58902  -0.58351  -0.57946
 Alpha  occ. eigenvalues --   -0.57595  -0.56727  -0.56043  -0.55706  -0.55318
 Alpha  occ. eigenvalues --   -0.55076  -0.54577  -0.54249  -0.54131  -0.53861
 Alpha  occ. eigenvalues --   -0.53792  -0.53596  -0.53417  -0.53069  -0.52714
 Alpha  occ. eigenvalues --   -0.52583  -0.52115  -0.52039  -0.51884  -0.51543
 Alpha  occ. eigenvalues --   -0.51211  -0.51157  -0.51119  -0.50674  -0.50610
 Alpha  occ. eigenvalues --   -0.50584  -0.50211  -0.50122  -0.49912  -0.49706
 Alpha  occ. eigenvalues --   -0.49443  -0.49242  -0.49084  -0.48968  -0.48725
 Alpha  occ. eigenvalues --   -0.48491  -0.48451  -0.48413  -0.48120  -0.47902
 Alpha  occ. eigenvalues --   -0.47832  -0.47383  -0.47179  -0.46757  -0.46705
 Alpha  occ. eigenvalues --   -0.46550  -0.46158  -0.45858  -0.45737  -0.45719
 Alpha  occ. eigenvalues --   -0.45679  -0.45382  -0.45309  -0.45174  -0.45072
 Alpha  occ. eigenvalues --   -0.44411  -0.44204  -0.44189  -0.43963  -0.43717
 Alpha  occ. eigenvalues --   -0.43412  -0.43258  -0.43200  -0.42948  -0.42714
 Alpha  occ. eigenvalues --   -0.42560  -0.42531  -0.42211  -0.42143  -0.41735
 Alpha  occ. eigenvalues --   -0.41491  -0.41400  -0.41139  -0.41132  -0.40800
 Alpha  occ. eigenvalues --   -0.40731  -0.40465  -0.40186  -0.40058  -0.40002
 Alpha  occ. eigenvalues --   -0.39714  -0.39621  -0.39273  -0.39138  -0.38693
 Alpha  occ. eigenvalues --   -0.38251  -0.38056  -0.37691  -0.37566  -0.37461
 Alpha  occ. eigenvalues --   -0.37037  -0.36899  -0.36683  -0.36328  -0.36271
 Alpha  occ. eigenvalues --   -0.35791  -0.35141  -0.34530  -0.34372  -0.34150
 Alpha  occ. eigenvalues --   -0.33782  -0.32691  -0.32472  -0.31305  -0.30883
 Alpha  occ. eigenvalues --   -0.30663  -0.30411  -0.30185  -0.29848  -0.23650
 Alpha  occ. eigenvalues --   -0.20597
 Alpha virt. eigenvalues --   -0.08166  -0.01591   0.00541   0.02444   0.02836
 Alpha virt. eigenvalues --    0.03956   0.05188   0.06142   0.06705   0.06919
 Alpha virt. eigenvalues --    0.07677   0.08033   0.08964   0.09282   0.09522

 Mulliken charges:
               1
     1  Mg   0.828895
     2  C   -0.034276
     3  C   -0.063249
     4  C   -0.049324
     5  C   -0.087117
     6  N   -0.276396
     7  C    0.010003
     8  C   -0.112458
     9  C   -0.063856
    10  C    0.000630
    11  C    0.065618
    12  C    0.095538
    13  C    0.062907
    14  C    0.145649
    15  O   -0.229078
    16  O   -0.343199
    17  N   -0.366597
    18  C    0.146149
    19  C   -0.166728
    20  C   -0.031475
    21  C    0.095464
    22  C    0.112888
    23  C   -0.015523
    24  O   -0.177510
    25  C    0.080056
    26  N   -0.287076
    27  C    0.043233
    28  C   -0.064146
    29  C   -0.017225
    30  C    0.055538
    31  C    0.075754
    32  C    0.064502
    33  C   -0.017824
    34  N   -0.359074
    35  C    0.097406
    36  C   -0.195637
    37  C    0.038320
    38  C    0.112852
    39  C    0.107706
    40  C    0.018721
    41  O   -0.165263
    42  C    0.045604
    43  C    0.182321
    44  O   -0.240109
    45  O   -0.318369
    46  C    0.190673
    47  C    0.305625
    48  C   -0.116237
    49  C   -0.236847
    50  C    0.082281
    51  C    0.066151
    52  C    0.057858
    53  C    0.027389
    54  C   -0.148134
    55  C    0.071911
    56  C    0.068656
    57  C   -0.000788
    58  C    0.037424
    59  C   -0.136158
    60  C    0.078309
    61  C    0.047761
    62  C    0.005082
    63  C    0.038196
    64  C   -0.158003
    65  C    0.071379
    66  C    0.049312
    67  H   -0.043987
    68  H   -0.005176
    69  H   -0.024442
    70  H    0.048598
    71  H    0.019962
    72  H    0.030064
    73  H    0.003692
    74  H    0.039650
    75  H    0.000741
    76  H    0.008375
    77  H    0.023383
    78  H    0.029615
    79  H    0.034087
    80  H    0.026674
    81  H    0.038358
    82  H    0.015286
    83  H    0.045349
    84  H    0.035293
    85  H    0.012187
    86  H   -0.006420
    87  H    0.024440
    88  H    0.026428
    89  H    0.023785
    90  H    0.018576
    91  H    0.007498
    92  H    0.002469
    93  H    0.013009
    94  H    0.017971
    95  H    0.029717
    96  H    0.037492
    97  H    0.038887
    98  H    0.045198
    99  H    0.023894
   100  H    0.024862
   101  H    0.040439
   102  H    0.027290
   103  H    0.022473
   104  H   -0.010391
   105  H    0.036798
   106  H    0.013052
   107  H    0.031453
   108  H    0.030388
   109  H   -0.015025
   110  H    0.013363
   111  H    0.009651
   112  H   -0.019215
   113  H   -0.004984
   114  H   -0.005462
   115  H   -0.007799
   116  H    0.015926
   117  H    0.004328
   118  H   -0.008776
   119  H   -0.006933
   120  H   -0.009955
   121  H   -0.007771
   122  H   -0.007244
   123  H   -0.009430
   124  H   -0.009846
   125  H    0.008237
   126  H    0.009037
   127  H    0.012191
   128  H   -0.006740
   129  H   -0.008813
   130  H   -0.020567
   131  H   -0.005289
   132  H   -0.006546
   133  H    0.000641
   134  H    0.002592
   135  H   -0.000701
   136  H    0.003321
   137  H    0.003654
   138  H   -0.002011
   139  H    0.013283
   140  H    0.003782
 Sum of Mulliken charges =  -0.00000

 Dipole moment (field-independent basis, Debye):
    X=              4.0210    Y=              4.3901    Z=             -3.9093  Tot=              7.1221
 Quadrupole moment (field-independent basis, Debye-Ang):
   XX=           -382.8187   YY=           -422.3152   ZZ=           -403.4234
   XY=            -11.1013   XZ=              3.5782   YZ=             10.7641

 Normal termination of Gaussian 16 at Wed Apr 27 03:26:45 2022.
