 Gaussian 16, Revision A.03,
 Gaussian 16:  ES64L-G16RevA.03 25-Dec-2016

 ---------------------------------
 #p PBE1PBE/Def2SVP td=(nstates=5)
 ---------------------------------

 -----------------------------------------------------
 step_1051_chromophore_3 TDDFT with PBE1PBE functional
 -----------------------------------------------------
 Symbolic Z-matrix:
 Charge =  0 Multiplicity = 1

                         Standard orientation:
 ---------------------------------------------------------------------
 Center     Atomic      Atomic             Coordinates (Angstroms)
 Number     Number       Type             X           Y           Z
 ---------------------------------------------------------------------
      1         12           0       -5.361254    0.847078   -0.289500
      2          6           0       -4.111605   -2.369998   -0.211135
      3          6           0       -2.129964    2.099342    0.030598
      4          6           0       -6.643278    3.873955    0.071634
      5          6           0       -8.627600   -0.587519    0.419915
      6          7           0       -3.325830    0.023708   -0.128259
      7          6           0       -3.136887   -1.345804   -0.312678
      8          6           0       -1.677145   -1.589984   -0.435225
      9          6           0       -0.903479   -0.178105   -0.176375
     10          6           0       -2.182960    0.685798    0.022508
     11          6           0       -0.091129   -0.251732    1.112643
     12          6           0       -1.305910   -2.175748   -1.795781
     13          6           0       -0.278823   -3.373463   -1.719054
     14          6           0        0.794981   -3.381860   -0.654973
     15          8           0        0.897889   -4.118229    0.318259
     16          8           0        1.726886   -2.468975   -1.011868
     17          7           0       -4.513090    2.741435   -0.177086
     18          6           0       -3.180161    3.071931   -0.056199
     19          6           0       -3.027161    4.542922   -0.076305
     20          6           0       -4.342355    5.057884    0.022241
     21          6           0       -5.204010    3.917652   -0.060764
     22          6           0       -1.670413    5.233637   -0.114606
     23          6           0       -4.740947    6.542445    0.201671
     24          8           0       -5.899944    6.819579    0.345671
     25          6           0       -3.758909    7.607852    0.225387
     26          7           0       -7.405791    1.509697    0.017770
     27          6           0       -7.634792    2.868209    0.154029
     28          6           0       -8.989089    3.164745    0.569979
     29          6           0       -9.700946    1.745246    0.319763
     30          6           0       -8.519995    0.762651    0.217777
     31          6           0       -9.067765    3.604577    2.071043
     32          6           0      -10.697281    1.473376   -0.827217
     33          6           0      -12.087125    0.887536   -0.429461
     34          7           0       -6.241472   -1.000407    0.058835
     35          6           0       -7.566339   -1.477530    0.263779
     36          6           0       -7.589929   -2.943314    0.252838
     37          6           0       -6.240555   -3.328363    0.175053
     38          6           0       -5.489035   -2.099601   -0.021991
     39          6           0       -8.733442   -3.886609    0.664471
     40          6           0       -5.330699   -4.435074    0.223562
     41          8           0       -5.553126   -5.614363    0.443078
     42          6           0       -3.911022   -3.862839   -0.180514
     43          6           0       -3.051502   -4.381904    0.866623
     44          8           0       -2.820895   -3.857567    1.957409
     45          8           0       -2.424223   -5.550120    0.550243
     46          6           0       -1.712002   -6.329022    1.513485
     47          6           0        2.950134   -2.341927   -0.183925
     48          6           0        4.027514   -1.935171   -1.141328
     49          6           0        5.180495   -2.582183   -1.499626
     50          6           0        5.571719   -3.904083   -0.779215
     51          6           0        5.944001   -2.107049   -2.775821
     52          6           0        6.369096   -0.681141   -2.904852
     53          6           0        7.920786   -0.494739   -3.217257
     54          6           0        8.766236    0.370580   -2.180546
     55          6           0        9.217211   -0.610061   -1.119522
     56          6           0        9.971199    1.222808   -2.771579
     57          6           0       10.636696    2.176136   -1.711891
     58          6           0       12.050686    1.835979   -1.328154
     59          6           0       12.790807    2.941141   -0.403339
     60          6           0       13.797211    3.802565   -1.196829
     61          6           0       13.510073    2.295842    0.784182
     62          6           0       12.576390    1.773327    1.891691
     63          6           0       12.914404    0.333659    2.395943
     64          6           0       12.665027    0.220775    3.905411
     65          6           0       13.766030   -0.525248    4.616437
     66          6           0       11.269867   -0.451175    4.077377
     67          1           0       -1.091326    2.436555    0.049468
     68          1           0       -7.091907    4.867882    0.008706
     69          1           0       -9.568813   -1.059521    0.710868
     70          1           0       -1.377394   -2.270212    0.362452
     71          1           0       -0.309507    0.079876   -1.053109
     72          1           0       -0.736759    0.042873    1.940667
     73          1           0        0.676594    0.515665    1.026685
     74          1           0        0.416627   -1.203839    1.264639
     75          1           0       -0.849059   -1.420252   -2.434737
     76          1           0       -2.229144   -2.402538   -2.328474
     77          1           0        0.318559   -3.383569   -2.631393
     78          1           0       -0.817477   -4.321121   -1.712670
     79          1           0       -1.688949    6.139924   -0.720868
     80          1           0       -0.814351    4.611900   -0.376329
     81          1           0       -1.606611    5.477392    0.945971
     82          1           0       -4.176398    8.566966    0.532947
     83          1           0       -3.489028    7.823537   -0.807978
     84          1           0       -3.006706    7.381229    0.980270
     85          1           0       -9.421279    3.958179   -0.039905
     86          1           0      -10.189104    1.528927    1.270523
     87          1           0       -9.279757    4.671228    1.992455
     88          1           0       -8.083202    3.518231    2.530119
     89          1           0       -9.794120    3.045712    2.660787
     90          1           0      -10.282445    0.756466   -1.534964
     91          1           0      -10.959203    2.413537   -1.312382
     92          1           0      -12.102125   -0.193905   -0.297310
     93          1           0      -12.742051    0.977897   -1.296553
     94          1           0      -12.478585    1.257193    0.517932
     95          1           0       -9.393523   -4.050736   -0.187841
     96          1           0       -9.107289   -3.328255    1.522824
     97          1           0       -8.337304   -4.854685    0.971116
     98          1           0       -3.580192   -4.194904   -1.164635
     99          1           0       -0.657808   -6.072123    1.607466
    100          1           0       -1.583271   -7.334194    1.111194
    101          1           0       -2.124747   -6.168412    2.509615
    102          1           0        3.203607   -3.270785    0.327217
    103          1           0        2.773081   -1.557304    0.552519
    104          1           0        3.840656   -1.018583   -1.700531
    105          1           0        6.442841   -3.690839   -0.158761
    106          1           0        5.896628   -4.525453   -1.614094
    107          1           0        4.701479   -4.357018   -0.305220
    108          1           0        5.333522   -2.474927   -3.600490
    109          1           0        6.858081   -2.699621   -2.755748
    110          1           0        6.140362   -0.187055   -1.960679
    111          1           0        5.690000   -0.340605   -3.686448
    112          1           0        8.104558    0.053025   -4.142031
    113          1           0        8.419920   -1.428043   -3.480432
    114          1           0        8.059097    1.082492   -1.754920
    115          1           0        8.286726   -1.025516   -0.733048
    116          1           0        9.718172   -0.146548   -0.270534
    117          1           0        9.745271   -1.436148   -1.595782
    118          1           0        9.599161    1.912315   -3.528399
    119          1           0       10.688231    0.592901   -3.297918
    120          1           0        9.981237    2.162369   -0.840810
    121          1           0       10.566402    3.219837   -2.018882
    122          1           0       12.605918    1.669849   -2.251215
    123          1           0       12.018323    0.886550   -0.794121
    124          1           0       11.941187    3.440547    0.061137
    125          1           0       14.258290    3.163779   -1.950668
    126          1           0       14.615056    4.205570   -0.600589
    127          1           0       13.179534    4.581339   -1.644553
    128          1           0       14.168601    3.054251    1.207655
    129          1           0       14.062724    1.424068    0.434843
    130          1           0       11.581490    1.720468    1.450250
    131          1           0       12.395788    2.548003    2.637699
    132          1           0       13.945650    0.087380    2.142310
    133          1           0       12.360574   -0.373443    1.779023
    134          1           0       12.681293    1.203949    4.373975
    135          1           0       14.224289    0.143383    5.344314
    136          1           0       14.566334   -0.797367    3.927861
    137          1           0       13.357438   -1.374299    5.165440
    138          1           0       10.801047   -0.506305    3.094988
    139          1           0       10.618000    0.092231    4.761590
    140          1           0       11.314862   -1.503855    4.357066
 ---------------------------------------------------------------------

 SCF Done:  E(RPBE1PBE) =  -3005.37224693     A.U. after   15 cycles

 Excitation energies and oscillator strengths:

 Excited State   1:      Singlet-A      1.8607 eV  666.33 nm  f=0.3603  <S**2>=0.000
     245 -> 248        0.18660
     246 -> 247        0.68979
     246 <- 247       -0.10546
 This state for optimization and/or second-order correction.
 Total Energy, E(TD-HF/TD-DFT) =  -3005.30386726
 Copying the excited state density for this state as the 1-particle RhoCI density.

 Excited State   2:      Singlet-A      2.2381 eV  553.98 nm  f=0.0889  <S**2>=0.000
     245 -> 247        0.64007
     246 -> 248       -0.29374

 Excited State   3:      Singlet-A      3.1294 eV  396.19 nm  f=0.0008  <S**2>=0.000
     240 -> 247        0.16817
     241 -> 247       -0.20760
     243 -> 247        0.54931
     243 -> 249        0.14940
     244 -> 247       -0.27264

 Excited State   4:      Singlet-A      3.2221 eV  384.79 nm  f=0.0441  <S**2>=0.000
     243 -> 247        0.30135
     244 -> 247        0.57967
     246 -> 248       -0.22764

 Excited State   5:      Singlet-A      3.2807 eV  377.92 nm  f=0.1275  <S**2>=0.000
     240 -> 247        0.27160
     241 -> 247        0.49891
     241 -> 249       -0.11170
     243 -> 247        0.13546
     245 -> 247        0.13351
     246 -> 248        0.29505

 The electronic state is 1-A.
 Alpha  occ. eigenvalues --  -46.91950 -19.25863 -19.23748 -19.20184 -19.19164
 Alpha  occ. eigenvalues --  -19.19032 -19.18082 -14.41422 -14.40646 -14.39081
 Alpha  occ. eigenvalues --  -14.39040 -10.36507 -10.35105 -10.32135 -10.32113
 Alpha  occ. eigenvalues --  -10.29804 -10.28448 -10.28357 -10.27919 -10.27808
 Alpha  occ. eigenvalues --  -10.27788 -10.27680 -10.27432 -10.26787 -10.26581
 Alpha  occ. eigenvalues --  -10.26441 -10.25931 -10.25857 -10.25792 -10.25754
 Alpha  occ. eigenvalues --  -10.25653 -10.25036 -10.24924 -10.24899 -10.24840
 Alpha  occ. eigenvalues --  -10.24699 -10.24691 -10.24551 -10.24502 -10.24357
 Alpha  occ. eigenvalues --  -10.24014 -10.23936 -10.23889 -10.23854 -10.23833
 Alpha  occ. eigenvalues --  -10.23637 -10.23584 -10.23512 -10.23480 -10.23436
 Alpha  occ. eigenvalues --  -10.23362 -10.23182 -10.23028 -10.22944 -10.22858
 Alpha  occ. eigenvalues --  -10.22745 -10.22682 -10.22618 -10.22552 -10.22241
 Alpha  occ. eigenvalues --  -10.22129 -10.22102 -10.22028 -10.21790 -10.21658
 Alpha  occ. eigenvalues --  -10.21179  -3.14013  -1.86863  -1.86398  -1.86221
 Alpha  occ. eigenvalues --   -1.11518  -1.09916  -1.06384  -1.04610  -1.02557
 Alpha  occ. eigenvalues --   -1.00424  -0.98353  -0.97592  -0.97340  -0.96518
 Alpha  occ. eigenvalues --   -0.86922  -0.84719  -0.83903  -0.83540  -0.82817
 Alpha  occ. eigenvalues --   -0.82694  -0.81833  -0.81727  -0.81550  -0.81319
 Alpha  occ. eigenvalues --   -0.80420  -0.79977  -0.78712  -0.78061  -0.77670
 Alpha  occ. eigenvalues --   -0.77020  -0.76708  -0.75647  -0.74945  -0.74615
 Alpha  occ. eigenvalues --   -0.74385  -0.72805  -0.72071  -0.71059  -0.70190
 Alpha  occ. eigenvalues --   -0.69918  -0.69692  -0.69272  -0.69199  -0.68343
 Alpha  occ. eigenvalues --   -0.67499  -0.66783  -0.65786  -0.64868  -0.63133
 Alpha  occ. eigenvalues --   -0.62641  -0.62538  -0.61329  -0.61204  -0.59899
 Alpha  occ. eigenvalues --   -0.59802  -0.59484  -0.59031  -0.58519  -0.58188
 Alpha  occ. eigenvalues --   -0.58070  -0.57673  -0.56886  -0.55840  -0.54781
 Alpha  occ. eigenvalues --   -0.54153  -0.53814  -0.53398  -0.52896  -0.52454
 Alpha  occ. eigenvalues --   -0.52163  -0.51098  -0.50579  -0.50191  -0.49872
 Alpha  occ. eigenvalues --   -0.49511  -0.49123  -0.48638  -0.48547  -0.48413
 Alpha  occ. eigenvalues --   -0.48225  -0.48142  -0.47829  -0.47688  -0.47180
 Alpha  occ. eigenvalues --   -0.47134  -0.46669  -0.46512  -0.46453  -0.46169
 Alpha  occ. eigenvalues --   -0.45735  -0.45673  -0.45632  -0.45266  -0.45217
 Alpha  occ. eigenvalues --   -0.45121  -0.44739  -0.44725  -0.44493  -0.44330
 Alpha  occ. eigenvalues --   -0.44016  -0.43797  -0.43652  -0.43571  -0.43377
 Alpha  occ. eigenvalues --   -0.43111  -0.43031  -0.43007  -0.42711  -0.42535
 Alpha  occ. eigenvalues --   -0.42466  -0.42040  -0.41821  -0.41392  -0.41364
 Alpha  occ. eigenvalues --   -0.41192  -0.40858  -0.40602  -0.40513  -0.40446
 Alpha  occ. eigenvalues --   -0.40267  -0.40123  -0.39969  -0.39915  -0.39813
 Alpha  occ. eigenvalues --   -0.39172  -0.38993  -0.38965  -0.38748  -0.38468
 Alpha  occ. eigenvalues --   -0.38181  -0.37978  -0.37947  -0.37738  -0.37542
 Alpha  occ. eigenvalues --   -0.37367  -0.37243  -0.37058  -0.36931  -0.36472
 Alpha  occ. eigenvalues --   -0.36292  -0.36217  -0.36024  -0.35870  -0.35577
 Alpha  occ. eigenvalues --   -0.35556  -0.35380  -0.35128  -0.34838  -0.34787
 Alpha  occ. eigenvalues --   -0.34533  -0.34409  -0.34158  -0.33968  -0.33512
 Alpha  occ. eigenvalues --   -0.33075  -0.32973  -0.32728  -0.32420  -0.32241
 Alpha  occ. eigenvalues --   -0.32039  -0.31843  -0.31500  -0.31381  -0.31174
 Alpha  occ. eigenvalues --   -0.30842  -0.30119  -0.29472  -0.29242  -0.28979
 Alpha  occ. eigenvalues --   -0.28936  -0.28202  -0.27232  -0.26616  -0.25987
 Alpha  occ. eigenvalues --   -0.25762  -0.25731  -0.25583  -0.25453  -0.20571
 Alpha  occ. eigenvalues --   -0.18274
 Alpha virt. eigenvalues --   -0.10645  -0.05053  -0.03686  -0.01723  -0.00511
 Alpha virt. eigenvalues --   -0.00103   0.00642   0.01606   0.02212   0.03209
 Alpha virt. eigenvalues --    0.04254   0.04438   0.05271   0.05678   0.05999

 Mulliken charges:
               1
     1  Mg   0.975133
     2  C   -0.029199
     3  C   -0.057663
     4  C   -0.043591
     5  C   -0.073915
     6  N   -0.385394
     7  C    0.080161
     8  C   -0.184511
     9  C   -0.145532
    10  C    0.048904
    11  C    0.010751
    12  C    0.049035
    13  C   -0.013082
    14  C    0.210917
    15  O   -0.265413
    16  O   -0.371062
    17  N   -0.479450
    18  C    0.165683
    19  C   -0.189959
    20  C   -0.084509
    21  C    0.126651
    22  C    0.051525
    23  C    0.040053
    24  O   -0.215694
    25  C    0.005152
    26  N   -0.390077
    27  C    0.075802
    28  C   -0.146075
    29  C   -0.085519
    30  C    0.088916
    31  C    0.021388
    32  C    0.001394
    33  C   -0.088999
    34  N   -0.483076
    35  C    0.107735
    36  C   -0.190976
    37  C   -0.008309
    38  C    0.161802
    39  C    0.046717
    40  C    0.106110
    41  O   -0.210127
    42  C   -0.070796
    43  C    0.276590
    44  O   -0.276216
    45  O   -0.355021
    46  C    0.138071
    47  C    0.259215
    48  C   -0.126993
    49  C   -0.271992
    50  C    0.011898
    51  C    0.006374
    52  C   -0.009398
    53  C   -0.025830
    54  C   -0.238520
    55  C    0.008912
    56  C    0.017315
    57  C   -0.065076
    58  C   -0.015445
    59  C   -0.224711
    60  C    0.015545
    61  C   -0.007019
    62  C   -0.055373
    63  C   -0.020023
    64  C   -0.252401
    65  C    0.013876
    66  C   -0.009113
    67  H   -0.010104
    68  H    0.026767
    69  H    0.007473
    70  H    0.091011
    71  H    0.053168
    72  H    0.057865
    73  H    0.031815
    74  H    0.068060
    75  H    0.032576
    76  H    0.041097
    77  H    0.056251
    78  H    0.062628
    79  H    0.061400
    80  H    0.053035
    81  H    0.067171
    82  H    0.043617
    83  H    0.071845
    84  H    0.061517
    85  H    0.047930
    86  H    0.032510
    87  H    0.051630
    88  H    0.055046
    89  H    0.049889
    90  H    0.051599
    91  H    0.041213
    92  H    0.030354
    93  H    0.041210
    94  H    0.044963
    95  H    0.057909
    96  H    0.064052
    97  H    0.066705
    98  H    0.080882
    99  H    0.046998
   100  H    0.046905
   101  H    0.061185
   102  H    0.053034
   103  H    0.050421
   104  H    0.020316
   105  H    0.065219
   106  H    0.041718
   107  H    0.058229
   108  H    0.062769
   109  H    0.018399
   110  H    0.045111
   111  H    0.041991
   112  H    0.015165
   113  H    0.025527
   114  H    0.032766
   115  H    0.025268
   116  H    0.044218
   117  H    0.032098
   118  H    0.024548
   119  H    0.024260
   120  H    0.022825
   121  H    0.025453
   122  H    0.025043
   123  H    0.026049
   124  H    0.028916
   125  H    0.035590
   126  H    0.035849
   127  H    0.040515
   128  H    0.026666
   129  H    0.024378
   130  H    0.015522
   131  H    0.025818
   132  H    0.025468
   133  H    0.032695
   134  H    0.039683
   135  H    0.027157
   136  H    0.030012
   137  H    0.030607
   138  H    0.025869
   139  H    0.040649
   140  H    0.030441
 Sum of Mulliken charges =  -0.00000

 Dipole moment (field-independent basis, Debye):
    X=              3.8985    Y=              4.3070    Z=             -3.9102  Tot=              7.0027
 Quadrupole moment (field-independent basis, Debye-Ang):
   XX=           -376.0872   YY=           -419.7368   ZZ=           -400.8564
   XY=            -11.1139   XZ=              2.9192   YZ=             10.7961

 Normal termination of Gaussian 16 at Wed Apr 27 03:48:01 2022.
