 Gaussian 16, Revision A.03,
 Gaussian 16:  ES64L-G16RevA.03 25-Dec-2016

 --------------------------------
 #p wB97XD/Def2SVP td=(nstates=5)
 --------------------------------

 ----------------------------------------------------
 step_1051_chromophore_3 TDDFT with wB97XD functional
 ----------------------------------------------------
 Symbolic Z-matrix:
 Charge =  0 Multiplicity = 1

                         Standard orientation:
 ---------------------------------------------------------------------
 Center     Atomic      Atomic             Coordinates (Angstroms)
 Number     Number       Type             X           Y           Z
 ---------------------------------------------------------------------
      1         12           0       -5.361254    0.847078   -0.289500
      2          6           0       -4.111605   -2.369998   -0.211135
      3          6           0       -2.129964    2.099342    0.030598
      4          6           0       -6.643278    3.873955    0.071634
      5          6           0       -8.627600   -0.587519    0.419915
      6          7           0       -3.325830    0.023708   -0.128259
      7          6           0       -3.136887   -1.345804   -0.312678
      8          6           0       -1.677145   -1.589984   -0.435225
      9          6           0       -0.903479   -0.178105   -0.176375
     10          6           0       -2.182960    0.685798    0.022508
     11          6           0       -0.091129   -0.251732    1.112643
     12          6           0       -1.305910   -2.175748   -1.795781
     13          6           0       -0.278823   -3.373463   -1.719054
     14          6           0        0.794981   -3.381860   -0.654973
     15          8           0        0.897889   -4.118229    0.318259
     16          8           0        1.726886   -2.468975   -1.011868
     17          7           0       -4.513090    2.741435   -0.177086
     18          6           0       -3.180161    3.071931   -0.056199
     19          6           0       -3.027161    4.542922   -0.076305
     20          6           0       -4.342355    5.057884    0.022241
     21          6           0       -5.204010    3.917652   -0.060764
     22          6           0       -1.670413    5.233637   -0.114606
     23          6           0       -4.740947    6.542445    0.201671
     24          8           0       -5.899944    6.819579    0.345671
     25          6           0       -3.758909    7.607852    0.225387
     26          7           0       -7.405791    1.509697    0.017770
     27          6           0       -7.634792    2.868209    0.154029
     28          6           0       -8.989089    3.164745    0.569979
     29          6           0       -9.700946    1.745246    0.319763
     30          6           0       -8.519995    0.762651    0.217777
     31          6           0       -9.067765    3.604577    2.071043
     32          6           0      -10.697281    1.473376   -0.827217
     33          6           0      -12.087125    0.887536   -0.429461
     34          7           0       -6.241472   -1.000407    0.058835
     35          6           0       -7.566339   -1.477530    0.263779
     36          6           0       -7.589929   -2.943314    0.252838
     37          6           0       -6.240555   -3.328363    0.175053
     38          6           0       -5.489035   -2.099601   -0.021991
     39          6           0       -8.733442   -3.886609    0.664471
     40          6           0       -5.330699   -4.435074    0.223562
     41          8           0       -5.553126   -5.614363    0.443078
     42          6           0       -3.911022   -3.862839   -0.180514
     43          6           0       -3.051502   -4.381904    0.866623
     44          8           0       -2.820895   -3.857567    1.957409
     45          8           0       -2.424223   -5.550120    0.550243
     46          6           0       -1.712002   -6.329022    1.513485
     47          6           0        2.950134   -2.341927   -0.183925
     48          6           0        4.027514   -1.935171   -1.141328
     49          6           0        5.180495   -2.582183   -1.499626
     50          6           0        5.571719   -3.904083   -0.779215
     51          6           0        5.944001   -2.107049   -2.775821
     52          6           0        6.369096   -0.681141   -2.904852
     53          6           0        7.920786   -0.494739   -3.217257
     54          6           0        8.766236    0.370580   -2.180546
     55          6           0        9.217211   -0.610061   -1.119522
     56          6           0        9.971199    1.222808   -2.771579
     57          6           0       10.636696    2.176136   -1.711891
     58          6           0       12.050686    1.835979   -1.328154
     59          6           0       12.790807    2.941141   -0.403339
     60          6           0       13.797211    3.802565   -1.196829
     61          6           0       13.510073    2.295842    0.784182
     62          6           0       12.576390    1.773327    1.891691
     63          6           0       12.914404    0.333659    2.395943
     64          6           0       12.665027    0.220775    3.905411
     65          6           0       13.766030   -0.525248    4.616437
     66          6           0       11.269867   -0.451175    4.077377
     67          1           0       -1.091326    2.436555    0.049468
     68          1           0       -7.091907    4.867882    0.008706
     69          1           0       -9.568813   -1.059521    0.710868
     70          1           0       -1.377394   -2.270212    0.362452
     71          1           0       -0.309507    0.079876   -1.053109
     72          1           0       -0.736759    0.042873    1.940667
     73          1           0        0.676594    0.515665    1.026685
     74          1           0        0.416627   -1.203839    1.264639
     75          1           0       -0.849059   -1.420252   -2.434737
     76          1           0       -2.229144   -2.402538   -2.328474
     77          1           0        0.318559   -3.383569   -2.631393
     78          1           0       -0.817477   -4.321121   -1.712670
     79          1           0       -1.688949    6.139924   -0.720868
     80          1           0       -0.814351    4.611900   -0.376329
     81          1           0       -1.606611    5.477392    0.945971
     82          1           0       -4.176398    8.566966    0.532947
     83          1           0       -3.489028    7.823537   -0.807978
     84          1           0       -3.006706    7.381229    0.980270
     85          1           0       -9.421279    3.958179   -0.039905
     86          1           0      -10.189104    1.528927    1.270523
     87          1           0       -9.279757    4.671228    1.992455
     88          1           0       -8.083202    3.518231    2.530119
     89          1           0       -9.794120    3.045712    2.660787
     90          1           0      -10.282445    0.756466   -1.534964
     91          1           0      -10.959203    2.413537   -1.312382
     92          1           0      -12.102125   -0.193905   -0.297310
     93          1           0      -12.742051    0.977897   -1.296553
     94          1           0      -12.478585    1.257193    0.517932
     95          1           0       -9.393523   -4.050736   -0.187841
     96          1           0       -9.107289   -3.328255    1.522824
     97          1           0       -8.337304   -4.854685    0.971116
     98          1           0       -3.580192   -4.194904   -1.164635
     99          1           0       -0.657808   -6.072123    1.607466
    100          1           0       -1.583271   -7.334194    1.111194
    101          1           0       -2.124747   -6.168412    2.509615
    102          1           0        3.203607   -3.270785    0.327217
    103          1           0        2.773081   -1.557304    0.552519
    104          1           0        3.840656   -1.018583   -1.700531
    105          1           0        6.442841   -3.690839   -0.158761
    106          1           0        5.896628   -4.525453   -1.614094
    107          1           0        4.701479   -4.357018   -0.305220
    108          1           0        5.333522   -2.474927   -3.600490
    109          1           0        6.858081   -2.699621   -2.755748
    110          1           0        6.140362   -0.187055   -1.960679
    111          1           0        5.690000   -0.340605   -3.686448
    112          1           0        8.104558    0.053025   -4.142031
    113          1           0        8.419920   -1.428043   -3.480432
    114          1           0        8.059097    1.082492   -1.754920
    115          1           0        8.286726   -1.025516   -0.733048
    116          1           0        9.718172   -0.146548   -0.270534
    117          1           0        9.745271   -1.436148   -1.595782
    118          1           0        9.599161    1.912315   -3.528399
    119          1           0       10.688231    0.592901   -3.297918
    120          1           0        9.981237    2.162369   -0.840810
    121          1           0       10.566402    3.219837   -2.018882
    122          1           0       12.605918    1.669849   -2.251215
    123          1           0       12.018323    0.886550   -0.794121
    124          1           0       11.941187    3.440547    0.061137
    125          1           0       14.258290    3.163779   -1.950668
    126          1           0       14.615056    4.205570   -0.600589
    127          1           0       13.179534    4.581339   -1.644553
    128          1           0       14.168601    3.054251    1.207655
    129          1           0       14.062724    1.424068    0.434843
    130          1           0       11.581490    1.720468    1.450250
    131          1           0       12.395788    2.548003    2.637699
    132          1           0       13.945650    0.087380    2.142310
    133          1           0       12.360574   -0.373443    1.779023
    134          1           0       12.681293    1.203949    4.373975
    135          1           0       14.224289    0.143383    5.344314
    136          1           0       14.566334   -0.797367    3.927861
    137          1           0       13.357438   -1.374299    5.165440
    138          1           0       10.801047   -0.506305    3.094988
    139          1           0       10.618000    0.092231    4.761590
    140          1           0       11.314862   -1.503855    4.357066
 ---------------------------------------------------------------------

 SCF Done:  E(RwB97XD) =  -3007.88286658     A.U. after   17 cycles

 Excitation energies and oscillator strengths:

 Excited State   1:      Singlet-A      1.6385 eV  756.72 nm  f=0.3696  <S**2>=0.000
     245 -> 248        0.19760
     246 -> 247        0.68051
     245 <- 248        0.12070
 This state for optimization and/or second-order correction.
 Total Energy, E(TD-HF/TD-DFT) =  -3007.82265455
 Copying the excited state density for this state as the 1-particle RhoCI density.

 Excited State   2:      Singlet-A      2.1721 eV  570.80 nm  f=0.0861  <S**2>=0.000
     245 -> 247        0.62501
     246 -> 248       -0.32107

 Excited State   3:      Singlet-A      3.4545 eV  358.90 nm  f=0.6503  <S**2>=0.000
     243 -> 247        0.21823
     244 -> 247       -0.14494
     245 -> 247        0.28435
     246 -> 248        0.58679
     245 <- 247       -0.11490

 Excited State   4:      Singlet-A      3.5918 eV  345.18 nm  f=0.0597  <S**2>=0.000
     241 -> 247       -0.14440
     243 -> 249        0.12057
     244 -> 247        0.63013
     246 -> 248        0.15310

 Excited State   5:      Singlet-A      3.6321 eV  341.35 nm  f=0.0399  <S**2>=0.000
     240 -> 247        0.20172
     240 -> 249        0.13192
     241 -> 247        0.40735
     241 -> 249        0.28617
     241 -> 250       -0.14792
     243 -> 247       -0.29311
     244 -> 247        0.13786

 The electronic state is 1-A.
 Alpha  occ. eigenvalues --  -46.94888 -19.30405 -19.28325 -19.24830 -19.23964
 Alpha  occ. eigenvalues --  -19.23900 -19.22812 -14.46526 -14.45699 -14.44077
 Alpha  occ. eigenvalues --  -14.43947 -10.43286 -10.41970 -10.39014 -10.38974
 Alpha  occ. eigenvalues --  -10.36327 -10.34735 -10.34693 -10.34281 -10.34269
 Alpha  occ. eigenvalues --  -10.34254 -10.33842 -10.33589 -10.33277 -10.33157
 Alpha  occ. eigenvalues --  -10.32682 -10.32294 -10.32239 -10.32104 -10.32061
 Alpha  occ. eigenvalues --  -10.31972 -10.31482 -10.31375 -10.31243 -10.31178
 Alpha  occ. eigenvalues --  -10.31120 -10.30954 -10.30851 -10.30787 -10.30634
 Alpha  occ. eigenvalues --  -10.30446 -10.30311 -10.30268 -10.30214 -10.30203
 Alpha  occ. eigenvalues --  -10.30092 -10.29974 -10.29897 -10.29883 -10.29729
 Alpha  occ. eigenvalues --  -10.29720 -10.29547 -10.29376 -10.29368 -10.29134
 Alpha  occ. eigenvalues --  -10.29096 -10.29071 -10.28937 -10.28843 -10.28591
 Alpha  occ. eigenvalues --  -10.28583 -10.28545 -10.28398 -10.28163 -10.28077
 Alpha  occ. eigenvalues --  -10.27601  -3.20816  -1.94414  -1.93947  -1.93769
 Alpha  occ. eigenvalues --   -1.18881  -1.17324  -1.13902  -1.12084  -1.09880
 Alpha  occ. eigenvalues --   -1.07815  -1.05759  -1.04968  -1.04746  -1.03867
 Alpha  occ. eigenvalues --   -0.94538  -0.92394  -0.91579  -0.91179  -0.90479
 Alpha  occ. eigenvalues --   -0.90286  -0.89452  -0.89392  -0.89235  -0.88920
 Alpha  occ. eigenvalues --   -0.88004  -0.87627  -0.86377  -0.85651  -0.85357
 Alpha  occ. eigenvalues --   -0.84763  -0.84368  -0.83274  -0.82595  -0.82259
 Alpha  occ. eigenvalues --   -0.82010  -0.80501  -0.79704  -0.78628  -0.77800
 Alpha  occ. eigenvalues --   -0.77597  -0.77386  -0.76941  -0.76796  -0.76014
 Alpha  occ. eigenvalues --   -0.75085  -0.74334  -0.73322  -0.72476  -0.70675
 Alpha  occ. eigenvalues --   -0.70252  -0.70098  -0.68961  -0.68786  -0.67459
 Alpha  occ. eigenvalues --   -0.67414  -0.66971  -0.66466  -0.65975  -0.65873
 Alpha  occ. eigenvalues --   -0.65553  -0.65321  -0.64524  -0.63227  -0.62258
 Alpha  occ. eigenvalues --   -0.61651  -0.61268  -0.60846  -0.60297  -0.59915
 Alpha  occ. eigenvalues --   -0.59572  -0.58601  -0.58030  -0.57614  -0.57272
 Alpha  occ. eigenvalues --   -0.56963  -0.56532  -0.56177  -0.56045  -0.55780
 Alpha  occ. eigenvalues --   -0.55665  -0.55523  -0.55276  -0.55014  -0.54577
 Alpha  occ. eigenvalues --   -0.54509  -0.54024  -0.53905  -0.53801  -0.53460
 Alpha  occ. eigenvalues --   -0.53142  -0.53095  -0.52996  -0.52578  -0.52512
 Alpha  occ. eigenvalues --   -0.52480  -0.52167  -0.52027  -0.51800  -0.51637
 Alpha  occ. eigenvalues --   -0.51327  -0.51118  -0.50985  -0.50884  -0.50672
 Alpha  occ. eigenvalues --   -0.50401  -0.50335  -0.50312  -0.50038  -0.49828
 Alpha  occ. eigenvalues --   -0.49722  -0.49337  -0.49067  -0.48623  -0.48615
 Alpha  occ. eigenvalues --   -0.48437  -0.48064  -0.47764  -0.47662  -0.47611
 Alpha  occ. eigenvalues --   -0.47519  -0.47302  -0.47196  -0.47088  -0.46985
 Alpha  occ. eigenvalues --   -0.46328  -0.46144  -0.46113  -0.45902  -0.45606
 Alpha  occ. eigenvalues --   -0.45353  -0.45164  -0.45112  -0.44853  -0.44646
 Alpha  occ. eigenvalues --   -0.44490  -0.44480  -0.44114  -0.44041  -0.43640
 Alpha  occ. eigenvalues --   -0.43382  -0.43328  -0.43047  -0.43000  -0.42653
 Alpha  occ. eigenvalues --   -0.42608  -0.42358  -0.42110  -0.41981  -0.41861
 Alpha  occ. eigenvalues --   -0.41575  -0.41477  -0.41140  -0.40991  -0.40539
 Alpha  occ. eigenvalues --   -0.40080  -0.39956  -0.39600  -0.39422  -0.39299
 Alpha  occ. eigenvalues --   -0.38944  -0.38885  -0.38529  -0.38456  -0.38176
 Alpha  occ. eigenvalues --   -0.37694  -0.36990  -0.36354  -0.36317  -0.36045
 Alpha  occ. eigenvalues --   -0.35774  -0.34881  -0.34428  -0.33345  -0.32941
 Alpha  occ. eigenvalues --   -0.32715  -0.32465  -0.32348  -0.32024  -0.25565
 Alpha  occ. eigenvalues --   -0.22391
 Alpha virt. eigenvalues --   -0.06516   0.00316   0.02610   0.04767   0.05770
 Alpha virt. eigenvalues --    0.06192   0.07461   0.08346   0.09038   0.09698
 Alpha virt. eigenvalues --    0.10599   0.11049   0.12152   0.12442   0.12743

 Mulliken charges:
               1
     1  Mg   0.965543
     2  C   -0.040945
     3  C   -0.074205
     4  C   -0.060614
     5  C   -0.093944
     6  N   -0.348853
     7  C    0.053032
     8  C   -0.153298
     9  C   -0.118647
    10  C    0.031323
    11  C    0.022202
    12  C    0.055730
    13  C    0.006455
    14  C    0.194104
    15  O   -0.259906
    16  O   -0.368808
    17  N   -0.448719
    18  C    0.160724
    19  C   -0.180485
    20  C   -0.077598
    21  C    0.119594
    22  C    0.064513
    23  C    0.037066
    24  O   -0.210350
    25  C    0.012471
    26  N   -0.358099
    27  C    0.067297
    28  C   -0.120996
    29  C   -0.059033
    30  C    0.078302
    31  C    0.029702
    32  C    0.014104
    33  C   -0.072366
    34  N   -0.445967
    35  C    0.103069
    36  C   -0.194360
    37  C   -0.007087
    38  C    0.144785
    39  C    0.060148
    40  C    0.090629
    41  O   -0.200800
    42  C   -0.028549
    43  C    0.249380
    44  O   -0.268246
    45  O   -0.351132
    46  C    0.152320
    47  C    0.275480
    48  C   -0.136293
    49  C   -0.262028
    50  C    0.029303
    51  C    0.026386
    52  C    0.006044
    53  C   -0.010686
    54  C   -0.204309
    55  C    0.025726
    56  C    0.025715
    57  C   -0.044328
    58  C    0.000149
    59  C   -0.191437
    60  C    0.029143
    61  C    0.009451
    62  C   -0.038167
    63  C    0.000671
    64  C   -0.224104
    65  C    0.025283
    66  C    0.003463
    67  H   -0.017973
    68  H    0.021204
    69  H    0.002473
    70  H    0.069565
    71  H    0.045452
    72  H    0.053309
    73  H    0.025940
    74  H    0.058001
    75  H    0.025407
    76  H    0.032728
    77  H    0.050780
    78  H    0.056363
    79  H    0.056326
    80  H    0.050138
    81  H    0.060806
    82  H    0.042754
    83  H    0.068305
    84  H    0.056319
    85  H    0.039989
    86  H    0.017055
    87  H    0.046539
    88  H    0.048296
    89  H    0.045277
    90  H    0.043143
    91  H    0.033037
    92  H    0.023026
    93  H    0.035914
    94  H    0.038942
    95  H    0.053127
    96  H    0.057445
    97  H    0.063271
    98  H    0.074199
    99  H    0.042685
   100  H    0.043494
   101  H    0.057730
   102  H    0.046527
   103  H    0.045605
   104  H    0.016101
   105  H    0.059716
   106  H    0.035107
   107  H    0.052944
   108  H    0.055953
   109  H    0.005807
   110  H    0.033247
   111  H    0.036329
   112  H    0.006843
   113  H    0.015998
   114  H    0.020395
   115  H    0.014376
   116  H    0.035823
   117  H    0.024877
   118  H    0.017035
   119  H    0.016473
   120  H    0.010203
   121  H    0.017445
   122  H    0.015504
   123  H    0.010440
   124  H    0.014662
   125  H    0.028628
   126  H    0.030506
   127  H    0.034697
   128  H    0.018227
   129  H    0.013066
   130  H   -0.000107
   131  H    0.018671
   132  H    0.014115
   133  H    0.022747
   134  H    0.028699
   135  H    0.021661
   136  H    0.023788
   137  H    0.024317
   138  H    0.017379
   139  H    0.035960
   140  H    0.024222
 Sum of Mulliken charges =  -0.00000

 Dipole moment (field-independent basis, Debye):
    X=              4.0895    Y=              4.4901    Z=             -3.9450  Tot=              7.2421
 Quadrupole moment (field-independent basis, Debye-Ang):
   XX=           -377.9752   YY=           -417.6957   ZZ=           -400.4965
   XY=            -11.3484   XZ=              3.3530   YZ=             10.7801

 Normal termination of Gaussian 16 at Wed Apr 27 04:15:04 2022.
