 Gaussian 16, Revision A.03,
 Gaussian 16:  ES64L-G16RevA.03 25-Dec-2016

 --------------------
 #p ZINDO=(nstates=5)
 --------------------

 -----------------------------
 step_1051_chromophore_3 ZINDO
 -----------------------------
 Symbolic Z-matrix:
 Charge =  0 Multiplicity = 1

                         Standard orientation:
 ---------------------------------------------------------------------
 Center     Atomic      Atomic             Coordinates (Angstroms)
 Number     Number       Type             X           Y           Z
 ---------------------------------------------------------------------
      1         12           0       -5.361254    0.847078   -0.289500
      2          6           0       -4.111605   -2.369998   -0.211135
      3          6           0       -2.129964    2.099342    0.030598
      4          6           0       -6.643278    3.873955    0.071634
      5          6           0       -8.627600   -0.587519    0.419915
      6          7           0       -3.325830    0.023708   -0.128259
      7          6           0       -3.136887   -1.345804   -0.312678
      8          6           0       -1.677145   -1.589984   -0.435225
      9          6           0       -0.903479   -0.178105   -0.176375
     10          6           0       -2.182960    0.685798    0.022508
     11          6           0       -0.091129   -0.251732    1.112643
     12          6           0       -1.305910   -2.175748   -1.795781
     13          6           0       -0.278823   -3.373463   -1.719054
     14          6           0        0.794981   -3.381860   -0.654973
     15          8           0        0.897889   -4.118229    0.318259
     16          8           0        1.726886   -2.468975   -1.011868
     17          7           0       -4.513090    2.741435   -0.177086
     18          6           0       -3.180161    3.071931   -0.056199
     19          6           0       -3.027161    4.542922   -0.076305
     20          6           0       -4.342355    5.057884    0.022241
     21          6           0       -5.204010    3.917652   -0.060764
     22          6           0       -1.670413    5.233637   -0.114606
     23          6           0       -4.740947    6.542445    0.201671
     24          8           0       -5.899944    6.819579    0.345671
     25          6           0       -3.758909    7.607852    0.225387
     26          7           0       -7.405791    1.509697    0.017770
     27          6           0       -7.634792    2.868209    0.154029
     28          6           0       -8.989089    3.164745    0.569979
     29          6           0       -9.700946    1.745246    0.319763
     30          6           0       -8.519995    0.762651    0.217777
     31          6           0       -9.067765    3.604577    2.071043
     32          6           0      -10.697281    1.473376   -0.827217
     33          6           0      -12.087125    0.887536   -0.429461
     34          7           0       -6.241472   -1.000407    0.058835
     35          6           0       -7.566339   -1.477530    0.263779
     36          6           0       -7.589929   -2.943314    0.252838
     37          6           0       -6.240555   -3.328363    0.175053
     38          6           0       -5.489035   -2.099601   -0.021991
     39          6           0       -8.733442   -3.886609    0.664471
     40          6           0       -5.330699   -4.435074    0.223562
     41          8           0       -5.553126   -5.614363    0.443078
     42          6           0       -3.911022   -3.862839   -0.180514
     43          6           0       -3.051502   -4.381904    0.866623
     44          8           0       -2.820895   -3.857567    1.957409
     45          8           0       -2.424223   -5.550120    0.550243
     46          6           0       -1.712002   -6.329022    1.513485
     47          6           0        2.950134   -2.341927   -0.183925
     48          6           0        4.027514   -1.935171   -1.141328
     49          6           0        5.180495   -2.582183   -1.499626
     50          6           0        5.571719   -3.904083   -0.779215
     51          6           0        5.944001   -2.107049   -2.775821
     52          6           0        6.369096   -0.681141   -2.904852
     53          6           0        7.920786   -0.494739   -3.217257
     54          6           0        8.766236    0.370580   -2.180546
     55          6           0        9.217211   -0.610061   -1.119522
     56          6           0        9.971199    1.222808   -2.771579
     57          6           0       10.636696    2.176136   -1.711891
     58          6           0       12.050686    1.835979   -1.328154
     59          6           0       12.790807    2.941141   -0.403339
     60          6           0       13.797211    3.802565   -1.196829
     61          6           0       13.510073    2.295842    0.784182
     62          6           0       12.576390    1.773327    1.891691
     63          6           0       12.914404    0.333659    2.395943
     64          6           0       12.665027    0.220775    3.905411
     65          6           0       13.766030   -0.525248    4.616437
     66          6           0       11.269867   -0.451175    4.077377
     67          1           0       -1.091326    2.436555    0.049468
     68          1           0       -7.091907    4.867882    0.008706
     69          1           0       -9.568813   -1.059521    0.710868
     70          1           0       -1.377394   -2.270212    0.362452
     71          1           0       -0.309507    0.079876   -1.053109
     72          1           0       -0.736759    0.042873    1.940667
     73          1           0        0.676594    0.515665    1.026685
     74          1           0        0.416627   -1.203839    1.264639
     75          1           0       -0.849059   -1.420252   -2.434737
     76          1           0       -2.229144   -2.402538   -2.328474
     77          1           0        0.318559   -3.383569   -2.631393
     78          1           0       -0.817477   -4.321121   -1.712670
     79          1           0       -1.688949    6.139924   -0.720868
     80          1           0       -0.814351    4.611900   -0.376329
     81          1           0       -1.606611    5.477392    0.945971
     82          1           0       -4.176398    8.566966    0.532947
     83          1           0       -3.489028    7.823537   -0.807978
     84          1           0       -3.006706    7.381229    0.980270
     85          1           0       -9.421279    3.958179   -0.039905
     86          1           0      -10.189104    1.528927    1.270523
     87          1           0       -9.279757    4.671228    1.992455
     88          1           0       -8.083202    3.518231    2.530119
     89          1           0       -9.794120    3.045712    2.660787
     90          1           0      -10.282445    0.756466   -1.534964
     91          1           0      -10.959203    2.413537   -1.312382
     92          1           0      -12.102125   -0.193905   -0.297310
     93          1           0      -12.742051    0.977897   -1.296553
     94          1           0      -12.478585    1.257193    0.517932
     95          1           0       -9.393523   -4.050736   -0.187841
     96          1           0       -9.107289   -3.328255    1.522824
     97          1           0       -8.337304   -4.854685    0.971116
     98          1           0       -3.580192   -4.194904   -1.164635
     99          1           0       -0.657808   -6.072123    1.607466
    100          1           0       -1.583271   -7.334194    1.111194
    101          1           0       -2.124747   -6.168412    2.509615
    102          1           0        3.203607   -3.270785    0.327217
    103          1           0        2.773081   -1.557304    0.552519
    104          1           0        3.840656   -1.018583   -1.700531
    105          1           0        6.442841   -3.690839   -0.158761
    106          1           0        5.896628   -4.525453   -1.614094
    107          1           0        4.701479   -4.357018   -0.305220
    108          1           0        5.333522   -2.474927   -3.600490
    109          1           0        6.858081   -2.699621   -2.755748
    110          1           0        6.140362   -0.187055   -1.960679
    111          1           0        5.690000   -0.340605   -3.686448
    112          1           0        8.104558    0.053025   -4.142031
    113          1           0        8.419920   -1.428043   -3.480432
    114          1           0        8.059097    1.082492   -1.754920
    115          1           0        8.286726   -1.025516   -0.733048
    116          1           0        9.718172   -0.146548   -0.270534
    117          1           0        9.745271   -1.436148   -1.595782
    118          1           0        9.599161    1.912315   -3.528399
    119          1           0       10.688231    0.592901   -3.297918
    120          1           0        9.981237    2.162369   -0.840810
    121          1           0       10.566402    3.219837   -2.018882
    122          1           0       12.605918    1.669849   -2.251215
    123          1           0       12.018323    0.886550   -0.794121
    124          1           0       11.941187    3.440547    0.061137
    125          1           0       14.258290    3.163779   -1.950668
    126          1           0       14.615056    4.205570   -0.600589
    127          1           0       13.179534    4.581339   -1.644553
    128          1           0       14.168601    3.054251    1.207655
    129          1           0       14.062724    1.424068    0.434843
    130          1           0       11.581490    1.720468    1.450250
    131          1           0       12.395788    2.548003    2.637699
    132          1           0       13.945650    0.087380    2.142310
    133          1           0       12.360574   -0.373443    1.779023
    134          1           0       12.681293    1.203949    4.373975
    135          1           0       14.224289    0.143383    5.344314
    136          1           0       14.566334   -0.797367    3.927861
    137          1           0       13.357438   -1.374299    5.165440
    138          1           0       10.801047   -0.506305    3.094988
    139          1           0       10.618000    0.092231    4.761590
    140          1           0       11.314862   -1.503855    4.357066
 ---------------------------------------------------------------------

 SCF Done:  E(RZINDO/S) =  -474.351191358     A.U. after   21 cycles

 Excitation energies and oscillator strengths:

 Excited State   1:      Singlet-A      1.2249 eV 1012.17 nm  f=0.5992  <S**2>=0.000
     175 ->178        -0.19737
     176 ->177         0.66055
 This state for optimization and/or second-order correction.
 Total Energy, E(CIS/TDA) =  -474.306176004
 Copying the excited state density for this state as the 1-particle RhoCI density.

 Excited State   2:      Singlet-A      1.8898 eV  656.08 nm  f=0.0175  <S**2>=0.000
     175 ->177         0.51778
     176 ->178         0.45660

 Excited State   3:      Singlet-A      2.8424 eV  436.20 nm  f=0.3601  <S**2>=0.000
     175 ->177        -0.27747
     176 ->178         0.38755
     176 ->179         0.47030

 Excited State   4:      Singlet-A      2.9706 eV  417.38 nm  f=0.0654  <S**2>=0.000
     169 ->177         0.30915
     169 ->178         0.16648
     169 ->179         0.35851
     169 ->180        -0.25122
     169 ->186         0.14617
     169 ->187         0.12243

 Excited State   5:      Singlet-A      3.0171 eV  410.94 nm  f=0.0010  <S**2>=0.000
     168 ->177         0.25905
     168 ->179        -0.32497
     168 ->180        -0.40338
     168 ->184         0.11838
     168 ->186        -0.25060
     168 ->187         0.13136

 The electronic state is 1-A.
 Alpha  occ. eigenvalues --   -1.83042  -1.80522  -1.79872  -1.73793  -1.72545
 Alpha  occ. eigenvalues --   -1.70119  -1.64778  -1.61840  -1.60392  -1.58321
 Alpha  occ. eigenvalues --   -1.55440  -1.51019  -1.48653  -1.46667  -1.45182
 Alpha  occ. eigenvalues --   -1.44556  -1.41858  -1.39659  -1.38929  -1.38618
 Alpha  occ. eigenvalues --   -1.36165  -1.33041  -1.32693  -1.31376  -1.28310
 Alpha  occ. eigenvalues --   -1.27906  -1.24761  -1.22841  -1.21076  -1.17636
 Alpha  occ. eigenvalues --   -1.16922  -1.16544  -1.14977  -1.14717  -1.12318
 Alpha  occ. eigenvalues --   -1.11683  -1.11088  -1.10626  -1.05251  -1.03678
 Alpha  occ. eigenvalues --   -1.02131  -1.01323  -0.98520  -0.97370  -0.96202
 Alpha  occ. eigenvalues --   -0.95228  -0.94911  -0.93930  -0.92669  -0.91844
 Alpha  occ. eigenvalues --   -0.90906  -0.90429  -0.89475  -0.88363  -0.86573
 Alpha  occ. eigenvalues --   -0.86239  -0.84165  -0.83155  -0.81914  -0.79642
 Alpha  occ. eigenvalues --   -0.79262  -0.78829  -0.77179  -0.76276  -0.75982
 Alpha  occ. eigenvalues --   -0.75887  -0.74680  -0.74236  -0.73689  -0.73090
 Alpha  occ. eigenvalues --   -0.72821  -0.72096  -0.71671  -0.71305  -0.71105
 Alpha  occ. eigenvalues --   -0.70505  -0.69077  -0.68566  -0.68304  -0.67735
 Alpha  occ. eigenvalues --   -0.67695  -0.67344  -0.66835  -0.66240  -0.65810
 Alpha  occ. eigenvalues --   -0.65127  -0.64257  -0.63988  -0.63556  -0.63448
 Alpha  occ. eigenvalues --   -0.63306  -0.62806  -0.62638  -0.62469  -0.61918
 Alpha  occ. eigenvalues --   -0.61337  -0.60896  -0.60845  -0.60280  -0.59858
 Alpha  occ. eigenvalues --   -0.59675  -0.59522  -0.59003  -0.58609  -0.58486
 Alpha  occ. eigenvalues --   -0.57851  -0.57621  -0.57233  -0.56910  -0.56666
 Alpha  occ. eigenvalues --   -0.56216  -0.55941  -0.55582  -0.55160  -0.54893
 Alpha  occ. eigenvalues --   -0.54104  -0.53972  -0.53299  -0.52685  -0.52291
 Alpha  occ. eigenvalues --   -0.52076  -0.51775  -0.51349  -0.50928  -0.50870
 Alpha  occ. eigenvalues --   -0.50537  -0.50507  -0.50345  -0.50242  -0.49956
 Alpha  occ. eigenvalues --   -0.49604  -0.49371  -0.49123  -0.48812  -0.48463
 Alpha  occ. eigenvalues --   -0.48405  -0.48364  -0.47783  -0.47595  -0.47560
 Alpha  occ. eigenvalues --   -0.47050  -0.46720  -0.46567  -0.46463  -0.46245
 Alpha  occ. eigenvalues --   -0.46058  -0.45877  -0.45794  -0.45544  -0.45228
 Alpha  occ. eigenvalues --   -0.45219  -0.44794  -0.44175  -0.44165  -0.43582
 Alpha  occ. eigenvalues --   -0.43547  -0.42883  -0.42780  -0.42250  -0.42023
 Alpha  occ. eigenvalues --   -0.41820  -0.41111  -0.39601  -0.38713  -0.38015
 Alpha  occ. eigenvalues --   -0.37156  -0.36445  -0.35081  -0.34775  -0.34311
 Alpha  occ. eigenvalues --   -0.33038  -0.32457  -0.32121  -0.31832  -0.26254
 Alpha  occ. eigenvalues --   -0.21101
 Alpha virt. eigenvalues --   -0.08018  -0.01975  -0.00185   0.01587   0.02162
 Alpha virt. eigenvalues --    0.02296   0.03119   0.03820   0.04346   0.05079
 Alpha virt. eigenvalues --    0.06570   0.07139   0.07565   0.08361   0.08484

 Mulliken charges:
               1
     1  Mg   0.429016
     2  C   -0.043958
     3  C   -0.085711
     4  C   -0.084049
     5  C   -0.061160
     6  N   -0.271616
     7  C    0.113437
     8  C   -0.002180
     9  C   -0.005946
    10  C    0.141798
    11  C   -0.046687
    12  C   -0.019010
    13  C    0.003181
    14  C    0.478218
    15  O   -0.518354
    16  O   -0.273228
    17  N   -0.324931
    18  C    0.106922
    19  C    0.010446
    20  C   -0.046951
    21  C    0.145427
    22  C   -0.042845
    23  C    0.336868
    24  O   -0.516722
    25  C   -0.026647
    26  N   -0.286789
    27  C    0.156958
    28  C    0.012807
    29  C   -0.010260
    30  C    0.126511
    31  C   -0.048693
    32  C   -0.022698
    33  C   -0.063177
    34  N   -0.320410
    35  C    0.083322
    36  C    0.013122
    37  C   -0.062168
    38  C    0.112438
    39  C   -0.043407
    40  C    0.341422
    41  O   -0.518193
    42  C    0.068158
    43  C    0.499591
    44  O   -0.546134
    45  O   -0.274488
    46  C    0.076807
    47  C    0.109703
    48  C   -0.096093
    49  C   -0.025044
    50  C   -0.048275
    51  C   -0.015807
    52  C   -0.023791
    53  C   -0.044062
    54  C   -0.010632
    55  C   -0.054190
    56  C   -0.037526
    57  C   -0.032495
    58  C   -0.035782
    59  C   -0.021409
    60  C   -0.054265
    61  C   -0.035859
    62  C   -0.047328
    63  C   -0.028635
    64  C   -0.006895
    65  C   -0.057575
    66  C   -0.060074
    67  H    0.018605
    68  H    0.033361
    69  H    0.029849
    70  H    0.047931
    71  H    0.040562
    72  H    0.031501
    73  H    0.007308
    74  H    0.035729
    75  H    0.019565
    76  H    0.024533
    77  H    0.030514
    78  H    0.037022
    79  H    0.030536
    80  H    0.032233
    81  H    0.034453
    82  H    0.028656
    83  H    0.048105
    84  H    0.039734
    85  H    0.033287
    86  H    0.020729
    87  H    0.023770
    88  H    0.027895
    89  H    0.029781
    90  H    0.028553
    91  H    0.019154
    92  H    0.011498
    93  H    0.018715
    94  H    0.026201
    95  H    0.035236
    96  H    0.036185
    97  H    0.037233
    98  H    0.056212
    99  H    0.035523
   100  H    0.035765
   101  H    0.056543
   102  H    0.057852
   103  H    0.042039
   104  H    0.020331
   105  H    0.036939
   106  H    0.020479
   107  H    0.040971
   108  H    0.030061
   109  H    0.011497
   110  H    0.026546
   111  H    0.025461
   112  H    0.005531
   113  H    0.024608
   114  H    0.019362
   115  H    0.008332
   116  H    0.020632
   117  H    0.024833
   118  H    0.009993
   119  H    0.023969
   120  H    0.013593
   121  H    0.015095
   122  H    0.018032
   123  H    0.018372
   124  H    0.023870
   125  H    0.021463
   126  H    0.023671
   127  H    0.018912
   128  H    0.016516
   129  H    0.019240
   130  H    0.007584
   131  H    0.022807
   132  H    0.012480
   133  H    0.021961
   134  H    0.024494
   135  H    0.010755
   136  H    0.021025
   137  H    0.021005
   138  H    0.013742
   139  H    0.019545
   140  H    0.019923
 Sum of Mulliken charges =  -0.00000

 Dipole moment (field-independent basis, Debye):
    X=              4.9169    Y=              5.3298    Z=             -5.6777  Tot=              9.2098
 N-N= 4.310165242158D+03 E-N= 0.000000000000D+00  KE=-9.295482283481D+03
 Leave Link  601 at Wed Apr 27 04:26:26 2022, MaxMem=  6710886400 cpu:               3.1 elap:               0.2
 (Enter /sw/apps/gaussian-16.0/g16/l9999.exe)
 1\1\GINC-BP1-COMPUTE215\SP\RZINDO CIS\STO-3G\C55H74Mg1N4O6\OF15641\27-
 Apr-2022\0\\#p ZINDO=(nstates=5)\\step_1051_chromophore_3 ZINDO\\0,1\M
 g,0,1.669,8.235,26.938\C,0,2.01,10.279,29.699\C,0,2.505,5.477,28.889\C
 ,0,1.759,6.402,24.187\C,0,1.845,11.244,24.902\N,0,2.183,7.851,29.044\C
 ,0,2.056,8.888,29.968\C,0,2.184,8.303,31.327\C,0,2.545,6.721,31.166\C,
 0,2.512,6.694,29.61\C,0,3.953,6.447,31.685\C,0,0.915,8.493,32.155\C,0,
 1.183,8.957,33.641\C,0,2.412,8.471,34.375\O,0,3.401,9.11,34.712\O,0,2.

 Normal termination of Gaussian 16 at Wed Apr 27 04:26:26 2022.
