 Gaussian 16, Revision A.03,
 Gaussian 16:  ES64L-G16RevA.03 25-Dec-2016

 ------------------------------
 #p blyp/Def2SVP td=(nstates=5)
 ------------------------------

 --------------------------------------------------
 step_801_chromophore_18 TDDFT with blyp functional
 --------------------------------------------------
 Symbolic Z-matrix:
 Charge =  0 Multiplicity = 1

                         Standard orientation:
 ---------------------------------------------------------------------
 Center     Atomic      Atomic             Coordinates (Angstroms)
 Number     Number       Type             X           Y           Z
 ---------------------------------------------------------------------
      1         12           0        5.266261    1.291435    0.178671
      2          6           0        4.924315   -2.273428    0.270375
      3          6           0        1.820739    1.575495   -0.096888
      4          6           0        5.887025    4.409338   -0.186205
      5          6           0        8.763555    0.634667   -0.150473
      6          7           0        3.600652   -0.211592    0.071465
      7          6           0        3.676138   -1.614931    0.156561
      8          6           0        2.235819   -2.189287    0.116763
      9          6           0        1.378111   -0.980298   -0.230500
     10          6           0        2.269677    0.234150   -0.019142
     11          6           0        0.673086   -1.037224   -1.647697
     12          6           0        1.884641   -2.897357    1.522517
     13          6           0        1.175376   -4.215703    1.510413
     14          6           0        0.178154   -4.341612    0.333098
     15          8           0        0.297302   -5.121584   -0.613577
     16          8           0       -0.909283   -3.502134    0.466301
     17          7           0        3.988205    2.829854   -0.045304
     18          6           0        2.571480    2.790234   -0.163541
     19          6           0        2.117453    4.140202   -0.297987
     20          6           0        3.325430    4.970098   -0.262799
     21          6           0        4.465544    4.094664   -0.201502
     22          6           0        0.648419    4.467859   -0.422733
     23          6           0        3.392688    6.480069   -0.245317
     24          8           0        4.409251    7.168021   -0.333623
     25          6           0        2.114647    7.378411   -0.233415
     26          7           0        7.057820    2.427292   -0.064777
     27          6           0        7.052998    3.706688   -0.079806
     28          6           0        8.399541    4.408845    0.154460
     29          6           0        9.377271    3.187243   -0.059901
     30          6           0        8.351355    1.970010   -0.118442
     31          6           0        8.684179    5.504562   -0.948096
     32          6           0       10.428656    3.005768    1.090642
     33          6           0       10.011323    2.283661    2.342787
     34          7           0        6.616291   -0.384909    0.093831
     35          6           0        7.999470   -0.473069   -0.000812
     36          6           0        8.420936   -1.886845    0.089109
     37          6           0        7.198480   -2.579127    0.198531
     38          6           0        6.207844   -1.663041    0.191767
     39          6           0        9.799586   -2.384431    0.145595
     40          6           0        6.601469   -3.969200    0.286525
     41          8           0        7.202247   -5.086877    0.263863
     42          6           0        5.113986   -3.812586    0.300231
     43          6           0        4.536434   -4.571592   -0.853595
     44          8           0        4.597090   -4.257240   -2.051540
     45          8           0        3.994728   -5.741887   -0.410117
     46          6           0        3.604177   -6.755258   -1.406598
     47          6           0       -1.812368   -3.717265   -0.631600
     48          6           0       -2.979666   -2.727708   -0.510860
     49          6           0       -4.178447   -2.787373   -1.102189
     50          6           0       -4.548052   -3.846602   -2.137118
     51          6           0       -5.245608   -1.651773   -0.919125
     52          6           0       -6.370995   -2.161100    0.028543
     53          6           0       -6.837951   -0.907891    0.777316
     54          6           0       -8.368221   -0.981331    1.360241
     55          6           0       -8.474887   -1.047379    2.867418
     56          6           0       -9.176895    0.140305    0.708075
     57          6           0      -10.420022   -0.362978   -0.034921
     58          6           0      -11.567356   -0.751405    0.893189
     59          6           0      -12.548626    0.387281    1.269124
     60          6           0      -12.767772    0.584934    2.807748
     61          6           0      -13.930597    0.103653    0.688131
     62          6           0      -14.780984    1.382336    0.490036
     63          6           0      -15.067519    1.711930   -0.948160
     64          6           0      -16.047165    2.910103   -1.048290
     65          6           0      -17.436770    2.498385   -1.649100
     66          6           0      -15.395787    4.111858   -1.799336
     67          1           0        0.732103    1.615629   -0.021960
     68          1           0        6.077996    5.475476   -0.324394
     69          1           0        9.843125    0.470841   -0.161668
     70          1           0        2.021210   -2.957920   -0.625922
     71          1           0        0.621747   -0.881480    0.548503
     72          1           0        0.867372   -0.088078   -2.147031
     73          1           0       -0.390305   -1.090747   -1.416204
     74          1           0        0.935578   -1.955176   -2.173236
     75          1           0        1.219344   -2.260115    2.105839
     76          1           0        2.847960   -2.903123    2.031568
     77          1           0        0.619943   -4.328393    2.441729
     78          1           0        1.967608   -4.955875    1.399386
     79          1           0        0.214600    5.223477    0.231647
     80          1           0       -0.061384    3.686579   -0.152124
     81          1           0        0.443588    4.878135   -1.411927
     82          1           0        2.449588    8.343608   -0.614093
     83          1           0        1.645960    7.494210    0.743699
     84          1           0        1.432460    6.881866   -0.923026
     85          1           0        8.526720    4.850052    1.142717
     86          1           0        9.862103    3.199497   -1.036081
     87          1           0        7.998843    6.322476   -0.725649
     88          1           0        8.545641    5.023644   -1.916505
     89          1           0        9.718386    5.828486   -1.071950
     90          1           0       10.744409    3.983915    1.453405
     91          1           0       11.367565    2.546510    0.783717
     92          1           0        8.957437    2.013161    2.274588
     93          1           0        9.996309    2.897100    3.244104
     94          1           0       10.537500    1.373579    2.628783
     95          1           0        9.845303   -3.469458    0.227288
     96          1           0       10.373102   -1.888804    0.928365
     97          1           0       10.246872   -2.127158   -0.814788
     98          1           0        4.619886   -4.198661    1.192263
     99          1           0        2.621780   -6.530070   -1.823107
    100          1           0        3.386743   -7.664652   -0.847023
    101          1           0        4.386088   -6.911651   -2.150141
    102          1           0       -2.192976   -4.737923   -0.684261
    103          1           0       -1.508693   -3.578440   -1.668819
    104          1           0       -2.931065   -1.944161    0.246257
    105          1           0       -5.256898   -3.542552   -2.906843
    106          1           0       -5.012625   -4.677497   -1.606268
    107          1           0       -3.648383   -4.166365   -2.661500
    108          1           0       -5.818026   -1.577300   -1.843873
    109          1           0       -4.722127   -0.700076   -0.834498
    110          1           0       -6.055535   -2.914377    0.751006
    111          1           0       -7.108072   -2.583631   -0.655240
    112          1           0       -6.664988    0.009288    0.213409
    113          1           0       -6.236834   -0.855057    1.684510
    114          1           0       -8.809690   -1.949991    1.126890
    115          1           0       -9.282609   -0.407731    3.220885
    116          1           0       -7.546075   -0.638941    3.266467
    117          1           0       -8.526751   -2.072492    3.233299
    118          1           0       -8.608753    0.830687    0.082839
    119          1           0       -9.527374    0.670009    1.593976
    120          1           0      -10.224795   -1.281747   -0.587495
    121          1           0      -10.721190    0.401745   -0.751494
    122          1           0      -11.172935   -1.120867    1.840288
    123          1           0      -12.145472   -1.592744    0.511406
    124          1           0      -12.180890    1.307780    0.816782
    125          1           0      -12.242124    1.484565    3.127001
    126          1           0      -12.390142   -0.230810    3.424690
    127          1           0      -13.829499    0.783803    2.950151
    128          1           0      -14.475952   -0.491327    1.421052
    129          1           0      -13.864970   -0.510926   -0.209171
    130          1           0      -14.278890    2.259430    0.896319
    131          1           0      -15.731603    1.224225    1.001029
    132          1           0      -15.490195    0.828569   -1.426828
    133          1           0      -14.158099    1.965037   -1.492687
    134          1           0      -16.364815    3.201335   -0.046870
    135          1           0      -17.393538    1.576433   -2.229029
    136          1           0      -17.860990    3.244226   -2.322227
    137          1           0      -18.200589    2.311942   -0.894924
    138          1           0      -15.674614    4.899131   -1.099731
    139          1           0      -15.801290    4.072971   -2.810520
    140          1           0      -14.335584    3.909053   -1.956029
 ---------------------------------------------------------------------

 SCF Done:  E(RB-LYP) =  -3007.36798374     A.U. after   21 cycles

 Excitation energies and oscillator strengths:

 Excited State   1:      Singlet-A      1.5987 eV  775.51 nm  f=0.0034  <S**2>=0.000
     244 -> 247        0.65990
     245 -> 247        0.24431
 This state for optimization and/or second-order correction.
 Total Energy, E(TD-HF/TD-DFT) =  -3007.30923080
 Copying the excited state density for this state as the 1-particle RhoCI density.

 Excited State   2:      Singlet-A      1.8172 eV  682.29 nm  f=0.3003  <S**2>=0.000
     245 -> 248       -0.14834
     245 -> 249       -0.12455
     246 -> 247        0.68591
     246 <- 247       -0.14759

 Excited State   3:      Singlet-A      1.9935 eV  621.94 nm  f=0.0883  <S**2>=0.000
     244 -> 247       -0.23200
     245 -> 247        0.60903
     246 -> 248        0.18758
     246 -> 249        0.13441

 Excited State   4:      Singlet-A      2.0233 eV  612.78 nm  f=0.0027  <S**2>=0.000
     243 -> 247        0.70197

 Excited State   5:      Singlet-A      2.2649 eV  547.42 nm  f=0.0001  <S**2>=0.000
     241 -> 247        0.61671
     242 -> 247       -0.34584

 The electronic state is 1-A.
 Alpha  occ. eigenvalues --  -46.27098 -18.84433 -18.82168 -18.78450 -18.76266
 Alpha  occ. eigenvalues --  -18.76141 -18.74794 -14.03323 -14.03184 -14.00927
 Alpha  occ. eigenvalues --  -14.00767 -10.05546 -10.04003 -10.00531  -9.99225
 Alpha  occ. eigenvalues --   -9.98627  -9.97238  -9.97222  -9.96682  -9.96633
 Alpha  occ. eigenvalues --   -9.96083  -9.95919  -9.95723  -9.95241  -9.94594
 Alpha  occ. eigenvalues --   -9.94368  -9.94359  -9.94348  -9.94341  -9.94328
 Alpha  occ. eigenvalues --   -9.94309  -9.94066  -9.93853  -9.93652  -9.93566
 Alpha  occ. eigenvalues --   -9.93506  -9.93171  -9.92921  -9.92865  -9.92827
 Alpha  occ. eigenvalues --   -9.92473  -9.92450  -9.92398  -9.92346  -9.92324
 Alpha  occ. eigenvalues --   -9.92286  -9.92245  -9.91823  -9.91729  -9.91687
 Alpha  occ. eigenvalues --   -9.91680  -9.91607  -9.91483  -9.91394  -9.91291
 Alpha  occ. eigenvalues --   -9.91188  -9.91003  -9.90991  -9.90947  -9.90897
 Alpha  occ. eigenvalues --   -9.90852  -9.90806  -9.90677  -9.90641  -9.90547
 Alpha  occ. eigenvalues --   -9.90450  -2.91703  -1.72135  -1.71591  -1.71408
 Alpha  occ. eigenvalues --   -0.99895  -0.97219  -0.91134  -0.90496  -0.89465
 Alpha  occ. eigenvalues --   -0.88616  -0.88001  -0.86198  -0.84540  -0.83696
 Alpha  occ. eigenvalues --   -0.75887  -0.73775  -0.73449  -0.72990  -0.72504
 Alpha  occ. eigenvalues --   -0.72176  -0.71589  -0.70853  -0.70802  -0.70404
 Alpha  occ. eigenvalues --   -0.69643  -0.69175  -0.68541  -0.68067  -0.67022
 Alpha  occ. eigenvalues --   -0.66711  -0.65878  -0.65182  -0.64881  -0.64404
 Alpha  occ. eigenvalues --   -0.63424  -0.62418  -0.62095  -0.61679  -0.61113
 Alpha  occ. eigenvalues --   -0.60423  -0.60040  -0.59942  -0.59833  -0.58837
 Alpha  occ. eigenvalues --   -0.58293  -0.57925  -0.56803  -0.55719  -0.55491
 Alpha  occ. eigenvalues --   -0.54087  -0.53881  -0.52605  -0.52170  -0.51668
 Alpha  occ. eigenvalues --   -0.51366  -0.51066  -0.50833  -0.50448  -0.50244
 Alpha  occ. eigenvalues --   -0.49873  -0.49295  -0.48686  -0.48247  -0.46827
 Alpha  occ. eigenvalues --   -0.46793  -0.46061  -0.45801  -0.45213  -0.44590
 Alpha  occ. eigenvalues --   -0.44015  -0.43581  -0.43167  -0.42949  -0.42669
 Alpha  occ. eigenvalues --   -0.42423  -0.42018  -0.41617  -0.41194  -0.40931
 Alpha  occ. eigenvalues --   -0.40898  -0.40840  -0.40561  -0.40436  -0.40188
 Alpha  occ. eigenvalues --   -0.39950  -0.39877  -0.39843  -0.39099  -0.38905
 Alpha  occ. eigenvalues --   -0.38758  -0.38628  -0.38534  -0.38408  -0.38363
 Alpha  occ. eigenvalues --   -0.37936  -0.37870  -0.37651  -0.37406  -0.37171
 Alpha  occ. eigenvalues --   -0.37068  -0.36908  -0.36803  -0.36740  -0.36500
 Alpha  occ. eigenvalues --   -0.36242  -0.36178  -0.36007  -0.35925  -0.35707
 Alpha  occ. eigenvalues --   -0.35421  -0.35124  -0.34879  -0.34819  -0.34759
 Alpha  occ. eigenvalues --   -0.34609  -0.34452  -0.34370  -0.34016  -0.33862
 Alpha  occ. eigenvalues --   -0.33733  -0.33618  -0.33501  -0.33375  -0.33048
 Alpha  occ. eigenvalues --   -0.32878  -0.32734  -0.32575  -0.32539  -0.32404
 Alpha  occ. eigenvalues --   -0.32351  -0.32137  -0.32078  -0.31842  -0.31533
 Alpha  occ. eigenvalues --   -0.31480  -0.31328  -0.31141  -0.31007  -0.30494
 Alpha  occ. eigenvalues --   -0.30327  -0.30283  -0.30022  -0.29767  -0.29621
 Alpha  occ. eigenvalues --   -0.29316  -0.29279  -0.29211  -0.29068  -0.28927
 Alpha  occ. eigenvalues --   -0.28660  -0.28464  -0.28408  -0.28251  -0.27867
 Alpha  occ. eigenvalues --   -0.27695  -0.27374  -0.27152  -0.26965  -0.26618
 Alpha  occ. eigenvalues --   -0.26578  -0.26417  -0.26069  -0.25646  -0.25586
 Alpha  occ. eigenvalues --   -0.25376  -0.24738  -0.24286  -0.24165  -0.23605
 Alpha  occ. eigenvalues --   -0.23551  -0.22977  -0.22027  -0.21234  -0.20622
 Alpha  occ. eigenvalues --   -0.20110  -0.20096  -0.19108  -0.17620  -0.17280
 Alpha  occ. eigenvalues --   -0.16097
 Alpha virt. eigenvalues --   -0.11784  -0.06920  -0.06519  -0.04868  -0.04487
 Alpha virt. eigenvalues --   -0.02670  -0.02284  -0.01612  -0.01487  -0.00143
 Alpha virt. eigenvalues --    0.01120   0.01580   0.02374   0.02447   0.02650

 Mulliken charges:
               1
     1  Mg   0.691259
     2  C   -0.054325
     3  C   -0.047086
     4  C   -0.018005
     5  C   -0.089934
     6  N   -0.245073
     7  C   -0.029122
     8  C   -0.051011
     9  C    0.019561
    10  C   -0.011612
    11  C    0.132552
    12  C    0.061434
    13  C    0.212389
    14  C    0.066551
    15  O   -0.198616
    16  O   -0.254672
    17  N   -0.359818
    18  C    0.154704
    19  C   -0.092966
    20  C    0.068687
    21  C    0.102007
    22  C    0.133864
    23  C   -0.097196
    24  O   -0.175984
    25  C    0.112288
    26  N   -0.165374
    27  C    0.007620
    28  C    0.019545
    29  C    0.075987
    30  C   -0.020807
    31  C    0.085978
    32  C    0.088500
    33  C    0.050569
    34  N   -0.227170
    35  C    0.135321
    36  C   -0.198176
    37  C    0.063944
    38  C    0.134333
    39  C    0.186991
    40  C   -0.014889
    41  O   -0.172149
    42  C    0.128031
    43  C    0.116871
    44  O   -0.199051
    45  O   -0.271130
    46  C    0.223447
    47  C    0.306855
    48  C   -0.102708
    49  C   -0.180161
    50  C    0.130745
    51  C    0.119901
    52  C    0.078746
    53  C    0.090933
    54  C   -0.102000
    55  C    0.118716
    56  C    0.141976
    57  C    0.086472
    58  C    0.118719
    59  C   -0.105910
    60  C    0.114398
    61  C    0.119779
    62  C    0.045192
    63  C    0.114559
    64  C   -0.119409
    65  C    0.082991
    66  C    0.130015
    67  H   -0.060116
    68  H   -0.056446
    69  H   -0.070244
    70  H    0.011200
    71  H   -0.028761
    72  H   -0.000306
    73  H   -0.006258
    74  H    0.013927
    75  H   -0.019859
    76  H   -0.013851
    77  H    0.001067
    78  H   -0.004687
    79  H   -0.010190
    80  H   -0.017911
    81  H    0.016344
    82  H   -0.003091
    83  H    0.012068
    84  H   -0.020080
    85  H   -0.002161
    86  H   -0.022485
    87  H    0.031723
    88  H   -0.011940
    89  H   -0.011418
    90  H   -0.024100
    91  H   -0.025393
    92  H   -0.008701
    93  H   -0.021967
    94  H   -0.007533
    95  H    0.007476
    96  H    0.004048
    97  H   -0.003000
    98  H   -0.003247
    99  H    0.021212
   100  H    0.004902
   101  H    0.030711
   102  H   -0.002817
   103  H    0.012692
   104  H   -0.043962
   105  H   -0.011359
   106  H    0.005310
   107  H   -0.007200
   108  H   -0.036751
   109  H   -0.015344
   110  H   -0.013011
   111  H   -0.019834
   112  H   -0.019493
   113  H   -0.036652
   114  H   -0.035848
   115  H   -0.010205
   116  H   -0.033822
   117  H   -0.013566
   118  H   -0.033523
   119  H   -0.050900
   120  H   -0.036737
   121  H   -0.036197
   122  H   -0.054744
   123  H   -0.044509
   124  H   -0.038681
   125  H   -0.023828
   126  H   -0.006816
   127  H   -0.014299
   128  H   -0.045466
   129  H   -0.039476
   130  H   -0.024990
   131  H   -0.031592
   132  H   -0.038353
   133  H   -0.041744
   134  H   -0.030140
   135  H   -0.022491
   136  H   -0.023651
   137  H   -0.019202
   138  H    0.005577
   139  H   -0.014316
   140  H   -0.021070
 Sum of Mulliken charges =  -0.00000

 Dipole moment (field-independent basis, Debye):
    X=             -3.6573    Y=              0.4044    Z=              2.4748  Tot=              4.4344
 Quadrupole moment (field-independent basis, Debye-Ang):
   XX=           -382.4013   YY=           -439.3818   ZZ=           -406.7281
   XY=             23.7408   XZ=             13.4202   YZ=             -0.3136

 Normal termination of Gaussian 16 at Thu May  5 10:56:24 2022.
