 Gaussian 16, Revision A.03,
 Gaussian 16:  ES64L-G16RevA.03 25-Dec-2016

 -----------------------------------
 #p cam-b3lyp/Def2SVP td=(nstates=5)
 -----------------------------------

 -------------------------------------------------------
 step_801_chromophore_18 TDDFT with cam-b3lyp functional
 -------------------------------------------------------
 Symbolic Z-matrix:
 Charge =  0 Multiplicity = 1

                         Standard orientation:
 ---------------------------------------------------------------------
 Center     Atomic      Atomic             Coordinates (Angstroms)
 Number     Number       Type             X           Y           Z
 ---------------------------------------------------------------------
      1         12           0        5.266261    1.291435    0.178671
      2          6           0        4.924315   -2.273428    0.270375
      3          6           0        1.820739    1.575495   -0.096888
      4          6           0        5.887025    4.409338   -0.186205
      5          6           0        8.763555    0.634667   -0.150473
      6          7           0        3.600652   -0.211592    0.071465
      7          6           0        3.676138   -1.614931    0.156561
      8          6           0        2.235819   -2.189287    0.116763
      9          6           0        1.378111   -0.980298   -0.230500
     10          6           0        2.269677    0.234150   -0.019142
     11          6           0        0.673086   -1.037224   -1.647697
     12          6           0        1.884641   -2.897357    1.522517
     13          6           0        1.175376   -4.215703    1.510413
     14          6           0        0.178154   -4.341612    0.333098
     15          8           0        0.297302   -5.121584   -0.613577
     16          8           0       -0.909283   -3.502134    0.466301
     17          7           0        3.988205    2.829854   -0.045304
     18          6           0        2.571480    2.790234   -0.163541
     19          6           0        2.117453    4.140202   -0.297987
     20          6           0        3.325430    4.970098   -0.262799
     21          6           0        4.465544    4.094664   -0.201502
     22          6           0        0.648419    4.467859   -0.422733
     23          6           0        3.392688    6.480069   -0.245317
     24          8           0        4.409251    7.168021   -0.333623
     25          6           0        2.114647    7.378411   -0.233415
     26          7           0        7.057820    2.427292   -0.064777
     27          6           0        7.052998    3.706688   -0.079806
     28          6           0        8.399541    4.408845    0.154460
     29          6           0        9.377271    3.187243   -0.059901
     30          6           0        8.351355    1.970010   -0.118442
     31          6           0        8.684179    5.504562   -0.948096
     32          6           0       10.428656    3.005768    1.090642
     33          6           0       10.011323    2.283661    2.342787
     34          7           0        6.616291   -0.384909    0.093831
     35          6           0        7.999470   -0.473069   -0.000812
     36          6           0        8.420936   -1.886845    0.089109
     37          6           0        7.198480   -2.579127    0.198531
     38          6           0        6.207844   -1.663041    0.191767
     39          6           0        9.799586   -2.384431    0.145595
     40          6           0        6.601469   -3.969200    0.286525
     41          8           0        7.202247   -5.086877    0.263863
     42          6           0        5.113986   -3.812586    0.300231
     43          6           0        4.536434   -4.571592   -0.853595
     44          8           0        4.597090   -4.257240   -2.051540
     45          8           0        3.994728   -5.741887   -0.410117
     46          6           0        3.604177   -6.755258   -1.406598
     47          6           0       -1.812368   -3.717265   -0.631600
     48          6           0       -2.979666   -2.727708   -0.510860
     49          6           0       -4.178447   -2.787373   -1.102189
     50          6           0       -4.548052   -3.846602   -2.137118
     51          6           0       -5.245608   -1.651773   -0.919125
     52          6           0       -6.370995   -2.161100    0.028543
     53          6           0       -6.837951   -0.907891    0.777316
     54          6           0       -8.368221   -0.981331    1.360241
     55          6           0       -8.474887   -1.047379    2.867418
     56          6           0       -9.176895    0.140305    0.708075
     57          6           0      -10.420022   -0.362978   -0.034921
     58          6           0      -11.567356   -0.751405    0.893189
     59          6           0      -12.548626    0.387281    1.269124
     60          6           0      -12.767772    0.584934    2.807748
     61          6           0      -13.930597    0.103653    0.688131
     62          6           0      -14.780984    1.382336    0.490036
     63          6           0      -15.067519    1.711930   -0.948160
     64          6           0      -16.047165    2.910103   -1.048290
     65          6           0      -17.436770    2.498385   -1.649100
     66          6           0      -15.395787    4.111858   -1.799336
     67          1           0        0.732103    1.615629   -0.021960
     68          1           0        6.077996    5.475476   -0.324394
     69          1           0        9.843125    0.470841   -0.161668
     70          1           0        2.021210   -2.957920   -0.625922
     71          1           0        0.621747   -0.881480    0.548503
     72          1           0        0.867372   -0.088078   -2.147031
     73          1           0       -0.390305   -1.090747   -1.416204
     74          1           0        0.935578   -1.955176   -2.173236
     75          1           0        1.219344   -2.260115    2.105839
     76          1           0        2.847960   -2.903123    2.031568
     77          1           0        0.619943   -4.328393    2.441729
     78          1           0        1.967608   -4.955875    1.399386
     79          1           0        0.214600    5.223477    0.231647
     80          1           0       -0.061384    3.686579   -0.152124
     81          1           0        0.443588    4.878135   -1.411927
     82          1           0        2.449588    8.343608   -0.614093
     83          1           0        1.645960    7.494210    0.743699
     84          1           0        1.432460    6.881866   -0.923026
     85          1           0        8.526720    4.850052    1.142717
     86          1           0        9.862103    3.199497   -1.036081
     87          1           0        7.998843    6.322476   -0.725649
     88          1           0        8.545641    5.023644   -1.916505
     89          1           0        9.718386    5.828486   -1.071950
     90          1           0       10.744409    3.983915    1.453405
     91          1           0       11.367565    2.546510    0.783717
     92          1           0        8.957437    2.013161    2.274588
     93          1           0        9.996309    2.897100    3.244104
     94          1           0       10.537500    1.373579    2.628783
     95          1           0        9.845303   -3.469458    0.227288
     96          1           0       10.373102   -1.888804    0.928365
     97          1           0       10.246872   -2.127158   -0.814788
     98          1           0        4.619886   -4.198661    1.192263
     99          1           0        2.621780   -6.530070   -1.823107
    100          1           0        3.386743   -7.664652   -0.847023
    101          1           0        4.386088   -6.911651   -2.150141
    102          1           0       -2.192976   -4.737923   -0.684261
    103          1           0       -1.508693   -3.578440   -1.668819
    104          1           0       -2.931065   -1.944161    0.246257
    105          1           0       -5.256898   -3.542552   -2.906843
    106          1           0       -5.012625   -4.677497   -1.606268
    107          1           0       -3.648383   -4.166365   -2.661500
    108          1           0       -5.818026   -1.577300   -1.843873
    109          1           0       -4.722127   -0.700076   -0.834498
    110          1           0       -6.055535   -2.914377    0.751006
    111          1           0       -7.108072   -2.583631   -0.655240
    112          1           0       -6.664988    0.009288    0.213409
    113          1           0       -6.236834   -0.855057    1.684510
    114          1           0       -8.809690   -1.949991    1.126890
    115          1           0       -9.282609   -0.407731    3.220885
    116          1           0       -7.546075   -0.638941    3.266467
    117          1           0       -8.526751   -2.072492    3.233299
    118          1           0       -8.608753    0.830687    0.082839
    119          1           0       -9.527374    0.670009    1.593976
    120          1           0      -10.224795   -1.281747   -0.587495
    121          1           0      -10.721190    0.401745   -0.751494
    122          1           0      -11.172935   -1.120867    1.840288
    123          1           0      -12.145472   -1.592744    0.511406
    124          1           0      -12.180890    1.307780    0.816782
    125          1           0      -12.242124    1.484565    3.127001
    126          1           0      -12.390142   -0.230810    3.424690
    127          1           0      -13.829499    0.783803    2.950151
    128          1           0      -14.475952   -0.491327    1.421052
    129          1           0      -13.864970   -0.510926   -0.209171
    130          1           0      -14.278890    2.259430    0.896319
    131          1           0      -15.731603    1.224225    1.001029
    132          1           0      -15.490195    0.828569   -1.426828
    133          1           0      -14.158099    1.965037   -1.492687
    134          1           0      -16.364815    3.201335   -0.046870
    135          1           0      -17.393538    1.576433   -2.229029
    136          1           0      -17.860990    3.244226   -2.322227
    137          1           0      -18.200589    2.311942   -0.894924
    138          1           0      -15.674614    4.899131   -1.099731
    139          1           0      -15.801290    4.072971   -2.810520
    140          1           0      -14.335584    3.909053   -1.956029
 ---------------------------------------------------------------------

 SCF Done:  E(RCAM-B3LYP) =  -3007.15871758     A.U. after   19 cycles

 Excitation energies and oscillator strengths:

 Excited State   1:      Singlet-A      1.7199 eV  720.87 nm  f=0.3867  <S**2>=0.000
     245 -> 248       -0.18283
     246 -> 247        0.68433
     245 <- 248       -0.10859
 This state for optimization and/or second-order correction.
 Total Energy, E(TD-HF/TD-DFT) =  -3007.09551126
 Copying the excited state density for this state as the 1-particle RhoCI density.

 Excited State   2:      Singlet-A      2.1954 eV  564.75 nm  f=0.1448  <S**2>=0.000
     245 -> 247        0.65023
     246 -> 248        0.26234

 Excited State   3:      Singlet-A      3.2536 eV  381.07 nm  f=0.0010  <S**2>=0.000
     241 -> 247       -0.21108
     244 -> 247        0.65151

 Excited State   4:      Singlet-A      3.3768 eV  367.16 nm  f=0.0013  <S**2>=0.000
     241 -> 247       -0.22534
     243 -> 247        0.54944
     243 -> 248       -0.12279
     243 -> 249        0.14700
     243 -> 250        0.26655
     244 -> 247       -0.11189

 Excited State   5:      Singlet-A      3.4266 eV  361.83 nm  f=0.0006  <S**2>=0.000
     241 -> 247        0.60388
     243 -> 247        0.20240
     243 -> 250        0.11545
     244 -> 247        0.17040
     246 -> 248       -0.15409

 The electronic state is 1-A.
 Alpha  occ. eigenvalues --  -46.88594 -19.27343 -19.25133 -19.21464 -19.19735
 Alpha  occ. eigenvalues --  -19.19419 -19.17775 -14.42190 -14.42091 -14.39284
 Alpha  occ. eigenvalues --  -14.39195 -10.40893 -10.39546 -10.36239 -10.34259
 Alpha  occ. eigenvalues --  -10.32609 -10.32003 -10.31365 -10.31224 -10.30941
 Alpha  occ. eigenvalues --  -10.30226 -10.29917 -10.29888 -10.29773 -10.29083
 Alpha  occ. eigenvalues --  -10.28922 -10.28689 -10.28606 -10.28502 -10.28454
 Alpha  occ. eigenvalues --  -10.28427 -10.28363 -10.28250 -10.27634 -10.27565
 Alpha  occ. eigenvalues --  -10.27363 -10.27008 -10.26968 -10.26878 -10.26700
 Alpha  occ. eigenvalues --  -10.26605 -10.26252 -10.26136 -10.26099 -10.25969
 Alpha  occ. eigenvalues --  -10.25916 -10.25902 -10.25758 -10.25689 -10.25603
 Alpha  occ. eigenvalues --  -10.25542 -10.25418 -10.25404 -10.25190 -10.25040
 Alpha  occ. eigenvalues --  -10.24982 -10.24808 -10.24613 -10.24528 -10.24480
 Alpha  occ. eigenvalues --  -10.24467 -10.24442 -10.24340 -10.24256 -10.24184
 Alpha  occ. eigenvalues --  -10.24101  -3.17103  -1.92012  -1.91560  -1.91403
 Alpha  occ. eigenvalues --   -1.18335  -1.15767  -1.09008  -1.08683  -1.08084
 Alpha  occ. eigenvalues --   -1.06615  -1.05801  -1.04041  -1.01927  -1.01133
 Alpha  occ. eigenvalues --   -0.93238  -0.90633  -0.90280  -0.89790  -0.89271
 Alpha  occ. eigenvalues --   -0.88886  -0.88214  -0.87493  -0.87380  -0.87010
 Alpha  occ. eigenvalues --   -0.86036  -0.85516  -0.84823  -0.84343  -0.83108
 Alpha  occ. eigenvalues --   -0.82775  -0.81905  -0.80973  -0.80715  -0.80185
 Alpha  occ. eigenvalues --   -0.79323  -0.78173  -0.77666  -0.77216  -0.76538
 Alpha  occ. eigenvalues --   -0.75755  -0.75389  -0.75203  -0.75117  -0.74068
 Alpha  occ. eigenvalues --   -0.73322  -0.73009  -0.71674  -0.70518  -0.70211
 Alpha  occ. eigenvalues --   -0.68744  -0.68500  -0.66947  -0.66471  -0.65691
 Alpha  occ. eigenvalues --   -0.65435  -0.65291  -0.64986  -0.64403  -0.64200
 Alpha  occ. eigenvalues --   -0.63923  -0.63277  -0.62552  -0.61999  -0.60537
 Alpha  occ. eigenvalues --   -0.60335  -0.59583  -0.59386  -0.58613  -0.58208
 Alpha  occ. eigenvalues --   -0.57264  -0.56924  -0.56453  -0.56263  -0.55979
 Alpha  occ. eigenvalues --   -0.55561  -0.55067  -0.54354  -0.54244  -0.54016
 Alpha  occ. eigenvalues --   -0.53708  -0.53566  -0.53154  -0.53119  -0.52988
 Alpha  occ. eigenvalues --   -0.52907  -0.52604  -0.52296  -0.51856  -0.51611
 Alpha  occ. eigenvalues --   -0.51437  -0.51070  -0.50943  -0.50843  -0.50746
 Alpha  occ. eigenvalues --   -0.50347  -0.50117  -0.49903  -0.49705  -0.49496
 Alpha  occ. eigenvalues --   -0.49390  -0.49163  -0.48927  -0.48898  -0.48826
 Alpha  occ. eigenvalues --   -0.48618  -0.48299  -0.48193  -0.48108  -0.47916
 Alpha  occ. eigenvalues --   -0.47506  -0.47104  -0.47042  -0.46822  -0.46631
 Alpha  occ. eigenvalues --   -0.46433  -0.46334  -0.46182  -0.46005  -0.45770
 Alpha  occ. eigenvalues --   -0.45682  -0.45586  -0.45431  -0.45175  -0.45111
 Alpha  occ. eigenvalues --   -0.44602  -0.44271  -0.44232  -0.44179  -0.44027
 Alpha  occ. eigenvalues --   -0.43980  -0.43818  -0.43750  -0.43289  -0.42976
 Alpha  occ. eigenvalues --   -0.42887  -0.42726  -0.42516  -0.42450  -0.42173
 Alpha  occ. eigenvalues --   -0.41842  -0.41608  -0.41456  -0.41355  -0.41117
 Alpha  occ. eigenvalues --   -0.40793  -0.40535  -0.40278  -0.40138  -0.40031
 Alpha  occ. eigenvalues --   -0.39673  -0.39500  -0.39421  -0.39199  -0.38798
 Alpha  occ. eigenvalues --   -0.38765  -0.38542  -0.38191  -0.37794  -0.37787
 Alpha  occ. eigenvalues --   -0.37374  -0.37164  -0.36789  -0.36560  -0.36264
 Alpha  occ. eigenvalues --   -0.36261  -0.35997  -0.35116  -0.34703  -0.34584
 Alpha  occ. eigenvalues --   -0.33923  -0.33907  -0.33491  -0.31713  -0.30945
 Alpha  occ. eigenvalues --   -0.30112  -0.29731  -0.29587  -0.29148  -0.23973
 Alpha  occ. eigenvalues --   -0.21484
 Alpha virt. eigenvalues --   -0.08985  -0.01680  -0.00110   0.02126   0.02811
 Alpha virt. eigenvalues --    0.03429   0.05040   0.05646   0.05817   0.06457
 Alpha virt. eigenvalues --    0.07799   0.08066   0.08726   0.08908   0.09346

 Mulliken charges:
               1
     1  Mg   0.822850
     2  C   -0.082270
     3  C   -0.063038
     4  C   -0.037264
     5  C   -0.095540
     6  N   -0.313882
     7  C    0.014147
     8  C   -0.098928
     9  C   -0.033703
    10  C    0.010177
    11  C    0.077824
    12  C    0.015904
    13  C    0.145253
    14  C    0.136805
    15  O   -0.239136
    16  O   -0.315137
    17  N   -0.448177
    18  C    0.158789
    19  C   -0.102351
    20  C   -0.009452
    21  C    0.130371
    22  C    0.076641
    23  C   -0.019171
    24  O   -0.219552
    25  C    0.042374
    26  N   -0.238067
    27  C    0.026277
    28  C   -0.034986
    29  C    0.024791
    30  C   -0.006198
    31  C    0.032745
    32  C    0.028725
    33  C   -0.011823
    34  N   -0.314520
    35  C    0.139040
    36  C   -0.184270
    37  C   -0.020751
    38  C    0.173690
    39  C    0.128126
    40  C    0.088879
    41  O   -0.206825
    42  C    0.052271
    43  C    0.203383
    44  O   -0.235186
    45  O   -0.335722
    46  C    0.184491
    47  C    0.271620
    48  C   -0.119109
    49  C   -0.202409
    50  C    0.067590
    51  C    0.056651
    52  C    0.032705
    53  C    0.038854
    54  C   -0.155467
    55  C    0.061895
    56  C    0.084512
    57  C    0.030785
    58  C    0.064585
    59  C   -0.155823
    60  C    0.056931
    61  C    0.060318
    62  C   -0.008403
    63  C    0.064246
    64  C   -0.179677
    65  C    0.025974
    66  C    0.068904
    67  H   -0.025774
    68  H   -0.017361
    69  H   -0.032288
    70  H    0.040611
    71  H    0.006278
    72  H    0.026709
    73  H    0.014529
    74  H    0.036303
    75  H    0.011337
    76  H    0.015863
    77  H    0.035515
    78  H    0.027077
    79  H    0.015726
    80  H    0.009852
    81  H    0.040311
    82  H    0.030026
    83  H    0.038525
    84  H    0.004699
    85  H    0.030609
    86  H    0.013510
    87  H    0.053907
    88  H    0.012259
    89  H    0.014160
    90  H    0.006181
    91  H    0.004051
    92  H    0.014124
    93  H    0.004784
    94  H    0.016232
    95  H    0.037621
    96  H    0.029635
    97  H    0.024152
    98  H    0.039996
    99  H    0.044256
   100  H    0.028674
   101  H    0.053850
   102  H    0.026425
   103  H    0.037403
   104  H   -0.009829
   105  H    0.014544
   106  H    0.029288
   107  H    0.015804
   108  H   -0.005780
   109  H    0.014372
   110  H    0.013970
   111  H    0.005992
   112  H    0.007250
   113  H   -0.008732
   114  H   -0.005089
   115  H    0.010446
   116  H   -0.008591
   117  H    0.011442
   118  H   -0.003220
   119  H   -0.023024
   120  H   -0.008123
   121  H   -0.007625
   122  H   -0.027856
   123  H   -0.013072
   124  H   -0.008362
   125  H    0.000649
   126  H    0.016378
   127  H    0.009037
   128  H   -0.014016
   129  H   -0.010066
   130  H    0.001188
   131  H   -0.003545
   132  H   -0.010335
   133  H   -0.014543
   134  H    0.001504
   135  H    0.000986
   136  H    0.001272
   137  H    0.004733
   138  H    0.028638
   139  H    0.009317
   140  H    0.002944
 Sum of Mulliken charges =  -0.00000

 Dipole moment (field-independent basis, Debye):
    X=             -3.5531    Y=              0.2646    Z=              2.6808  Tot=              4.4588
 Quadrupole moment (field-independent basis, Debye-Ang):
   XX=           -376.1656   YY=           -437.2768   ZZ=           -406.7699
   XY=             22.4871   XZ=             14.8776   YZ=             -0.7049

 Normal termination of Gaussian 16 at Thu May  5 09:14:58 2022.
