 Gaussian 16, Revision A.03,
 Gaussian 16:  ES64L-G16RevA.03 25-Dec-2016

 ---------------------------------
 #p PBE1PBE/Def2SVP td=(nstates=5)
 ---------------------------------

 -----------------------------------------------------
 step_801_chromophore_18 TDDFT with PBE1PBE functional
 -----------------------------------------------------
 Symbolic Z-matrix:
 Charge =  0 Multiplicity = 1

                         Standard orientation:
 ---------------------------------------------------------------------
 Center     Atomic      Atomic             Coordinates (Angstroms)
 Number     Number       Type             X           Y           Z
 ---------------------------------------------------------------------
      1         12           0        5.266261    1.291435    0.178671
      2          6           0        4.924315   -2.273428    0.270375
      3          6           0        1.820739    1.575495   -0.096888
      4          6           0        5.887025    4.409338   -0.186205
      5          6           0        8.763555    0.634667   -0.150473
      6          7           0        3.600652   -0.211592    0.071465
      7          6           0        3.676138   -1.614931    0.156561
      8          6           0        2.235819   -2.189287    0.116763
      9          6           0        1.378111   -0.980298   -0.230500
     10          6           0        2.269677    0.234150   -0.019142
     11          6           0        0.673086   -1.037224   -1.647697
     12          6           0        1.884641   -2.897357    1.522517
     13          6           0        1.175376   -4.215703    1.510413
     14          6           0        0.178154   -4.341612    0.333098
     15          8           0        0.297302   -5.121584   -0.613577
     16          8           0       -0.909283   -3.502134    0.466301
     17          7           0        3.988205    2.829854   -0.045304
     18          6           0        2.571480    2.790234   -0.163541
     19          6           0        2.117453    4.140202   -0.297987
     20          6           0        3.325430    4.970098   -0.262799
     21          6           0        4.465544    4.094664   -0.201502
     22          6           0        0.648419    4.467859   -0.422733
     23          6           0        3.392688    6.480069   -0.245317
     24          8           0        4.409251    7.168021   -0.333623
     25          6           0        2.114647    7.378411   -0.233415
     26          7           0        7.057820    2.427292   -0.064777
     27          6           0        7.052998    3.706688   -0.079806
     28          6           0        8.399541    4.408845    0.154460
     29          6           0        9.377271    3.187243   -0.059901
     30          6           0        8.351355    1.970010   -0.118442
     31          6           0        8.684179    5.504562   -0.948096
     32          6           0       10.428656    3.005768    1.090642
     33          6           0       10.011323    2.283661    2.342787
     34          7           0        6.616291   -0.384909    0.093831
     35          6           0        7.999470   -0.473069   -0.000812
     36          6           0        8.420936   -1.886845    0.089109
     37          6           0        7.198480   -2.579127    0.198531
     38          6           0        6.207844   -1.663041    0.191767
     39          6           0        9.799586   -2.384431    0.145595
     40          6           0        6.601469   -3.969200    0.286525
     41          8           0        7.202247   -5.086877    0.263863
     42          6           0        5.113986   -3.812586    0.300231
     43          6           0        4.536434   -4.571592   -0.853595
     44          8           0        4.597090   -4.257240   -2.051540
     45          8           0        3.994728   -5.741887   -0.410117
     46          6           0        3.604177   -6.755258   -1.406598
     47          6           0       -1.812368   -3.717265   -0.631600
     48          6           0       -2.979666   -2.727708   -0.510860
     49          6           0       -4.178447   -2.787373   -1.102189
     50          6           0       -4.548052   -3.846602   -2.137118
     51          6           0       -5.245608   -1.651773   -0.919125
     52          6           0       -6.370995   -2.161100    0.028543
     53          6           0       -6.837951   -0.907891    0.777316
     54          6           0       -8.368221   -0.981331    1.360241
     55          6           0       -8.474887   -1.047379    2.867418
     56          6           0       -9.176895    0.140305    0.708075
     57          6           0      -10.420022   -0.362978   -0.034921
     58          6           0      -11.567356   -0.751405    0.893189
     59          6           0      -12.548626    0.387281    1.269124
     60          6           0      -12.767772    0.584934    2.807748
     61          6           0      -13.930597    0.103653    0.688131
     62          6           0      -14.780984    1.382336    0.490036
     63          6           0      -15.067519    1.711930   -0.948160
     64          6           0      -16.047165    2.910103   -1.048290
     65          6           0      -17.436770    2.498385   -1.649100
     66          6           0      -15.395787    4.111858   -1.799336
     67          1           0        0.732103    1.615629   -0.021960
     68          1           0        6.077996    5.475476   -0.324394
     69          1           0        9.843125    0.470841   -0.161668
     70          1           0        2.021210   -2.957920   -0.625922
     71          1           0        0.621747   -0.881480    0.548503
     72          1           0        0.867372   -0.088078   -2.147031
     73          1           0       -0.390305   -1.090747   -1.416204
     74          1           0        0.935578   -1.955176   -2.173236
     75          1           0        1.219344   -2.260115    2.105839
     76          1           0        2.847960   -2.903123    2.031568
     77          1           0        0.619943   -4.328393    2.441729
     78          1           0        1.967608   -4.955875    1.399386
     79          1           0        0.214600    5.223477    0.231647
     80          1           0       -0.061384    3.686579   -0.152124
     81          1           0        0.443588    4.878135   -1.411927
     82          1           0        2.449588    8.343608   -0.614093
     83          1           0        1.645960    7.494210    0.743699
     84          1           0        1.432460    6.881866   -0.923026
     85          1           0        8.526720    4.850052    1.142717
     86          1           0        9.862103    3.199497   -1.036081
     87          1           0        7.998843    6.322476   -0.725649
     88          1           0        8.545641    5.023644   -1.916505
     89          1           0        9.718386    5.828486   -1.071950
     90          1           0       10.744409    3.983915    1.453405
     91          1           0       11.367565    2.546510    0.783717
     92          1           0        8.957437    2.013161    2.274588
     93          1           0        9.996309    2.897100    3.244104
     94          1           0       10.537500    1.373579    2.628783
     95          1           0        9.845303   -3.469458    0.227288
     96          1           0       10.373102   -1.888804    0.928365
     97          1           0       10.246872   -2.127158   -0.814788
     98          1           0        4.619886   -4.198661    1.192263
     99          1           0        2.621780   -6.530070   -1.823107
    100          1           0        3.386743   -7.664652   -0.847023
    101          1           0        4.386088   -6.911651   -2.150141
    102          1           0       -2.192976   -4.737923   -0.684261
    103          1           0       -1.508693   -3.578440   -1.668819
    104          1           0       -2.931065   -1.944161    0.246257
    105          1           0       -5.256898   -3.542552   -2.906843
    106          1           0       -5.012625   -4.677497   -1.606268
    107          1           0       -3.648383   -4.166365   -2.661500
    108          1           0       -5.818026   -1.577300   -1.843873
    109          1           0       -4.722127   -0.700076   -0.834498
    110          1           0       -6.055535   -2.914377    0.751006
    111          1           0       -7.108072   -2.583631   -0.655240
    112          1           0       -6.664988    0.009288    0.213409
    113          1           0       -6.236834   -0.855057    1.684510
    114          1           0       -8.809690   -1.949991    1.126890
    115          1           0       -9.282609   -0.407731    3.220885
    116          1           0       -7.546075   -0.638941    3.266467
    117          1           0       -8.526751   -2.072492    3.233299
    118          1           0       -8.608753    0.830687    0.082839
    119          1           0       -9.527374    0.670009    1.593976
    120          1           0      -10.224795   -1.281747   -0.587495
    121          1           0      -10.721190    0.401745   -0.751494
    122          1           0      -11.172935   -1.120867    1.840288
    123          1           0      -12.145472   -1.592744    0.511406
    124          1           0      -12.180890    1.307780    0.816782
    125          1           0      -12.242124    1.484565    3.127001
    126          1           0      -12.390142   -0.230810    3.424690
    127          1           0      -13.829499    0.783803    2.950151
    128          1           0      -14.475952   -0.491327    1.421052
    129          1           0      -13.864970   -0.510926   -0.209171
    130          1           0      -14.278890    2.259430    0.896319
    131          1           0      -15.731603    1.224225    1.001029
    132          1           0      -15.490195    0.828569   -1.426828
    133          1           0      -14.158099    1.965037   -1.492687
    134          1           0      -16.364815    3.201335   -0.046870
    135          1           0      -17.393538    1.576433   -2.229029
    136          1           0      -17.860990    3.244226   -2.322227
    137          1           0      -18.200589    2.311942   -0.894924
    138          1           0      -15.674614    4.899131   -1.099731
    139          1           0      -15.801290    4.072971   -2.810520
    140          1           0      -14.335584    3.909053   -1.956029
 ---------------------------------------------------------------------

 SCF Done:  E(RPBE1PBE) =  -3005.34670262     A.U. after   15 cycles

 Excitation energies and oscillator strengths:

 Excited State   1:      Singlet-A      1.8701 eV  662.98 nm  f=0.3731  <S**2>=0.000
     245 -> 248       -0.17368
     246 -> 247        0.69141
     246 <- 247       -0.10556
 This state for optimization and/or second-order correction.
 Total Energy, E(TD-HF/TD-DFT) =  -3005.27797756
 Copying the excited state density for this state as the 1-particle RhoCI density.

 Excited State   2:      Singlet-A      2.2046 eV  562.40 nm  f=0.1323  <S**2>=0.000
     245 -> 247        0.65932
     246 -> 248        0.23606

 Excited State   3:      Singlet-A      2.7333 eV  453.61 nm  f=0.0001  <S**2>=0.000
     244 -> 247        0.68385
     244 -> 250        0.12330

 Excited State   4:      Singlet-A      2.9267 eV  423.63 nm  f=0.0042  <S**2>=0.000
     241 -> 247       -0.13509
     243 -> 247        0.68141

 Excited State   5:      Singlet-A      3.0917 eV  401.02 nm  f=0.0024  <S**2>=0.000
     240 -> 247        0.55649
     240 -> 249       -0.21358
     241 -> 247        0.34596

 The electronic state is 1-A.
 Alpha  occ. eigenvalues --  -46.92010 -19.28010 -19.25746 -19.21763 -19.19800
 Alpha  occ. eigenvalues --  -19.19597 -19.18126 -14.41794 -14.41503 -14.38993
 Alpha  occ. eigenvalues --  -14.38870 -10.37989 -10.36511 -10.33270 -10.31529
 Alpha  occ. eigenvalues --  -10.30060 -10.29655 -10.29013 -10.28816 -10.28426
 Alpha  occ. eigenvalues --  -10.28083 -10.27856 -10.27636 -10.27286 -10.26614
 Alpha  occ. eigenvalues --  -10.26513 -10.26386 -10.26295 -10.26251 -10.26243
 Alpha  occ. eigenvalues --  -10.26144 -10.26073 -10.25823 -10.25322 -10.25246
 Alpha  occ. eigenvalues --  -10.25208 -10.24899 -10.24725 -10.24441 -10.24177
 Alpha  occ. eigenvalues --  -10.24176 -10.23767 -10.23543 -10.23531 -10.23505
 Alpha  occ. eigenvalues --  -10.23441 -10.23419 -10.23313 -10.23283 -10.23278
 Alpha  occ. eigenvalues --  -10.23178 -10.23147 -10.23126 -10.22895 -10.22392
 Alpha  occ. eigenvalues --  -10.22352 -10.22340 -10.22190 -10.21976 -10.21943
 Alpha  occ. eigenvalues --  -10.21907 -10.21898 -10.21881 -10.21737 -10.21677
 Alpha  occ. eigenvalues --  -10.21672  -3.14102  -1.86951  -1.86477  -1.86325
 Alpha  occ. eigenvalues --   -1.13162  -1.10490  -1.03881  -1.03529  -1.02627
 Alpha  occ. eigenvalues --   -1.01366  -1.00411  -0.98597  -0.96662  -0.95790
 Alpha  occ. eigenvalues --   -0.87502  -0.84771  -0.84422  -0.83945  -0.83498
 Alpha  occ. eigenvalues --   -0.83020  -0.82518  -0.81777  -0.81520  -0.81302
 Alpha  occ. eigenvalues --   -0.80345  -0.79840  -0.79051  -0.78594  -0.77391
 Alpha  occ. eigenvalues --   -0.76967  -0.76191  -0.75316  -0.74963  -0.74380
 Alpha  occ. eigenvalues --   -0.73595  -0.72426  -0.71981  -0.71511  -0.70844
 Alpha  occ. eigenvalues --   -0.69939  -0.69521  -0.69493  -0.69299  -0.68248
 Alpha  occ. eigenvalues --   -0.67661  -0.67410  -0.66115  -0.64843  -0.64485
 Alpha  occ. eigenvalues --   -0.63143  -0.62749  -0.61440  -0.60745  -0.60176
 Alpha  occ. eigenvalues --   -0.59823  -0.59490  -0.59466  -0.58992  -0.58731
 Alpha  occ. eigenvalues --   -0.58057  -0.57473  -0.56731  -0.56530  -0.54952
 Alpha  occ. eigenvalues --   -0.54931  -0.54170  -0.53864  -0.53166  -0.52602
 Alpha  occ. eigenvalues --   -0.51900  -0.51464  -0.50939  -0.50737  -0.50561
 Alpha  occ. eigenvalues --   -0.50149  -0.49489  -0.48887  -0.48771  -0.48471
 Alpha  occ. eigenvalues --   -0.48250  -0.47992  -0.47697  -0.47626  -0.47571
 Alpha  occ. eigenvalues --   -0.47475  -0.47071  -0.46813  -0.46494  -0.46041
 Alpha  occ. eigenvalues --   -0.46020  -0.45590  -0.45488  -0.45377  -0.45266
 Alpha  occ. eigenvalues --   -0.44960  -0.44698  -0.44469  -0.44339  -0.44134
 Alpha  occ. eigenvalues --   -0.43951  -0.43775  -0.43563  -0.43421  -0.43415
 Alpha  occ. eigenvalues --   -0.43195  -0.42974  -0.42812  -0.42756  -0.42575
 Alpha  occ. eigenvalues --   -0.42160  -0.41787  -0.41667  -0.41450  -0.41274
 Alpha  occ. eigenvalues --   -0.41130  -0.41111  -0.40875  -0.40711  -0.40476
 Alpha  occ. eigenvalues --   -0.40436  -0.40351  -0.40202  -0.39883  -0.39748
 Alpha  occ. eigenvalues --   -0.39342  -0.39098  -0.38979  -0.38924  -0.38742
 Alpha  occ. eigenvalues --   -0.38706  -0.38569  -0.38472  -0.38018  -0.37829
 Alpha  occ. eigenvalues --   -0.37638  -0.37555  -0.37322  -0.37211  -0.36902
 Alpha  occ. eigenvalues --   -0.36717  -0.36390  -0.36248  -0.36184  -0.35972
 Alpha  occ. eigenvalues --   -0.35695  -0.35466  -0.35048  -0.34937  -0.34857
 Alpha  occ. eigenvalues --   -0.34558  -0.34344  -0.34281  -0.34025  -0.33706
 Alpha  occ. eigenvalues --   -0.33599  -0.33501  -0.32973  -0.32801  -0.32566
 Alpha  occ. eigenvalues --   -0.32266  -0.32154  -0.31614  -0.31600  -0.31147
 Alpha  occ. eigenvalues --   -0.31118  -0.30857  -0.29966  -0.29809  -0.29697
 Alpha  occ. eigenvalues --   -0.29114  -0.28924  -0.28584  -0.26658  -0.26343
 Alpha  occ. eigenvalues --   -0.25625  -0.25037  -0.24967  -0.24427  -0.20945
 Alpha  occ. eigenvalues --   -0.19078
 Alpha virt. eigenvalues --   -0.11411  -0.05199  -0.04306  -0.02307  -0.01238
 Alpha virt. eigenvalues --   -0.00018   0.00459   0.01181   0.01485   0.02714
 Alpha virt. eigenvalues --    0.03976   0.04452   0.05276   0.05422   0.05572

 Mulliken charges:
               1
     1  Mg   0.972207
     2  C   -0.087882
     3  C   -0.065722
     4  C   -0.039137
     5  C   -0.081992
     6  N   -0.410598
     7  C    0.087190
     8  C   -0.170890
     9  C   -0.105362
    10  C    0.051848
    11  C    0.015960
    12  C   -0.027520
    13  C    0.065068
    14  C    0.194278
    15  O   -0.270691
    16  O   -0.344252
    17  N   -0.564395
    18  C    0.186757
    19  C   -0.133228
    20  C   -0.073842
    21  C    0.177971
    22  C    0.024139
    23  C    0.037754
    24  O   -0.254587
    25  C   -0.033199
    26  N   -0.349308
    27  C    0.069090
    28  C   -0.116997
    29  C   -0.041553
    30  C    0.023498
    31  C   -0.023026
    32  C   -0.034152
    33  C   -0.082644
    34  N   -0.439219
    35  C    0.152380
    36  C   -0.201902
    37  C   -0.064845
    38  C    0.212687
    39  C    0.071373
    40  C    0.185538
    41  O   -0.252525
    42  C   -0.054804
    43  C    0.293969
    44  O   -0.270188
    45  O   -0.369616
    46  C    0.130278
    47  C    0.230640
    48  C   -0.127232
    49  C   -0.247930
    50  C    0.005604
    51  C   -0.011079
    52  C   -0.025018
    53  C   -0.017481
    54  C   -0.229645
    55  C   -0.000260
    56  C    0.023911
    57  C   -0.039312
    58  C    0.012348
    59  C   -0.236809
    60  C   -0.002718
    61  C    0.000774
    62  C   -0.074901
    63  C    0.012921
    64  C   -0.268748
    65  C   -0.031920
    66  C    0.004693
    67  H    0.006932
    68  H    0.017157
    69  H   -0.000800
    70  H    0.080921
    71  H    0.043142
    72  H    0.054976
    73  H    0.045142
    74  H    0.062668
    75  H    0.042631
    76  H    0.049385
    77  H    0.067633
    78  H    0.062635
    79  H    0.043757
    80  H    0.036850
    81  H    0.068028
    82  H    0.057848
    83  H    0.064858
    84  H    0.033200
    85  H    0.065837
    86  H    0.049466
    87  H    0.080091
    88  H    0.040324
    89  H    0.043149
    90  H    0.039407
    91  H    0.036006
    92  H    0.046409
    93  H    0.032581
    94  H    0.043438
    95  H    0.064907
    96  H    0.055982
    97  H    0.051927
    98  H    0.076803
    99  H    0.066349
   100  H    0.050376
   101  H    0.074859
   102  H    0.054212
   103  H    0.063292
   104  H    0.020832
   105  H    0.040803
   106  H    0.057045
   107  H    0.043044
   108  H    0.029312
   109  H    0.043517
   110  H    0.046051
   111  H    0.037932
   112  H    0.037748
   113  H    0.025267
   114  H    0.032077
   115  H    0.036226
   116  H    0.019544
   117  H    0.038929
   118  H    0.027890
   119  H    0.014134
   120  H    0.025569
   121  H    0.024955
   122  H    0.008888
   123  H    0.018625
   124  H    0.029016
   125  H    0.028451
   126  H    0.042502
   127  H    0.037033
   128  H    0.020991
   129  H    0.021603
   130  H    0.034133
   131  H    0.029728
   132  H    0.022233
   133  H    0.018348
   134  H    0.038481
   135  H    0.027905
   136  H    0.028465
   137  H    0.032135
   138  H    0.055306
   139  H    0.036834
   140  H    0.030326
 Sum of Mulliken charges =  -0.00000

 Dipole moment (field-independent basis, Debye):
    X=             -3.8122    Y=              0.4981    Z=              2.6543  Tot=              4.6719
 Quadrupole moment (field-independent basis, Debye-Ang):
   XX=           -372.7706   YY=           -433.8852   ZZ=           -404.3860
   XY=             24.6536   XZ=             14.9012   YZ=             -0.5807

 Normal termination of Gaussian 16 at Thu May  5 09:50:26 2022.
