 Gaussian 16, Revision A.03,
 Gaussian 16:  ES64L-G16RevA.03 25-Dec-2016

 --------------------------------
 #p wB97XD/Def2SVP td=(nstates=5)
 --------------------------------

 ----------------------------------------------------
 step_801_chromophore_18 TDDFT with wB97XD functional
 ----------------------------------------------------
 Symbolic Z-matrix:
 Charge =  0 Multiplicity = 1

                         Standard orientation:
 ---------------------------------------------------------------------
 Center     Atomic      Atomic             Coordinates (Angstroms)
 Number     Number       Type             X           Y           Z
 ---------------------------------------------------------------------
      1         12           0        5.266261    1.291435    0.178671
      2          6           0        4.924315   -2.273428    0.270375
      3          6           0        1.820739    1.575495   -0.096888
      4          6           0        5.887025    4.409338   -0.186205
      5          6           0        8.763555    0.634667   -0.150473
      6          7           0        3.600652   -0.211592    0.071465
      7          6           0        3.676138   -1.614931    0.156561
      8          6           0        2.235819   -2.189287    0.116763
      9          6           0        1.378111   -0.980298   -0.230500
     10          6           0        2.269677    0.234150   -0.019142
     11          6           0        0.673086   -1.037224   -1.647697
     12          6           0        1.884641   -2.897357    1.522517
     13          6           0        1.175376   -4.215703    1.510413
     14          6           0        0.178154   -4.341612    0.333098
     15          8           0        0.297302   -5.121584   -0.613577
     16          8           0       -0.909283   -3.502134    0.466301
     17          7           0        3.988205    2.829854   -0.045304
     18          6           0        2.571480    2.790234   -0.163541
     19          6           0        2.117453    4.140202   -0.297987
     20          6           0        3.325430    4.970098   -0.262799
     21          6           0        4.465544    4.094664   -0.201502
     22          6           0        0.648419    4.467859   -0.422733
     23          6           0        3.392688    6.480069   -0.245317
     24          8           0        4.409251    7.168021   -0.333623
     25          6           0        2.114647    7.378411   -0.233415
     26          7           0        7.057820    2.427292   -0.064777
     27          6           0        7.052998    3.706688   -0.079806
     28          6           0        8.399541    4.408845    0.154460
     29          6           0        9.377271    3.187243   -0.059901
     30          6           0        8.351355    1.970010   -0.118442
     31          6           0        8.684179    5.504562   -0.948096
     32          6           0       10.428656    3.005768    1.090642
     33          6           0       10.011323    2.283661    2.342787
     34          7           0        6.616291   -0.384909    0.093831
     35          6           0        7.999470   -0.473069   -0.000812
     36          6           0        8.420936   -1.886845    0.089109
     37          6           0        7.198480   -2.579127    0.198531
     38          6           0        6.207844   -1.663041    0.191767
     39          6           0        9.799586   -2.384431    0.145595
     40          6           0        6.601469   -3.969200    0.286525
     41          8           0        7.202247   -5.086877    0.263863
     42          6           0        5.113986   -3.812586    0.300231
     43          6           0        4.536434   -4.571592   -0.853595
     44          8           0        4.597090   -4.257240   -2.051540
     45          8           0        3.994728   -5.741887   -0.410117
     46          6           0        3.604177   -6.755258   -1.406598
     47          6           0       -1.812368   -3.717265   -0.631600
     48          6           0       -2.979666   -2.727708   -0.510860
     49          6           0       -4.178447   -2.787373   -1.102189
     50          6           0       -4.548052   -3.846602   -2.137118
     51          6           0       -5.245608   -1.651773   -0.919125
     52          6           0       -6.370995   -2.161100    0.028543
     53          6           0       -6.837951   -0.907891    0.777316
     54          6           0       -8.368221   -0.981331    1.360241
     55          6           0       -8.474887   -1.047379    2.867418
     56          6           0       -9.176895    0.140305    0.708075
     57          6           0      -10.420022   -0.362978   -0.034921
     58          6           0      -11.567356   -0.751405    0.893189
     59          6           0      -12.548626    0.387281    1.269124
     60          6           0      -12.767772    0.584934    2.807748
     61          6           0      -13.930597    0.103653    0.688131
     62          6           0      -14.780984    1.382336    0.490036
     63          6           0      -15.067519    1.711930   -0.948160
     64          6           0      -16.047165    2.910103   -1.048290
     65          6           0      -17.436770    2.498385   -1.649100
     66          6           0      -15.395787    4.111858   -1.799336
     67          1           0        0.732103    1.615629   -0.021960
     68          1           0        6.077996    5.475476   -0.324394
     69          1           0        9.843125    0.470841   -0.161668
     70          1           0        2.021210   -2.957920   -0.625922
     71          1           0        0.621747   -0.881480    0.548503
     72          1           0        0.867372   -0.088078   -2.147031
     73          1           0       -0.390305   -1.090747   -1.416204
     74          1           0        0.935578   -1.955176   -2.173236
     75          1           0        1.219344   -2.260115    2.105839
     76          1           0        2.847960   -2.903123    2.031568
     77          1           0        0.619943   -4.328393    2.441729
     78          1           0        1.967608   -4.955875    1.399386
     79          1           0        0.214600    5.223477    0.231647
     80          1           0       -0.061384    3.686579   -0.152124
     81          1           0        0.443588    4.878135   -1.411927
     82          1           0        2.449588    8.343608   -0.614093
     83          1           0        1.645960    7.494210    0.743699
     84          1           0        1.432460    6.881866   -0.923026
     85          1           0        8.526720    4.850052    1.142717
     86          1           0        9.862103    3.199497   -1.036081
     87          1           0        7.998843    6.322476   -0.725649
     88          1           0        8.545641    5.023644   -1.916505
     89          1           0        9.718386    5.828486   -1.071950
     90          1           0       10.744409    3.983915    1.453405
     91          1           0       11.367565    2.546510    0.783717
     92          1           0        8.957437    2.013161    2.274588
     93          1           0        9.996309    2.897100    3.244104
     94          1           0       10.537500    1.373579    2.628783
     95          1           0        9.845303   -3.469458    0.227288
     96          1           0       10.373102   -1.888804    0.928365
     97          1           0       10.246872   -2.127158   -0.814788
     98          1           0        4.619886   -4.198661    1.192263
     99          1           0        2.621780   -6.530070   -1.823107
    100          1           0        3.386743   -7.664652   -0.847023
    101          1           0        4.386088   -6.911651   -2.150141
    102          1           0       -2.192976   -4.737923   -0.684261
    103          1           0       -1.508693   -3.578440   -1.668819
    104          1           0       -2.931065   -1.944161    0.246257
    105          1           0       -5.256898   -3.542552   -2.906843
    106          1           0       -5.012625   -4.677497   -1.606268
    107          1           0       -3.648383   -4.166365   -2.661500
    108          1           0       -5.818026   -1.577300   -1.843873
    109          1           0       -4.722127   -0.700076   -0.834498
    110          1           0       -6.055535   -2.914377    0.751006
    111          1           0       -7.108072   -2.583631   -0.655240
    112          1           0       -6.664988    0.009288    0.213409
    113          1           0       -6.236834   -0.855057    1.684510
    114          1           0       -8.809690   -1.949991    1.126890
    115          1           0       -9.282609   -0.407731    3.220885
    116          1           0       -7.546075   -0.638941    3.266467
    117          1           0       -8.526751   -2.072492    3.233299
    118          1           0       -8.608753    0.830687    0.082839
    119          1           0       -9.527374    0.670009    1.593976
    120          1           0      -10.224795   -1.281747   -0.587495
    121          1           0      -10.721190    0.401745   -0.751494
    122          1           0      -11.172935   -1.120867    1.840288
    123          1           0      -12.145472   -1.592744    0.511406
    124          1           0      -12.180890    1.307780    0.816782
    125          1           0      -12.242124    1.484565    3.127001
    126          1           0      -12.390142   -0.230810    3.424690
    127          1           0      -13.829499    0.783803    2.950151
    128          1           0      -14.475952   -0.491327    1.421052
    129          1           0      -13.864970   -0.510926   -0.209171
    130          1           0      -14.278890    2.259430    0.896319
    131          1           0      -15.731603    1.224225    1.001029
    132          1           0      -15.490195    0.828569   -1.426828
    133          1           0      -14.158099    1.965037   -1.492687
    134          1           0      -16.364815    3.201335   -0.046870
    135          1           0      -17.393538    1.576433   -2.229029
    136          1           0      -17.860990    3.244226   -2.322227
    137          1           0      -18.200589    2.311942   -0.894924
    138          1           0      -15.674614    4.899131   -1.099731
    139          1           0      -15.801290    4.072971   -2.810520
    140          1           0      -14.335584    3.909053   -1.956029
 ---------------------------------------------------------------------

 SCF Done:  E(RwB97XD) =  -3007.85805240     A.U. after   19 cycles

 Excitation energies and oscillator strengths:

 Excited State   1:      Singlet-A      1.6653 eV  744.51 nm  f=0.3851  <S**2>=0.000
     245 -> 248       -0.18817
     246 -> 247        0.68229
     245 <- 248       -0.11788
 This state for optimization and/or second-order correction.
 Total Energy, E(TD-HF/TD-DFT) =  -3007.79685314
 Copying the excited state density for this state as the 1-particle RhoCI density.

 Excited State   2:      Singlet-A      2.1395 eV  579.49 nm  f=0.1410  <S**2>=0.000
     245 -> 247        0.64776
     246 -> 248        0.26576

 Excited State   3:      Singlet-A      3.2814 eV  377.84 nm  f=0.0006  <S**2>=0.000
     241 -> 247       -0.26474
     243 -> 247        0.21089
     244 -> 247        0.59279

 Excited State   4:      Singlet-A      3.4103 eV  363.56 nm  f=0.0002  <S**2>=0.000
     241 -> 247       -0.35386
     243 -> 247        0.40479
     243 -> 248       -0.10529
     243 -> 249        0.12764
     243 -> 250        0.23716
     244 -> 247       -0.27326
     244 -> 250       -0.11730

 Excited State   5:      Singlet-A      3.4508 eV  359.29 nm  f=0.0033  <S**2>=0.000
     241 -> 247        0.50010
     243 -> 247        0.35779
     243 -> 249        0.11256
     243 -> 250        0.17833
     246 -> 248       -0.19220

 The electronic state is 1-A.
 Alpha  occ. eigenvalues --  -46.94926 -19.32564 -19.30374 -19.26388 -19.24863
 Alpha  occ. eigenvalues --  -19.24398 -19.22754 -14.46805 -14.46677 -14.43924
 Alpha  occ. eigenvalues --  -14.43789 -10.44733 -10.43433 -10.40334 -10.38193
 Alpha  occ. eigenvalues --  -10.36532 -10.36104 -10.35423 -10.34974 -10.34945
 Alpha  occ. eigenvalues --  -10.34216 -10.33911 -10.33850 -10.33841 -10.33162
 Alpha  occ. eigenvalues --  -10.32965 -10.32887 -10.32696 -10.32581 -10.32574
 Alpha  occ. eigenvalues --  -10.32522 -10.32290 -10.32273 -10.31617 -10.31593
 Alpha  occ. eigenvalues --  -10.31385 -10.31025 -10.31015 -10.30776 -10.30727
 Alpha  occ. eigenvalues --  -10.30550 -10.30165 -10.30099 -10.29932 -10.29895
 Alpha  occ. eigenvalues --  -10.29860 -10.29797 -10.29753 -10.29667 -10.29646
 Alpha  occ. eigenvalues --  -10.29502 -10.29393 -10.29372 -10.29163 -10.28864
 Alpha  occ. eigenvalues --  -10.28809 -10.28711 -10.28527 -10.28350 -10.28345
 Alpha  occ. eigenvalues --  -10.28313 -10.28299 -10.28265 -10.28093 -10.28075
 Alpha  occ. eigenvalues --  -10.28026  -3.20881  -1.94480  -1.94007  -1.93847
 Alpha  occ. eigenvalues --   -1.20513  -1.17967  -1.11202  -1.10848  -1.10363
 Alpha  occ. eigenvalues --   -1.08833  -1.07815  -1.06135  -1.03911  -1.03132
 Alpha  occ. eigenvalues --   -0.95268  -0.92427  -0.92081  -0.91598  -0.91151
 Alpha  occ. eigenvalues --   -0.90665  -0.90120  -0.89446  -0.89161  -0.88956
 Alpha  occ. eigenvalues --   -0.87929  -0.87401  -0.86683  -0.86256  -0.85001
 Alpha  occ. eigenvalues --   -0.84611  -0.83858  -0.82922  -0.82596  -0.82025
 Alpha  occ. eigenvalues --   -0.81240  -0.80095  -0.79569  -0.79172  -0.78460
 Alpha  occ. eigenvalues --   -0.77600  -0.77178  -0.77103  -0.76957  -0.75900
 Alpha  occ. eigenvalues --   -0.75250  -0.75002  -0.73644  -0.72446  -0.72110
 Alpha  occ. eigenvalues --   -0.70740  -0.70380  -0.68925  -0.68349  -0.67657
 Alpha  occ. eigenvalues --   -0.67361  -0.67131  -0.66968  -0.66424  -0.66174
 Alpha  occ. eigenvalues --   -0.65728  -0.65103  -0.64368  -0.64025  -0.62491
 Alpha  occ. eigenvalues --   -0.62298  -0.61581  -0.61362  -0.60591  -0.60187
 Alpha  occ. eigenvalues --   -0.59252  -0.58885  -0.58404  -0.58180  -0.57942
 Alpha  occ. eigenvalues --   -0.57510  -0.56985  -0.56233  -0.56199  -0.55952
 Alpha  occ. eigenvalues --   -0.55637  -0.55416  -0.55066  -0.54992  -0.54946
 Alpha  occ. eigenvalues --   -0.54822  -0.54498  -0.54163  -0.53784  -0.53604
 Alpha  occ. eigenvalues --   -0.53356  -0.53029  -0.52833  -0.52718  -0.52615
 Alpha  occ. eigenvalues --   -0.52253  -0.52006  -0.51815  -0.51612  -0.51390
 Alpha  occ. eigenvalues --   -0.51344  -0.51054  -0.50827  -0.50754  -0.50738
 Alpha  occ. eigenvalues --   -0.50565  -0.50222  -0.50076  -0.50029  -0.49810
 Alpha  occ. eigenvalues --   -0.49426  -0.49030  -0.48977  -0.48764  -0.48508
 Alpha  occ. eigenvalues --   -0.48303  -0.48263  -0.48069  -0.47938  -0.47654
 Alpha  occ. eigenvalues --   -0.47601  -0.47493  -0.47355  -0.47107  -0.47023
 Alpha  occ. eigenvalues --   -0.46499  -0.46197  -0.46139  -0.46101  -0.45920
 Alpha  occ. eigenvalues --   -0.45872  -0.45720  -0.45615  -0.45151  -0.44893
 Alpha  occ. eigenvalues --   -0.44747  -0.44634  -0.44433  -0.44329  -0.44156
 Alpha  occ. eigenvalues --   -0.43792  -0.43522  -0.43319  -0.43294  -0.43069
 Alpha  occ. eigenvalues --   -0.42728  -0.42515  -0.42126  -0.41993  -0.41929
 Alpha  occ. eigenvalues --   -0.41554  -0.41363  -0.41301  -0.41061  -0.40714
 Alpha  occ. eigenvalues --   -0.40639  -0.40510  -0.40020  -0.39713  -0.39639
 Alpha  occ. eigenvalues --   -0.39343  -0.39210  -0.38630  -0.38468  -0.38296
 Alpha  occ. eigenvalues --   -0.38100  -0.37837  -0.37020  -0.36593  -0.36545
 Alpha  occ. eigenvalues --   -0.35890  -0.35763  -0.35709  -0.33720  -0.33181
 Alpha  occ. eigenvalues --   -0.32336  -0.31751  -0.31494  -0.31258  -0.25890
 Alpha  occ. eigenvalues --   -0.23289
 Alpha virt. eigenvalues --   -0.07340   0.00233   0.01904   0.04243   0.05643
 Alpha virt. eigenvalues --    0.05897   0.07142   0.07936   0.08186   0.09127
 Alpha virt. eigenvalues --    0.10378   0.11269   0.11999   0.12224   0.12339

 Mulliken charges:
               1
     1  Mg   0.961173
     2  C   -0.096286
     3  C   -0.078961
     4  C   -0.044840
     5  C   -0.101893
     6  N   -0.381783
     7  C    0.061470
     8  C   -0.140749
     9  C   -0.081780
    10  C    0.036239
    11  C    0.032691
    12  C   -0.019430
    13  C    0.085379
    14  C    0.183251
    15  O   -0.268005
    16  O   -0.341949
    17  N   -0.532893
    18  C    0.175939
    19  C   -0.123062
    20  C   -0.061535
    21  C    0.160166
    22  C    0.032135
    23  C    0.029291
    24  O   -0.250650
    25  C   -0.017000
    26  N   -0.312329
    27  C    0.050347
    28  C   -0.091795
    29  C   -0.022396
    30  C    0.017252
    31  C   -0.012952
    32  C   -0.021262
    33  C   -0.064747
    34  N   -0.401564
    35  C    0.148109
    36  C   -0.193805
    37  C   -0.063205
    38  C    0.203397
    39  C    0.079906
    40  C    0.164601
    41  O   -0.240403
    42  C   -0.013852
    43  C    0.267401
    44  O   -0.263297
    45  O   -0.366816
    46  C    0.143461
    47  C    0.242824
    48  C   -0.136060
    49  C   -0.231164
    50  C    0.017594
    51  C    0.007849
    52  C   -0.011928
    53  C    0.002493
    54  C   -0.208933
    55  C    0.015215
    56  C    0.045862
    57  C   -0.018782
    58  C    0.030059
    59  C   -0.210649
    60  C    0.009546
    61  C    0.021794
    62  C   -0.056528
    63  C    0.027737
    64  C   -0.241680
    65  C   -0.020213
    66  C    0.018833
    67  H   -0.000194
    68  H    0.005306
    69  H   -0.005605
    70  H    0.061472
    71  H    0.031309
    72  H    0.049208
    73  H    0.034445
    74  H    0.057330
    75  H    0.035966
    76  H    0.039336
    77  H    0.063756
    78  H    0.053503
    79  H    0.037404
    80  H    0.032537
    81  H    0.062390
    82  H    0.055563
    83  H    0.060962
    84  H    0.024528
    85  H    0.057790
    86  H    0.041142
    87  H    0.075717
    88  H    0.033235
    89  H    0.037465
    90  H    0.031627
    91  H    0.029681
    92  H    0.033177
    93  H    0.028245
    94  H    0.038286
    95  H    0.063248
    96  H    0.051956
    97  H    0.047198
    98  H    0.068863
    99  H    0.064142
   100  H    0.047007
   101  H    0.071534
   102  H    0.048178
   103  H    0.056362
   104  H    0.017296
   105  H    0.036399
   106  H    0.051251
   107  H    0.037098
   108  H    0.019768
   109  H    0.037276
   110  H    0.037914
   111  H    0.029540
   112  H    0.027520
   113  H    0.014498
   114  H    0.017771
   115  H    0.028068
   116  H    0.012528
   117  H    0.034603
   118  H    0.021491
   119  H   -0.001701
   120  H    0.016451
   121  H    0.017177
   122  H   -0.008802
   123  H    0.011363
   124  H    0.014447
   125  H    0.023007
   126  H    0.037421
   127  H    0.029376
   128  H    0.010453
   129  H    0.012037
   130  H    0.023115
   131  H    0.020792
   132  H    0.012104
   133  H    0.007848
   134  H    0.026240
   135  H    0.020964
   136  H    0.022282
   137  H    0.026670
   138  H    0.050704
   139  H    0.030254
   140  H    0.023872
 Sum of Mulliken charges =  -0.00000

 Dipole moment (field-independent basis, Debye):
    X=             -3.5324    Y=              0.1939    Z=              2.7290  Tot=              4.4680
 Quadrupole moment (field-independent basis, Debye-Ang):
   XX=           -369.9187   YY=           -433.2420   ZZ=           -403.9791
   XY=             22.2974   XZ=             15.4479   YZ=             -0.6726

 Normal termination of Gaussian 16 at Thu May  5 10:37:06 2022.
