 Gaussian 16, Revision A.03,
 Gaussian 16:  ES64L-G16RevA.03 25-Dec-2016

 --------------------
 #p ZINDO=(nstates=5)
 --------------------

 -----------------------------
 step_801_chromophore_18 ZINDO
 -----------------------------
 Symbolic Z-matrix:
 Charge =  0 Multiplicity = 1

                         Standard orientation:
 ---------------------------------------------------------------------
 Center     Atomic      Atomic             Coordinates (Angstroms)
 Number     Number       Type             X           Y           Z
 ---------------------------------------------------------------------
      1         12           0        5.266261    1.291435    0.178671
      2          6           0        4.924315   -2.273428    0.270375
      3          6           0        1.820739    1.575495   -0.096888
      4          6           0        5.887025    4.409338   -0.186205
      5          6           0        8.763555    0.634667   -0.150473
      6          7           0        3.600652   -0.211592    0.071465
      7          6           0        3.676138   -1.614931    0.156561
      8          6           0        2.235819   -2.189287    0.116763
      9          6           0        1.378111   -0.980298   -0.230500
     10          6           0        2.269677    0.234150   -0.019142
     11          6           0        0.673086   -1.037224   -1.647697
     12          6           0        1.884641   -2.897357    1.522517
     13          6           0        1.175376   -4.215703    1.510413
     14          6           0        0.178154   -4.341612    0.333098
     15          8           0        0.297302   -5.121584   -0.613577
     16          8           0       -0.909283   -3.502134    0.466301
     17          7           0        3.988205    2.829854   -0.045304
     18          6           0        2.571480    2.790234   -0.163541
     19          6           0        2.117453    4.140202   -0.297987
     20          6           0        3.325430    4.970098   -0.262799
     21          6           0        4.465544    4.094664   -0.201502
     22          6           0        0.648419    4.467859   -0.422733
     23          6           0        3.392688    6.480069   -0.245317
     24          8           0        4.409251    7.168021   -0.333623
     25          6           0        2.114647    7.378411   -0.233415
     26          7           0        7.057820    2.427292   -0.064777
     27          6           0        7.052998    3.706688   -0.079806
     28          6           0        8.399541    4.408845    0.154460
     29          6           0        9.377271    3.187243   -0.059901
     30          6           0        8.351355    1.970010   -0.118442
     31          6           0        8.684179    5.504562   -0.948096
     32          6           0       10.428656    3.005768    1.090642
     33          6           0       10.011323    2.283661    2.342787
     34          7           0        6.616291   -0.384909    0.093831
     35          6           0        7.999470   -0.473069   -0.000812
     36          6           0        8.420936   -1.886845    0.089109
     37          6           0        7.198480   -2.579127    0.198531
     38          6           0        6.207844   -1.663041    0.191767
     39          6           0        9.799586   -2.384431    0.145595
     40          6           0        6.601469   -3.969200    0.286525
     41          8           0        7.202247   -5.086877    0.263863
     42          6           0        5.113986   -3.812586    0.300231
     43          6           0        4.536434   -4.571592   -0.853595
     44          8           0        4.597090   -4.257240   -2.051540
     45          8           0        3.994728   -5.741887   -0.410117
     46          6           0        3.604177   -6.755258   -1.406598
     47          6           0       -1.812368   -3.717265   -0.631600
     48          6           0       -2.979666   -2.727708   -0.510860
     49          6           0       -4.178447   -2.787373   -1.102189
     50          6           0       -4.548052   -3.846602   -2.137118
     51          6           0       -5.245608   -1.651773   -0.919125
     52          6           0       -6.370995   -2.161100    0.028543
     53          6           0       -6.837951   -0.907891    0.777316
     54          6           0       -8.368221   -0.981331    1.360241
     55          6           0       -8.474887   -1.047379    2.867418
     56          6           0       -9.176895    0.140305    0.708075
     57          6           0      -10.420022   -0.362978   -0.034921
     58          6           0      -11.567356   -0.751405    0.893189
     59          6           0      -12.548626    0.387281    1.269124
     60          6           0      -12.767772    0.584934    2.807748
     61          6           0      -13.930597    0.103653    0.688131
     62          6           0      -14.780984    1.382336    0.490036
     63          6           0      -15.067519    1.711930   -0.948160
     64          6           0      -16.047165    2.910103   -1.048290
     65          6           0      -17.436770    2.498385   -1.649100
     66          6           0      -15.395787    4.111858   -1.799336
     67          1           0        0.732103    1.615629   -0.021960
     68          1           0        6.077996    5.475476   -0.324394
     69          1           0        9.843125    0.470841   -0.161668
     70          1           0        2.021210   -2.957920   -0.625922
     71          1           0        0.621747   -0.881480    0.548503
     72          1           0        0.867372   -0.088078   -2.147031
     73          1           0       -0.390305   -1.090747   -1.416204
     74          1           0        0.935578   -1.955176   -2.173236
     75          1           0        1.219344   -2.260115    2.105839
     76          1           0        2.847960   -2.903123    2.031568
     77          1           0        0.619943   -4.328393    2.441729
     78          1           0        1.967608   -4.955875    1.399386
     79          1           0        0.214600    5.223477    0.231647
     80          1           0       -0.061384    3.686579   -0.152124
     81          1           0        0.443588    4.878135   -1.411927
     82          1           0        2.449588    8.343608   -0.614093
     83          1           0        1.645960    7.494210    0.743699
     84          1           0        1.432460    6.881866   -0.923026
     85          1           0        8.526720    4.850052    1.142717
     86          1           0        9.862103    3.199497   -1.036081
     87          1           0        7.998843    6.322476   -0.725649
     88          1           0        8.545641    5.023644   -1.916505
     89          1           0        9.718386    5.828486   -1.071950
     90          1           0       10.744409    3.983915    1.453405
     91          1           0       11.367565    2.546510    0.783717
     92          1           0        8.957437    2.013161    2.274588
     93          1           0        9.996309    2.897100    3.244104
     94          1           0       10.537500    1.373579    2.628783
     95          1           0        9.845303   -3.469458    0.227288
     96          1           0       10.373102   -1.888804    0.928365
     97          1           0       10.246872   -2.127158   -0.814788
     98          1           0        4.619886   -4.198661    1.192263
     99          1           0        2.621780   -6.530070   -1.823107
    100          1           0        3.386743   -7.664652   -0.847023
    101          1           0        4.386088   -6.911651   -2.150141
    102          1           0       -2.192976   -4.737923   -0.684261
    103          1           0       -1.508693   -3.578440   -1.668819
    104          1           0       -2.931065   -1.944161    0.246257
    105          1           0       -5.256898   -3.542552   -2.906843
    106          1           0       -5.012625   -4.677497   -1.606268
    107          1           0       -3.648383   -4.166365   -2.661500
    108          1           0       -5.818026   -1.577300   -1.843873
    109          1           0       -4.722127   -0.700076   -0.834498
    110          1           0       -6.055535   -2.914377    0.751006
    111          1           0       -7.108072   -2.583631   -0.655240
    112          1           0       -6.664988    0.009288    0.213409
    113          1           0       -6.236834   -0.855057    1.684510
    114          1           0       -8.809690   -1.949991    1.126890
    115          1           0       -9.282609   -0.407731    3.220885
    116          1           0       -7.546075   -0.638941    3.266467
    117          1           0       -8.526751   -2.072492    3.233299
    118          1           0       -8.608753    0.830687    0.082839
    119          1           0       -9.527374    0.670009    1.593976
    120          1           0      -10.224795   -1.281747   -0.587495
    121          1           0      -10.721190    0.401745   -0.751494
    122          1           0      -11.172935   -1.120867    1.840288
    123          1           0      -12.145472   -1.592744    0.511406
    124          1           0      -12.180890    1.307780    0.816782
    125          1           0      -12.242124    1.484565    3.127001
    126          1           0      -12.390142   -0.230810    3.424690
    127          1           0      -13.829499    0.783803    2.950151
    128          1           0      -14.475952   -0.491327    1.421052
    129          1           0      -13.864970   -0.510926   -0.209171
    130          1           0      -14.278890    2.259430    0.896319
    131          1           0      -15.731603    1.224225    1.001029
    132          1           0      -15.490195    0.828569   -1.426828
    133          1           0      -14.158099    1.965037   -1.492687
    134          1           0      -16.364815    3.201335   -0.046870
    135          1           0      -17.393538    1.576433   -2.229029
    136          1           0      -17.860990    3.244226   -2.322227
    137          1           0      -18.200589    2.311942   -0.894924
    138          1           0      -15.674614    4.899131   -1.099731
    139          1           0      -15.801290    4.072971   -2.810520
    140          1           0      -14.335584    3.909053   -1.956029
 ---------------------------------------------------------------------

 SCF Done:  E(RZINDO/S) =  -474.197738009     A.U. after   19 cycles

 Excitation energies and oscillator strengths:

 Excited State   1:      Singlet-A      1.2671 eV  978.51 nm  f=0.6015  <S**2>=0.000
     175 ->178         0.18580
     176 ->177         0.66426
 This state for optimization and/or second-order correction.
 Total Energy, E(CIS/TDA) =  -474.151173798
 Copying the excited state density for this state as the 1-particle RhoCI density.

 Excited State   2:      Singlet-A      1.9213 eV  645.30 nm  f=0.0836  <S**2>=0.000
     175 ->177         0.57087
     176 ->178        -0.38484

 Excited State   3:      Singlet-A      2.8998 eV  427.57 nm  f=0.0004  <S**2>=0.000
     170 ->181        -0.10747
     171 ->177         0.28153
     171 ->178        -0.10110
     171 ->179         0.17297
     171 ->180         0.11724
     171 ->181         0.40160
     171 ->182        -0.19730
     171 ->185        -0.16215
     171 ->187         0.22336
     171 ->200         0.11458

 Excited State   4:      Singlet-A      2.9514 eV  420.09 nm  f=0.0015  <S**2>=0.000
     167 ->177         0.10267
     167 ->179        -0.18950
     168 ->177         0.30914
     168 ->178        -0.11834
     168 ->179        -0.47742
     168 ->181         0.10712
     168 ->185         0.17171

 Excited State   5:      Singlet-A      3.0527 eV  406.15 nm  f=0.9419  <S**2>=0.000
     175 ->177         0.32595
     176 ->178         0.52393
     176 ->179         0.28772

 The electronic state is 1-A.
 Alpha  occ. eigenvalues --   -1.85192  -1.81758  -1.78120  -1.74750  -1.71726
 Alpha  occ. eigenvalues --   -1.69543  -1.66843  -1.61271  -1.58001  -1.57094
 Alpha  occ. eigenvalues --   -1.55673  -1.51518  -1.48599  -1.47686  -1.47004
 Alpha  occ. eigenvalues --   -1.44346  -1.43272  -1.40581  -1.39405  -1.37212
 Alpha  occ. eigenvalues --   -1.36314  -1.34733  -1.33004  -1.30690  -1.29457
 Alpha  occ. eigenvalues --   -1.27992  -1.25538  -1.19992  -1.18622  -1.18222
 Alpha  occ. eigenvalues --   -1.16961  -1.15486  -1.14756  -1.14630  -1.12849
 Alpha  occ. eigenvalues --   -1.11555  -1.10200  -1.09834  -1.04946  -1.04716
 Alpha  occ. eigenvalues --   -1.02286  -1.01482  -0.99180  -0.98500  -0.98155
 Alpha  occ. eigenvalues --   -0.95975  -0.94750  -0.93668  -0.93306  -0.92486
 Alpha  occ. eigenvalues --   -0.91404  -0.90029  -0.88456  -0.87966  -0.87650
 Alpha  occ. eigenvalues --   -0.86781  -0.84702  -0.83941  -0.81944  -0.81072
 Alpha  occ. eigenvalues --   -0.79593  -0.78823  -0.77140  -0.76408  -0.75996
 Alpha  occ. eigenvalues --   -0.75310  -0.75147  -0.74777  -0.73898  -0.73757
 Alpha  occ. eigenvalues --   -0.72971  -0.72547  -0.72131  -0.70722  -0.70539
 Alpha  occ. eigenvalues --   -0.69260  -0.68987  -0.68596  -0.67988  -0.67793
 Alpha  occ. eigenvalues --   -0.67273  -0.67076  -0.66143  -0.65263  -0.65032
 Alpha  occ. eigenvalues --   -0.64566  -0.64486  -0.64330  -0.63780  -0.63638
 Alpha  occ. eigenvalues --   -0.63292  -0.63099  -0.62701  -0.62535  -0.62099
 Alpha  occ. eigenvalues --   -0.61652  -0.61101  -0.60869  -0.60540  -0.60099
 Alpha  occ. eigenvalues --   -0.59749  -0.59540  -0.59387  -0.59137  -0.58517
 Alpha  occ. eigenvalues --   -0.58462  -0.58261  -0.57403  -0.57185  -0.55924
 Alpha  occ. eigenvalues --   -0.55785  -0.55418  -0.55102  -0.54906  -0.54478
 Alpha  occ. eigenvalues --   -0.53863  -0.53765  -0.53620  -0.53216  -0.52933
 Alpha  occ. eigenvalues --   -0.52647  -0.52453  -0.52411  -0.51470  -0.51427
 Alpha  occ. eigenvalues --   -0.51035  -0.50760  -0.50585  -0.50249  -0.49858
 Alpha  occ. eigenvalues --   -0.49609  -0.49258  -0.49216  -0.49005  -0.48863
 Alpha  occ. eigenvalues --   -0.48692  -0.48452  -0.48197  -0.47915  -0.47618
 Alpha  occ. eigenvalues --   -0.47398  -0.47214  -0.46904  -0.46731  -0.46121
 Alpha  occ. eigenvalues --   -0.46038  -0.45870  -0.45588  -0.45430  -0.45381
 Alpha  occ. eigenvalues --   -0.45047  -0.44857  -0.44104  -0.43874  -0.43832
 Alpha  occ. eigenvalues --   -0.43741  -0.43220  -0.43084  -0.42821  -0.42404
 Alpha  occ. eigenvalues --   -0.42276  -0.41405  -0.41227  -0.39388  -0.39118
 Alpha  occ. eigenvalues --   -0.38574  -0.37423  -0.36441  -0.35182  -0.33795
 Alpha  occ. eigenvalues --   -0.33666  -0.32180  -0.31995  -0.31553  -0.26609
 Alpha  occ. eigenvalues --   -0.22049
 Alpha virt. eigenvalues --   -0.08822  -0.01989  -0.01175   0.01210   0.01417
 Alpha virt. eigenvalues --    0.02482   0.02574   0.02779   0.04454   0.05230
 Alpha virt. eigenvalues --    0.06467   0.06589   0.07099   0.07684   0.08101

 Mulliken charges:
               1
     1  Mg   0.426785
     2  C   -0.071912
     3  C   -0.071262
     4  C   -0.063094
     5  C   -0.047041
     6  N   -0.309314
     7  C    0.145809
     8  C    0.005514
     9  C    0.005522
    10  C    0.105056
    11  C   -0.053036
    12  C   -0.029029
    13  C    0.013884
    14  C    0.466076
    15  O   -0.519032
    16  O   -0.254011
    17  N   -0.327899
    18  C    0.077440
    19  C   -0.007882
    20  C   -0.052962
    21  C    0.132446
    22  C   -0.043686
    23  C    0.310907
    24  O   -0.538267
    25  C   -0.037253
    26  N   -0.241111
    27  C    0.141044
    28  C    0.001990
    29  C   -0.000577
    30  C    0.133168
    31  C   -0.058618
    32  C   -0.023392
    33  C   -0.055682
    34  N   -0.345552
    35  C    0.116953
    36  C    0.056483
    37  C   -0.043723
    38  C    0.156648
    39  C   -0.029776
    40  C    0.340936
    41  O   -0.524518
    42  C    0.065272
    43  C    0.494048
    44  O   -0.526408
    45  O   -0.268268
    46  C    0.076838
    47  C    0.108455
    48  C   -0.102232
    49  C   -0.022087
    50  C   -0.045994
    51  C   -0.032250
    52  C   -0.020619
    53  C   -0.043803
    54  C   -0.022463
    55  C   -0.055643
    56  C   -0.032731
    57  C   -0.028640
    58  C   -0.035485
    59  C   -0.013721
    60  C   -0.060073
    61  C   -0.036514
    62  C   -0.033452
    63  C   -0.030191
    64  C   -0.023023
    65  C   -0.062627
    66  C   -0.068040
    67  H    0.025678
    68  H    0.034559
    69  H    0.022588
    70  H    0.046801
    71  H    0.021011
    72  H    0.033513
    73  H    0.016178
    74  H    0.037128
    75  H    0.020682
    76  H    0.023698
    77  H    0.042455
    78  H    0.040290
    79  H    0.019004
    80  H    0.022933
    81  H    0.029459
    82  H    0.040154
    83  H    0.039065
    84  H    0.027098
    85  H    0.045439
    86  H    0.037767
    87  H    0.036513
    88  H    0.020368
    89  H    0.019250
    90  H    0.015192
    91  H    0.018041
    92  H    0.015243
    93  H    0.014222
    94  H    0.021640
    95  H    0.038628
    96  H    0.035051
    97  H    0.032600
    98  H    0.055937
    99  H    0.048183
   100  H    0.027732
   101  H    0.056748
   102  H    0.048133
   103  H    0.057399
   104  H    0.026582
   105  H    0.021560
   106  H    0.029044
   107  H    0.023076
   108  H    0.012879
   109  H    0.037417
   110  H    0.028093
   111  H    0.025102
   112  H    0.028846
   113  H    0.015083
   114  H    0.017353
   115  H    0.024435
   116  H    0.010914
   117  H    0.020191
   118  H    0.022217
   119  H    0.016339
   120  H    0.014243
   121  H    0.015578
   122  H    0.013704
   123  H    0.015403
   124  H    0.021703
   125  H    0.009751
   126  H    0.026613
   127  H    0.022727
   128  H    0.011711
   129  H    0.016109
   130  H    0.019812
   131  H    0.017311
   132  H    0.015781
   133  H    0.018329
   134  H    0.017958
   135  H    0.014671
   136  H    0.014229
   137  H    0.014307
   138  H    0.036385
   139  H    0.026821
   140  H    0.022960
 Sum of Mulliken charges =  -0.00000

 Dipole moment (field-independent basis, Debye):
    X=             -2.9867    Y=             -0.2385    Z=              4.7765  Tot=              5.6385
 N-N= 4.277289651288D+03 E-N= 0.000000000000D+00  KE=-9.228880939020D+03
 Leave Link  601 at Thu May  5 10:56:42 2022, MaxMem=  6710886400 cpu:               1.8 elap:               0.1
 (Enter /sw/apps/gaussian-16.0/g16/l9999.exe)
 1\1\GINC-BP1-COMPUTE197\SP\RZINDO CIS\STO-3G\C55H74Mg1N4O6\OF15641\05-
 May-2022\0\\#p ZINDO=(nstates=5)\\step_801_chromophore_18 ZINDO\\0,1\M
 g,0,34.888,49.636,25.582\C,0,35.398,47.633,28.508\C,0,33.288,52.013,27
 .536\C,0,34.304,51.063,22.778\C,0,36.014,46.754,23.794\N,0,34.394,49.7
 52,27.77\C,0,34.719,48.842,28.794\C,0,34.227,49.424,30.145\C,0,33.397,
 50.632,29.733\C,0,33.738,50.89,28.273\C,0,31.846,50.52,30.034\C,0,35.4
 87,49.751,31.097\C,0,35.413,49.382,32.546\C,0,33.981,49.514,33.119\O,0

 Normal termination of Gaussian 16 at Thu May  5 10:56:43 2022.
