 Gaussian 16, Revision A.03,
 Gaussian 16:  ES64L-G16RevA.03 25-Dec-2016

 ------------------------------
 #p blyp/Def2SVP td=(nstates=5)
 ------------------------------

 ---------------------------------------------------
 step_1451_chromophore_13 TDDFT with blyp functional
 ---------------------------------------------------
 Symbolic Z-matrix:
 Charge =  0 Multiplicity = 1

                         Standard orientation:
 ---------------------------------------------------------------------
 Center     Atomic      Atomic             Coordinates (Angstroms)
 Number     Number       Type             X           Y           Z
 ---------------------------------------------------------------------
      1         12           0       -5.732480    0.313341   -0.049032
      2          6           0       -3.505934   -2.384479    0.060429
      3          6           0       -3.072968    2.415383    0.609474
      4          6           0       -7.881541    2.924246    0.204641
      5          6           0       -8.363006   -1.841170   -0.669058
      6          7           0       -3.450270   -0.023009    0.328219
      7          6           0       -2.837487   -1.177954    0.327448
      8          6           0       -1.321119   -0.870096    0.450149
      9          6           0       -1.177335    0.627256    0.794927
     10          6           0       -2.639058    1.034848    0.570972
     11          6           0       -0.677576    1.019126    2.248717
     12          6           0       -0.503388   -1.340959   -0.766816
     13          6           0        0.479686   -2.549807   -0.607359
     14          6           0        1.844099   -2.241395   -1.197445
     15          8           0        2.021512   -1.756633   -2.304524
     16          8           0        2.861810   -2.636612   -0.363200
     17          7           0       -5.514471    2.427678    0.188645
     18          6           0       -4.313658    3.017869    0.460188
     19          6           0       -4.593837    4.452431    0.497700
     20          6           0       -6.011610    4.711836    0.346579
     21          6           0       -6.560415    3.318295    0.212469
     22          6           0       -3.476768    5.464409    0.945370
     23          6           0       -6.817810    6.080188    0.388687
     24          8           0       -8.063268    6.181593    0.337178
     25          6           0       -6.086625    7.239026    0.740694
     26          7           0       -7.890927    0.413691   -0.065405
     27          6           0       -8.470178    1.660319    0.105183
     28          6           0      -10.039487    1.469812   -0.037115
     29          6           0      -10.124507    0.056727   -0.748854
     30          6           0       -8.736311   -0.513060   -0.482854
     31          6           0      -10.764511    1.744920    1.310736
     32          6           0      -10.360459    0.114361   -2.279465
     33          6           0       -9.242952    0.768573   -3.237198
     34          7           0       -5.912019   -1.647072   -0.302762
     35          6           0       -7.033996   -2.446574   -0.609950
     36          6           0       -6.602855   -3.771705   -0.722431
     37          6           0       -5.274760   -3.809164   -0.407802
     38          6           0       -4.874697   -2.511839   -0.199372
     39          6           0       -7.494327   -4.884468   -0.860029
     40          6           0       -4.122529   -4.679292   -0.140433
     41          8           0       -4.121974   -5.889313   -0.066051
     42          6           0       -2.920073   -3.826554    0.157855
     43          6           0       -2.439134   -4.287357    1.509408
     44          8           0       -2.927434   -4.212143    2.638137
     45          8           0       -1.187452   -4.842409    1.358316
     46          6           0       -0.456607   -5.144931    2.636854
     47          6           0        4.240208   -2.411170   -0.764224
     48          6           0        4.891286   -1.282645   -0.129128
     49          6           0        6.203603   -1.079709   -0.002861
     50          6           0        7.305765   -1.990346   -0.667995
     51          6           0        6.680681   -0.016821    0.873201
     52          6           0        6.843599    1.363619    0.168176
     53          6           0        8.326078    1.830337    0.340504
     54          6           0        8.847046    2.624532   -0.852700
     55          6           0        7.928728    3.908180   -1.024013
     56          6           0        9.143385    1.811351   -2.124644
     57          6           0       10.725650    1.879387   -2.500232
     58          6           0       11.421336    0.553978   -2.721094
     59          6           0       12.846399    0.508644   -2.096046
     60          6           0       13.814666   -0.397518   -2.749101
     61          6           0       12.619637    0.258811   -0.570754
     62          6           0       13.481925    1.177027    0.359974
     63          6           0       12.634897    1.362011    1.664754
     64          6           0       12.424112    0.130090    2.586438
     65          6           0       11.096184   -0.624425    2.324340
     66          6           0       12.808925    0.406535    3.986810
     67          1           0       -2.183761    3.038599    0.727586
     68          1           0       -8.577184    3.748542    0.381751
     69          1           0       -9.184754   -2.479779   -0.999485
     70          1           0       -0.999447   -1.358912    1.370019
     71          1           0       -0.441320    1.136815    0.172320
     72          1           0        0.188583    0.398040    2.475992
     73          1           0       -1.468808    0.915647    2.991553
     74          1           0       -0.264350    2.027641    2.241912
     75          1           0        0.199826   -0.559755   -1.054553
     76          1           0       -1.233947   -1.481603   -1.564101
     77          1           0       -0.036944   -3.340927   -1.150652
     78          1           0        0.649666   -2.868866    0.421397
     79          1           0       -3.335595    6.153983    0.113206
     80          1           0       -2.487610    5.058643    1.161330
     81          1           0       -3.829152    6.070282    1.779041
     82          1           0       -5.147759    7.446999    0.227312
     83          1           0       -5.671221    6.990143    1.717562
     84          1           0       -6.792785    8.056486    0.881243
     85          1           0      -10.289856    2.240681   -0.766017
     86          1           0      -10.860235   -0.598050   -0.281259
     87          1           0      -11.461562    0.910254    1.390478
     88          1           0      -11.306102    2.689908    1.301321
     89          1           0      -10.104845    1.733872    2.178853
     90          1           0      -11.407333    0.304109   -2.515398
     91          1           0      -10.385065   -0.940917   -2.551971
     92          1           0       -9.853675    1.492590   -3.776869
     93          1           0       -8.734346    0.057323   -3.888421
     94          1           0       -8.564027    1.454773   -2.731231
     95          1           0       -7.264859   -5.584827   -1.662253
     96          1           0       -8.541552   -4.581075   -0.853627
     97          1           0       -7.485125   -5.444423    0.075316
     98          1           0       -2.221412   -4.105689   -0.631224
     99          1           0        0.504180   -4.646009    2.770909
    100          1           0       -0.143544   -6.184652    2.551580
    101          1           0       -1.003743   -5.142502    3.579653
    102          1           0        4.252907   -2.244565   -1.840984
    103          1           0        4.709726   -3.383750   -0.620108
    104          1           0        4.216213   -0.682088    0.481218
    105          1           0        8.142924   -1.353753   -0.955244
    106          1           0        6.931223   -2.471578   -1.570968
    107          1           0        7.668491   -2.689909    0.085327
    108          1           0        7.581298   -0.284957    1.425821
    109          1           0        5.910629    0.028713    1.644278
    110          1           0        6.063414    2.006779    0.574319
    111          1           0        6.568921    1.262915   -0.881946
    112          1           0        9.108865    1.078033    0.430114
    113          1           0        8.434199    2.371338    1.280962
    114          1           0        9.831225    3.022440   -0.606049
    115          1           0        7.503990    3.960780   -2.026647
    116          1           0        8.638082    4.734555   -1.054787
    117          1           0        7.215480    4.129192   -0.229552
    118          1           0        8.488910    2.128915   -2.936773
    119          1           0        9.013197    0.763776   -1.852080
    120          1           0       11.349184    2.473834   -1.833165
    121          1           0       10.728274    2.393908   -3.460515
    122          1           0       11.608904    0.398608   -3.783605
    123          1           0       10.793293   -0.263781   -2.365762
    124          1           0       13.399316    1.429962   -2.282064
    125          1           0       14.287572   -1.045547   -2.011674
    126          1           0       14.641679    0.206579   -3.122704
    127          1           0       13.354922   -0.955057   -3.565127
    128          1           0       12.823524   -0.790569   -0.356868
    129          1           0       11.559078    0.305334   -0.321046
    130          1           0       13.819437    2.133099   -0.040460
    131          1           0       14.405023    0.616460    0.507365
    132          1           0       11.672151    1.827474    1.451203
    133          1           0       13.296249    2.055847    2.182882
    134          1           0       13.168720   -0.561918    2.191787
    135          1           0       11.253265   -1.604622    1.872373
    136          1           0       10.463561   -0.047716    1.649889
    137          1           0       10.664049   -0.738241    3.318238
    138          1           0       12.815695    1.482270    4.161743
    139          1           0       13.805835   -0.013537    4.122800
    140          1           0       12.185968   -0.105651    4.720983
 ---------------------------------------------------------------------

 SCF Done:  E(RB-LYP) =  -3007.33286338     A.U. after   21 cycles

 Excitation energies and oscillator strengths:

 Excited State   1:      Singlet-A      1.8909 eV  655.68 nm  f=0.2868  <S**2>=0.000
     245 -> 248       -0.21673
     246 -> 247        0.67830
     246 <- 247       -0.13035
 This state for optimization and/or second-order correction.
 Total Energy, E(TD-HF/TD-DFT) =  -3007.26337268
 Copying the excited state density for this state as the 1-particle RhoCI density.

 Excited State   2:      Singlet-A      2.0364 eV  608.84 nm  f=0.0055  <S**2>=0.000
     244 -> 247        0.68518
     245 -> 247        0.15998

 Excited State   3:      Singlet-A      2.0742 eV  597.76 nm  f=0.0703  <S**2>=0.000
     244 -> 247       -0.17165
     245 -> 247        0.62516
     246 -> 248        0.25270

 Excited State   4:      Singlet-A      2.2385 eV  553.87 nm  f=0.0002  <S**2>=0.000
     243 -> 247        0.70619

 Excited State   5:      Singlet-A      2.2650 eV  547.40 nm  f=0.0000  <S**2>=0.000
     242 -> 247        0.70710

 The electronic state is 1-A.
 Alpha  occ. eigenvalues --  -46.27096 -18.82076 -18.82060 -18.76729 -18.76515
 Alpha  occ. eigenvalues --  -18.76169 -18.75426 -14.03197 -14.02597 -14.01274
 Alpha  occ. eigenvalues --  -14.00500 -10.04275 -10.04081 -10.00734  -9.99296
 Alpha  occ. eigenvalues --   -9.97373  -9.97359  -9.96892  -9.96397  -9.96379
 Alpha  occ. eigenvalues --   -9.96134  -9.95959  -9.95925  -9.95466  -9.94828
 Alpha  occ. eigenvalues --   -9.94668  -9.94436  -9.94141  -9.94116  -9.93957
 Alpha  occ. eigenvalues --   -9.93886  -9.93844  -9.93568  -9.93539  -9.93439
 Alpha  occ. eigenvalues --   -9.93343  -9.93176  -9.93118  -9.93096  -9.92875
 Alpha  occ. eigenvalues --   -9.92779  -9.92560  -9.92362  -9.92238  -9.92201
 Alpha  occ. eigenvalues --   -9.92153  -9.92151  -9.92065  -9.91838  -9.91663
 Alpha  occ. eigenvalues --   -9.91614  -9.91566  -9.91537  -9.91389  -9.91379
 Alpha  occ. eigenvalues --   -9.91244  -9.91234  -9.91228  -9.91203  -9.91141
 Alpha  occ. eigenvalues --   -9.91045  -9.91031  -9.90784  -9.90729  -9.90479
 Alpha  occ. eigenvalues --   -9.90051  -2.91687  -1.72123  -1.71580  -1.71385
 Alpha  occ. eigenvalues --   -0.97827  -0.97082  -0.91946  -0.90829  -0.90022
 Alpha  occ. eigenvalues --   -0.88411  -0.87475  -0.86170  -0.85583  -0.84881
 Alpha  occ. eigenvalues --   -0.75787  -0.74181  -0.73466  -0.72747  -0.72274
 Alpha  occ. eigenvalues --   -0.72058  -0.71529  -0.71140  -0.71083  -0.70539
 Alpha  occ. eigenvalues --   -0.70030  -0.69321  -0.68208  -0.67438  -0.67089
 Alpha  occ. eigenvalues --   -0.66695  -0.66397  -0.65624  -0.65269  -0.64719
 Alpha  occ. eigenvalues --   -0.64079  -0.62730  -0.62223  -0.61952  -0.61143
 Alpha  occ. eigenvalues --   -0.61007  -0.60764  -0.60150  -0.59864  -0.59003
 Alpha  occ. eigenvalues --   -0.58458  -0.57861  -0.57130  -0.55757  -0.55318
 Alpha  occ. eigenvalues --   -0.54175  -0.53616  -0.53390  -0.52381  -0.51750
 Alpha  occ. eigenvalues --   -0.51629  -0.51127  -0.50791  -0.50325  -0.49554
 Alpha  occ. eigenvalues --   -0.49337  -0.48787  -0.48469  -0.47870  -0.47092
 Alpha  occ. eigenvalues --   -0.46603  -0.46481  -0.45926  -0.45255  -0.44820
 Alpha  occ. eigenvalues --   -0.44378  -0.44132  -0.43042  -0.42959  -0.42614
 Alpha  occ. eigenvalues --   -0.41882  -0.41739  -0.41691  -0.41495  -0.41239
 Alpha  occ. eigenvalues --   -0.40883  -0.40783  -0.40508  -0.40341  -0.40270
 Alpha  occ. eigenvalues --   -0.39886  -0.39708  -0.39635  -0.39558  -0.39379
 Alpha  occ. eigenvalues --   -0.39168  -0.38823  -0.38738  -0.38487  -0.38106
 Alpha  occ. eigenvalues --   -0.38000  -0.37746  -0.37543  -0.37443  -0.37305
 Alpha  occ. eigenvalues --   -0.37160  -0.37091  -0.37022  -0.36850  -0.36646
 Alpha  occ. eigenvalues --   -0.36386  -0.36267  -0.36187  -0.35912  -0.35786
 Alpha  occ. eigenvalues --   -0.35685  -0.35438  -0.35191  -0.34818  -0.34568
 Alpha  occ. eigenvalues --   -0.34260  -0.34220  -0.34164  -0.34088  -0.33977
 Alpha  occ. eigenvalues --   -0.33894  -0.33623  -0.33553  -0.33477  -0.33155
 Alpha  occ. eigenvalues --   -0.33039  -0.32926  -0.32825  -0.32580  -0.32486
 Alpha  occ. eigenvalues --   -0.32370  -0.32276  -0.32161  -0.31819  -0.31758
 Alpha  occ. eigenvalues --   -0.31372  -0.31259  -0.31107  -0.30778  -0.30548
 Alpha  occ. eigenvalues --   -0.30450  -0.30420  -0.30303  -0.29986  -0.29898
 Alpha  occ. eigenvalues --   -0.29856  -0.29560  -0.29456  -0.29233  -0.29208
 Alpha  occ. eigenvalues --   -0.29131  -0.28691  -0.28330  -0.27461  -0.27353
 Alpha  occ. eigenvalues --   -0.27306  -0.27294  -0.26836  -0.26699  -0.26554
 Alpha  occ. eigenvalues --   -0.26053  -0.25894  -0.25644  -0.25389  -0.25148
 Alpha  occ. eigenvalues --   -0.24878  -0.24585  -0.24493  -0.24090  -0.23032
 Alpha  occ. eigenvalues --   -0.23019  -0.22306  -0.21989  -0.21725  -0.20758
 Alpha  occ. eigenvalues --   -0.20434  -0.19673  -0.19495  -0.18735  -0.17291
 Alpha  occ. eigenvalues --   -0.16059
 Alpha virt. eigenvalues --   -0.11350  -0.07071  -0.06321  -0.04456  -0.03062
 Alpha virt. eigenvalues --   -0.02910  -0.01664  -0.01305  -0.00881  -0.00243
 Alpha virt. eigenvalues --    0.00763   0.01314   0.01627   0.02188   0.02388

 Mulliken charges:
               1
     1  Mg   0.680614
     2  C   -0.056273
     3  C   -0.051494
     4  C   -0.031586
     5  C   -0.051792
     6  N   -0.141915
     7  C   -0.124093
     8  C    0.096017
     9  C   -0.047254
    10  C   -0.043375
    11  C    0.110596
    12  C    0.114278
    13  C    0.134888
    14  C    0.052223
    15  O   -0.189144
    16  O   -0.264972
    17  N   -0.287546
    18  C    0.203571
    19  C   -0.145470
    20  C   -0.009401
    21  C    0.086782
    22  C    0.139732
    23  C   -0.018378
    24  O   -0.182940
    25  C    0.160432
    26  N   -0.197013
    27  C    0.014708
    28  C   -0.001046
    29  C    0.062349
    30  C   -0.015302
    31  C    0.148376
    32  C    0.066019
    33  C    0.061217
    34  N   -0.314210
    35  C    0.122590
    36  C   -0.179341
    37  C    0.130927
    38  C    0.133321
    39  C    0.176600
    40  C   -0.130984
    41  O   -0.121147
    42  C    0.149763
    43  C    0.126712
    44  O   -0.180963
    45  O   -0.281656
    46  C    0.201875
    47  C    0.313167
    48  C   -0.086427
    49  C   -0.170874
    50  C    0.132244
    51  C    0.136739
    52  C    0.112254
    53  C    0.058217
    54  C   -0.091094
    55  C    0.109739
    56  C    0.113482
    57  C    0.055305
    58  C    0.111979
    59  C   -0.103250
    60  C    0.145046
    61  C    0.080730
    62  C    0.072521
    63  C    0.073231
    64  C   -0.122627
    65  C    0.141389
    66  C    0.144163
    67  H   -0.071678
    68  H   -0.045351
    69  H   -0.064526
    70  H   -0.042813
    71  H   -0.019942
    72  H   -0.009680
    73  H    0.008084
    74  H   -0.008599
    75  H   -0.011048
    76  H   -0.008999
    77  H    0.017288
    78  H   -0.004450
    79  H   -0.000121
    80  H   -0.007086
    81  H    0.002461
    82  H   -0.002478
    83  H    0.005288
    84  H    0.001425
    85  H   -0.027439
    86  H   -0.044031
    87  H   -0.016960
    88  H    0.005094
    89  H    0.001147
    90  H   -0.022632
    91  H   -0.040104
    92  H   -0.006599
    93  H    0.017124
    94  H    0.014035
    95  H    0.006174
    96  H   -0.037325
    97  H    0.000057
    98  H    0.002566
    99  H    0.015390
   100  H    0.003395
   101  H    0.033641
   102  H   -0.000953
   103  H   -0.001649
   104  H   -0.046544
   105  H   -0.008998
   106  H   -0.003503
   107  H    0.007854
   108  H   -0.027787
   109  H   -0.042081
   110  H   -0.024196
   111  H   -0.019883
   112  H   -0.006605
   113  H   -0.031386
   114  H   -0.040704
   115  H   -0.027804
   116  H   -0.030844
   117  H   -0.007803
   118  H   -0.018497
   119  H   -0.032248
   120  H   -0.010830
   121  H   -0.034553
   122  H   -0.050978
   123  H   -0.031004
   124  H   -0.041415
   125  H   -0.031767
   126  H   -0.027870
   127  H   -0.019120
   128  H   -0.037909
   129  H   -0.035997
   130  H   -0.023716
   131  H   -0.034928
   132  H   -0.017863
   133  H   -0.045482
   134  H   -0.044536
   135  H   -0.013522
   136  H   -0.026427
   137  H   -0.026371
   138  H   -0.011129
   139  H   -0.016801
   140  H   -0.027693
 Sum of Mulliken charges =  -0.00000

 Dipole moment (field-independent basis, Debye):
    X=              4.2925    Y=              3.1318    Z=              0.8409  Tot=              5.3797
 Quadrupole moment (field-independent basis, Debye-Ang):
   XX=           -368.9783   YY=           -428.7882   ZZ=           -410.3535
   XY=              0.5638   XZ=             15.6756   YZ=              4.7019

 Normal termination of Gaussian 16 at Wed May  4 07:25:52 2022.
