 Gaussian 16, Revision A.03,
 Gaussian 16:  ES64L-G16RevA.03 25-Dec-2016

 -----------------------------------
 #p cam-b3lyp/Def2SVP td=(nstates=5)
 -----------------------------------

 --------------------------------------------------------
 step_1451_chromophore_13 TDDFT with cam-b3lyp functional
 --------------------------------------------------------
 Symbolic Z-matrix:
 Charge =  0 Multiplicity = 1

                         Standard orientation:
 ---------------------------------------------------------------------
 Center     Atomic      Atomic             Coordinates (Angstroms)
 Number     Number       Type             X           Y           Z
 ---------------------------------------------------------------------
      1         12           0       -5.732480    0.313341   -0.049032
      2          6           0       -3.505934   -2.384479    0.060429
      3          6           0       -3.072968    2.415383    0.609474
      4          6           0       -7.881541    2.924246    0.204641
      5          6           0       -8.363006   -1.841170   -0.669058
      6          7           0       -3.450270   -0.023009    0.328219
      7          6           0       -2.837487   -1.177954    0.327448
      8          6           0       -1.321119   -0.870096    0.450149
      9          6           0       -1.177335    0.627256    0.794927
     10          6           0       -2.639058    1.034848    0.570972
     11          6           0       -0.677576    1.019126    2.248717
     12          6           0       -0.503388   -1.340959   -0.766816
     13          6           0        0.479686   -2.549807   -0.607359
     14          6           0        1.844099   -2.241395   -1.197445
     15          8           0        2.021512   -1.756633   -2.304524
     16          8           0        2.861810   -2.636612   -0.363200
     17          7           0       -5.514471    2.427678    0.188645
     18          6           0       -4.313658    3.017869    0.460188
     19          6           0       -4.593837    4.452431    0.497700
     20          6           0       -6.011610    4.711836    0.346579
     21          6           0       -6.560415    3.318295    0.212469
     22          6           0       -3.476768    5.464409    0.945370
     23          6           0       -6.817810    6.080188    0.388687
     24          8           0       -8.063268    6.181593    0.337178
     25          6           0       -6.086625    7.239026    0.740694
     26          7           0       -7.890927    0.413691   -0.065405
     27          6           0       -8.470178    1.660319    0.105183
     28          6           0      -10.039487    1.469812   -0.037115
     29          6           0      -10.124507    0.056727   -0.748854
     30          6           0       -8.736311   -0.513060   -0.482854
     31          6           0      -10.764511    1.744920    1.310736
     32          6           0      -10.360459    0.114361   -2.279465
     33          6           0       -9.242952    0.768573   -3.237198
     34          7           0       -5.912019   -1.647072   -0.302762
     35          6           0       -7.033996   -2.446574   -0.609950
     36          6           0       -6.602855   -3.771705   -0.722431
     37          6           0       -5.274760   -3.809164   -0.407802
     38          6           0       -4.874697   -2.511839   -0.199372
     39          6           0       -7.494327   -4.884468   -0.860029
     40          6           0       -4.122529   -4.679292   -0.140433
     41          8           0       -4.121974   -5.889313   -0.066051
     42          6           0       -2.920073   -3.826554    0.157855
     43          6           0       -2.439134   -4.287357    1.509408
     44          8           0       -2.927434   -4.212143    2.638137
     45          8           0       -1.187452   -4.842409    1.358316
     46          6           0       -0.456607   -5.144931    2.636854
     47          6           0        4.240208   -2.411170   -0.764224
     48          6           0        4.891286   -1.282645   -0.129128
     49          6           0        6.203603   -1.079709   -0.002861
     50          6           0        7.305765   -1.990346   -0.667995
     51          6           0        6.680681   -0.016821    0.873201
     52          6           0        6.843599    1.363619    0.168176
     53          6           0        8.326078    1.830337    0.340504
     54          6           0        8.847046    2.624532   -0.852700
     55          6           0        7.928728    3.908180   -1.024013
     56          6           0        9.143385    1.811351   -2.124644
     57          6           0       10.725650    1.879387   -2.500232
     58          6           0       11.421336    0.553978   -2.721094
     59          6           0       12.846399    0.508644   -2.096046
     60          6           0       13.814666   -0.397518   -2.749101
     61          6           0       12.619637    0.258811   -0.570754
     62          6           0       13.481925    1.177027    0.359974
     63          6           0       12.634897    1.362011    1.664754
     64          6           0       12.424112    0.130090    2.586438
     65          6           0       11.096184   -0.624425    2.324340
     66          6           0       12.808925    0.406535    3.986810
     67          1           0       -2.183761    3.038599    0.727586
     68          1           0       -8.577184    3.748542    0.381751
     69          1           0       -9.184754   -2.479779   -0.999485
     70          1           0       -0.999447   -1.358912    1.370019
     71          1           0       -0.441320    1.136815    0.172320
     72          1           0        0.188583    0.398040    2.475992
     73          1           0       -1.468808    0.915647    2.991553
     74          1           0       -0.264350    2.027641    2.241912
     75          1           0        0.199826   -0.559755   -1.054553
     76          1           0       -1.233947   -1.481603   -1.564101
     77          1           0       -0.036944   -3.340927   -1.150652
     78          1           0        0.649666   -2.868866    0.421397
     79          1           0       -3.335595    6.153983    0.113206
     80          1           0       -2.487610    5.058643    1.161330
     81          1           0       -3.829152    6.070282    1.779041
     82          1           0       -5.147759    7.446999    0.227312
     83          1           0       -5.671221    6.990143    1.717562
     84          1           0       -6.792785    8.056486    0.881243
     85          1           0      -10.289856    2.240681   -0.766017
     86          1           0      -10.860235   -0.598050   -0.281259
     87          1           0      -11.461562    0.910254    1.390478
     88          1           0      -11.306102    2.689908    1.301321
     89          1           0      -10.104845    1.733872    2.178853
     90          1           0      -11.407333    0.304109   -2.515398
     91          1           0      -10.385065   -0.940917   -2.551971
     92          1           0       -9.853675    1.492590   -3.776869
     93          1           0       -8.734346    0.057323   -3.888421
     94          1           0       -8.564027    1.454773   -2.731231
     95          1           0       -7.264859   -5.584827   -1.662253
     96          1           0       -8.541552   -4.581075   -0.853627
     97          1           0       -7.485125   -5.444423    0.075316
     98          1           0       -2.221412   -4.105689   -0.631224
     99          1           0        0.504180   -4.646009    2.770909
    100          1           0       -0.143544   -6.184652    2.551580
    101          1           0       -1.003743   -5.142502    3.579653
    102          1           0        4.252907   -2.244565   -1.840984
    103          1           0        4.709726   -3.383750   -0.620108
    104          1           0        4.216213   -0.682088    0.481218
    105          1           0        8.142924   -1.353753   -0.955244
    106          1           0        6.931223   -2.471578   -1.570968
    107          1           0        7.668491   -2.689909    0.085327
    108          1           0        7.581298   -0.284957    1.425821
    109          1           0        5.910629    0.028713    1.644278
    110          1           0        6.063414    2.006779    0.574319
    111          1           0        6.568921    1.262915   -0.881946
    112          1           0        9.108865    1.078033    0.430114
    113          1           0        8.434199    2.371338    1.280962
    114          1           0        9.831225    3.022440   -0.606049
    115          1           0        7.503990    3.960780   -2.026647
    116          1           0        8.638082    4.734555   -1.054787
    117          1           0        7.215480    4.129192   -0.229552
    118          1           0        8.488910    2.128915   -2.936773
    119          1           0        9.013197    0.763776   -1.852080
    120          1           0       11.349184    2.473834   -1.833165
    121          1           0       10.728274    2.393908   -3.460515
    122          1           0       11.608904    0.398608   -3.783605
    123          1           0       10.793293   -0.263781   -2.365762
    124          1           0       13.399316    1.429962   -2.282064
    125          1           0       14.287572   -1.045547   -2.011674
    126          1           0       14.641679    0.206579   -3.122704
    127          1           0       13.354922   -0.955057   -3.565127
    128          1           0       12.823524   -0.790569   -0.356868
    129          1           0       11.559078    0.305334   -0.321046
    130          1           0       13.819437    2.133099   -0.040460
    131          1           0       14.405023    0.616460    0.507365
    132          1           0       11.672151    1.827474    1.451203
    133          1           0       13.296249    2.055847    2.182882
    134          1           0       13.168720   -0.561918    2.191787
    135          1           0       11.253265   -1.604622    1.872373
    136          1           0       10.463561   -0.047716    1.649889
    137          1           0       10.664049   -0.738241    3.318238
    138          1           0       12.815695    1.482270    4.161743
    139          1           0       13.805835   -0.013537    4.122800
    140          1           0       12.185968   -0.105651    4.720983
 ---------------------------------------------------------------------

 SCF Done:  E(RCAM-B3LYP) =  -3007.12960886     A.U. after   17 cycles

 Excitation energies and oscillator strengths:

 Excited State   1:      Singlet-A      1.8048 eV  686.97 nm  f=0.3631  <S**2>=0.000
     245 -> 248       -0.20663
     246 -> 247        0.67822
     245 <- 248       -0.11117
 This state for optimization and/or second-order correction.
 Total Energy, E(TD-HF/TD-DFT) =  -3007.06328366
 Copying the excited state density for this state as the 1-particle RhoCI density.

 Excited State   2:      Singlet-A      2.2841 eV  542.83 nm  f=0.0997  <S**2>=0.000
     245 -> 247        0.62995
     246 -> 248        0.31094

 Excited State   3:      Singlet-A      3.4995 eV  354.29 nm  f=0.0229  <S**2>=0.000
     242 -> 247       -0.25095
     243 -> 247        0.63839
     246 -> 248        0.10246

 Excited State   4:      Singlet-A      3.5389 eV  350.35 nm  f=0.4421  <S**2>=0.000
     242 -> 247       -0.32507
     243 -> 247       -0.22584
     245 -> 247       -0.22303
     246 -> 248        0.52976

 Excited State   5:      Singlet-A      3.6703 eV  337.80 nm  f=0.0173  <S**2>=0.000
     241 -> 247        0.57331
     241 -> 249        0.22574
     241 -> 250       -0.29110

 The electronic state is 1-A.
 Alpha  occ. eigenvalues --  -46.88649 -19.24968 -19.24947 -19.19721 -19.19585
 Alpha  occ. eigenvalues --  -19.19545 -19.18605 -14.42158 -14.41322 -14.39839
 Alpha  occ. eigenvalues --  -14.38785 -10.39749 -10.39394 -10.36214 -10.34474
 Alpha  occ. eigenvalues --  -10.31594 -10.31365 -10.31347 -10.31077 -10.30850
 Alpha  occ. eigenvalues --  -10.30750 -10.30527 -10.30098 -10.29860 -10.29483
 Alpha  occ. eigenvalues --  -10.29033 -10.28704 -10.28535 -10.28494 -10.28210
 Alpha  occ. eigenvalues --  -10.27882 -10.27817 -10.27765 -10.27686 -10.27523
 Alpha  occ. eigenvalues --  -10.27414 -10.27092 -10.26926 -10.26788 -10.26782
 Alpha  occ. eigenvalues --  -10.26726 -10.26520 -10.26302 -10.26218 -10.26170
 Alpha  occ. eigenvalues --  -10.25909 -10.25795 -10.25783 -10.25586 -10.25373
 Alpha  occ. eigenvalues --  -10.25372 -10.25277 -10.25205 -10.25181 -10.25084
 Alpha  occ. eigenvalues --  -10.25074 -10.24939 -10.24920 -10.24786 -10.24781
 Alpha  occ. eigenvalues --  -10.24690 -10.24653 -10.24363 -10.24344 -10.24043
 Alpha  occ. eigenvalues --  -10.23948  -3.17144  -1.92057  -1.91596  -1.91444
 Alpha  occ. eigenvalues --   -1.16294  -1.15590  -1.10361  -1.09362  -1.07912
 Alpha  occ. eigenvalues --   -1.06254  -1.05324  -1.03757  -1.03164  -1.02516
 Alpha  occ. eigenvalues --   -0.92892  -0.91134  -0.90318  -0.89543  -0.88997
 Alpha  occ. eigenvalues --   -0.88862  -0.88167  -0.87647  -0.87631  -0.87003
 Alpha  occ. eigenvalues --   -0.86931  -0.85710  -0.84472  -0.83633  -0.83372
 Alpha  occ. eigenvalues --   -0.82914  -0.82484  -0.81556  -0.81066  -0.80587
 Alpha  occ. eigenvalues --   -0.79825  -0.78374  -0.77968  -0.77507  -0.76515
 Alpha  occ. eigenvalues --   -0.76451  -0.76159  -0.75443  -0.75192  -0.74244
 Alpha  occ. eigenvalues --   -0.73512  -0.72845  -0.72053  -0.70590  -0.69896
 Alpha  occ. eigenvalues --   -0.68755  -0.68144  -0.67875  -0.66951  -0.66063
 Alpha  occ. eigenvalues --   -0.65798  -0.65296  -0.64725  -0.64319  -0.63569
 Alpha  occ. eigenvalues --   -0.63077  -0.62696  -0.62177  -0.61662  -0.60700
 Alpha  occ. eigenvalues --   -0.60398  -0.60067  -0.59471  -0.58830  -0.58141
 Alpha  occ. eigenvalues --   -0.57904  -0.57680  -0.56303  -0.56107  -0.55708
 Alpha  occ. eigenvalues --   -0.55088  -0.54720  -0.54569  -0.54467  -0.54177
 Alpha  occ. eigenvalues --   -0.53870  -0.53479  -0.53455  -0.53132  -0.53007
 Alpha  occ. eigenvalues --   -0.52735  -0.52503  -0.52357  -0.52080  -0.51926
 Alpha  occ. eigenvalues --   -0.51722  -0.51636  -0.51250  -0.50930  -0.50464
 Alpha  occ. eigenvalues --   -0.50253  -0.50049  -0.50021  -0.50000  -0.49860
 Alpha  occ. eigenvalues --   -0.49633  -0.49383  -0.49331  -0.49121  -0.49020
 Alpha  occ. eigenvalues --   -0.48972  -0.48710  -0.48387  -0.48228  -0.47891
 Alpha  occ. eigenvalues --   -0.47756  -0.47585  -0.47380  -0.46692  -0.46409
 Alpha  occ. eigenvalues --   -0.46034  -0.46023  -0.45932  -0.45908  -0.45678
 Alpha  occ. eigenvalues --   -0.45563  -0.45391  -0.45240  -0.45177  -0.44937
 Alpha  occ. eigenvalues --   -0.44849  -0.44509  -0.44479  -0.44366  -0.44300
 Alpha  occ. eigenvalues --   -0.44053  -0.43828  -0.43671  -0.43481  -0.43129
 Alpha  occ. eigenvalues --   -0.42969  -0.42753  -0.42555  -0.42261  -0.42120
 Alpha  occ. eigenvalues --   -0.42012  -0.41771  -0.41581  -0.41571  -0.41411
 Alpha  occ. eigenvalues --   -0.41054  -0.40937  -0.40711  -0.40620  -0.40375
 Alpha  occ. eigenvalues --   -0.40264  -0.39733  -0.39378  -0.38459  -0.38240
 Alpha  occ. eigenvalues --   -0.38143  -0.38052  -0.37668  -0.37545  -0.37449
 Alpha  occ. eigenvalues --   -0.37061  -0.36841  -0.36583  -0.36179  -0.36071
 Alpha  occ. eigenvalues --   -0.35961  -0.35768  -0.35106  -0.34444  -0.34181
 Alpha  occ. eigenvalues --   -0.33887  -0.33390  -0.33349  -0.32104  -0.31398
 Alpha  occ. eigenvalues --   -0.30871  -0.30267  -0.29723  -0.29309  -0.24007
 Alpha  occ. eigenvalues --   -0.21404
 Alpha virt. eigenvalues --   -0.08381  -0.02079   0.00142   0.02622   0.03651
 Alpha virt. eigenvalues --    0.04646   0.04893   0.05647   0.05779   0.06652
 Alpha virt. eigenvalues --    0.07328   0.07397   0.08287   0.08587   0.09150

 Mulliken charges:
               1
     1  Mg   0.814544
     2  C   -0.083269
     3  C   -0.067452
     4  C   -0.056063
     5  C   -0.058367
     6  N   -0.211480
     7  C   -0.077661
     8  C    0.040106
     9  C   -0.094636
    10  C   -0.020834
    11  C    0.055823
    12  C    0.056136
    13  C    0.066497
    14  C    0.137642
    15  O   -0.231033
    16  O   -0.331364
    17  N   -0.377304
    18  C    0.210300
    19  C   -0.146604
    20  C   -0.071764
    21  C    0.115766
    22  C    0.081300
    23  C    0.069956
    24  O   -0.222913
    25  C    0.064135
    26  N   -0.269671
    27  C    0.034540
    28  C   -0.054905
    29  C    0.004855
    30  C    0.002270
    31  C    0.090362
    32  C    0.013658
    33  C   -0.000174
    34  N   -0.406649
    35  C    0.127524
    36  C   -0.183038
    37  C    0.053274
    38  C    0.169005
    39  C    0.119076
    40  C   -0.025344
    41  O   -0.159409
    42  C    0.070971
    43  C    0.215128
    44  O   -0.220639
    45  O   -0.346234
    46  C    0.165306
    47  C    0.272588
    48  C   -0.106318
    49  C   -0.192073
    50  C    0.082389
    51  C    0.073278
    52  C    0.054957
    53  C    0.015131
    54  C   -0.142547
    55  C    0.048553
    56  C    0.063759
    57  C    0.003238
    58  C    0.056459
    59  C   -0.156258
    60  C    0.083113
    61  C    0.033483
    62  C    0.022270
    63  C    0.019454
    64  C   -0.180078
    65  C    0.088565
    66  C    0.080106
    67  H   -0.036793
    68  H   -0.005138
    69  H   -0.030921
    70  H   -0.007055
    71  H    0.015559
    72  H    0.015068
    73  H    0.033387
    74  H    0.014650
    75  H    0.020413
    76  H    0.023144
    77  H    0.047582
    78  H    0.028029
    79  H    0.026031
    80  H    0.022287
    81  H    0.027966
    82  H    0.027952
    83  H    0.032068
    84  H    0.038829
    85  H    0.008552
    86  H   -0.006557
    87  H    0.007074
    88  H    0.028736
    89  H    0.026460
    90  H    0.006639
    91  H   -0.010623
    92  H    0.016642
    93  H    0.040629
    94  H    0.033405
    95  H    0.031700
    96  H   -0.010964
    97  H    0.026686
    98  H    0.045254
    99  H    0.034316
   100  H    0.026163
   101  H    0.060483
   102  H    0.033731
   103  H    0.027078
   104  H   -0.012257
   105  H    0.008797
   106  H    0.019892
   107  H    0.032296
   108  H    0.001553
   109  H   -0.009477
   110  H    0.004696
   111  H    0.009106
   112  H    0.007595
   113  H   -0.001815
   114  H   -0.007753
   115  H   -0.003447
   116  H   -0.005235
   117  H    0.016262
   118  H    0.009874
   119  H   -0.010523
   120  H    0.013646
   121  H   -0.003865
   122  H   -0.019625
   123  H   -0.004664
   124  H   -0.009194
   125  H   -0.006108
   126  H   -0.002642
   127  H    0.006342
   128  H   -0.010238
   129  H   -0.015484
   130  H    0.004314
   131  H   -0.006831
   132  H    0.005266
   133  H   -0.013988
   134  H   -0.011256
   135  H    0.010326
   136  H   -0.012748
   137  H   -0.001641
   138  H    0.013277
   139  H    0.007817
   140  H   -0.002170
 Sum of Mulliken charges =  -0.00000

 Dipole moment (field-independent basis, Debye):
    X=              4.6257    Y=              3.9750    Z=              1.0503  Tot=              6.1888
 Quadrupole moment (field-independent basis, Debye-Ang):
   XX=           -369.1908   YY=           -424.8128   ZZ=           -410.6819
   XY=             -3.3727   XZ=             15.6270   YZ=              5.5858

 Normal termination of Gaussian 16 at Wed May  4 06:24:48 2022.
