 Gaussian 16, Revision A.03,
 Gaussian 16:  ES64L-G16RevA.03 25-Dec-2016

 ---------------------------------
 #p PBE1PBE/Def2SVP td=(nstates=5)
 ---------------------------------

 ------------------------------------------------------
 step_1451_chromophore_13 TDDFT with PBE1PBE functional
 ------------------------------------------------------
 Symbolic Z-matrix:
 Charge =  0 Multiplicity = 1

                         Standard orientation:
 ---------------------------------------------------------------------
 Center     Atomic      Atomic             Coordinates (Angstroms)
 Number     Number       Type             X           Y           Z
 ---------------------------------------------------------------------
      1         12           0       -5.732480    0.313341   -0.049032
      2          6           0       -3.505934   -2.384479    0.060429
      3          6           0       -3.072968    2.415383    0.609474
      4          6           0       -7.881541    2.924246    0.204641
      5          6           0       -8.363006   -1.841170   -0.669058
      6          7           0       -3.450270   -0.023009    0.328219
      7          6           0       -2.837487   -1.177954    0.327448
      8          6           0       -1.321119   -0.870096    0.450149
      9          6           0       -1.177335    0.627256    0.794927
     10          6           0       -2.639058    1.034848    0.570972
     11          6           0       -0.677576    1.019126    2.248717
     12          6           0       -0.503388   -1.340959   -0.766816
     13          6           0        0.479686   -2.549807   -0.607359
     14          6           0        1.844099   -2.241395   -1.197445
     15          8           0        2.021512   -1.756633   -2.304524
     16          8           0        2.861810   -2.636612   -0.363200
     17          7           0       -5.514471    2.427678    0.188645
     18          6           0       -4.313658    3.017869    0.460188
     19          6           0       -4.593837    4.452431    0.497700
     20          6           0       -6.011610    4.711836    0.346579
     21          6           0       -6.560415    3.318295    0.212469
     22          6           0       -3.476768    5.464409    0.945370
     23          6           0       -6.817810    6.080188    0.388687
     24          8           0       -8.063268    6.181593    0.337178
     25          6           0       -6.086625    7.239026    0.740694
     26          7           0       -7.890927    0.413691   -0.065405
     27          6           0       -8.470178    1.660319    0.105183
     28          6           0      -10.039487    1.469812   -0.037115
     29          6           0      -10.124507    0.056727   -0.748854
     30          6           0       -8.736311   -0.513060   -0.482854
     31          6           0      -10.764511    1.744920    1.310736
     32          6           0      -10.360459    0.114361   -2.279465
     33          6           0       -9.242952    0.768573   -3.237198
     34          7           0       -5.912019   -1.647072   -0.302762
     35          6           0       -7.033996   -2.446574   -0.609950
     36          6           0       -6.602855   -3.771705   -0.722431
     37          6           0       -5.274760   -3.809164   -0.407802
     38          6           0       -4.874697   -2.511839   -0.199372
     39          6           0       -7.494327   -4.884468   -0.860029
     40          6           0       -4.122529   -4.679292   -0.140433
     41          8           0       -4.121974   -5.889313   -0.066051
     42          6           0       -2.920073   -3.826554    0.157855
     43          6           0       -2.439134   -4.287357    1.509408
     44          8           0       -2.927434   -4.212143    2.638137
     45          8           0       -1.187452   -4.842409    1.358316
     46          6           0       -0.456607   -5.144931    2.636854
     47          6           0        4.240208   -2.411170   -0.764224
     48          6           0        4.891286   -1.282645   -0.129128
     49          6           0        6.203603   -1.079709   -0.002861
     50          6           0        7.305765   -1.990346   -0.667995
     51          6           0        6.680681   -0.016821    0.873201
     52          6           0        6.843599    1.363619    0.168176
     53          6           0        8.326078    1.830337    0.340504
     54          6           0        8.847046    2.624532   -0.852700
     55          6           0        7.928728    3.908180   -1.024013
     56          6           0        9.143385    1.811351   -2.124644
     57          6           0       10.725650    1.879387   -2.500232
     58          6           0       11.421336    0.553978   -2.721094
     59          6           0       12.846399    0.508644   -2.096046
     60          6           0       13.814666   -0.397518   -2.749101
     61          6           0       12.619637    0.258811   -0.570754
     62          6           0       13.481925    1.177027    0.359974
     63          6           0       12.634897    1.362011    1.664754
     64          6           0       12.424112    0.130090    2.586438
     65          6           0       11.096184   -0.624425    2.324340
     66          6           0       12.808925    0.406535    3.986810
     67          1           0       -2.183761    3.038599    0.727586
     68          1           0       -8.577184    3.748542    0.381751
     69          1           0       -9.184754   -2.479779   -0.999485
     70          1           0       -0.999447   -1.358912    1.370019
     71          1           0       -0.441320    1.136815    0.172320
     72          1           0        0.188583    0.398040    2.475992
     73          1           0       -1.468808    0.915647    2.991553
     74          1           0       -0.264350    2.027641    2.241912
     75          1           0        0.199826   -0.559755   -1.054553
     76          1           0       -1.233947   -1.481603   -1.564101
     77          1           0       -0.036944   -3.340927   -1.150652
     78          1           0        0.649666   -2.868866    0.421397
     79          1           0       -3.335595    6.153983    0.113206
     80          1           0       -2.487610    5.058643    1.161330
     81          1           0       -3.829152    6.070282    1.779041
     82          1           0       -5.147759    7.446999    0.227312
     83          1           0       -5.671221    6.990143    1.717562
     84          1           0       -6.792785    8.056486    0.881243
     85          1           0      -10.289856    2.240681   -0.766017
     86          1           0      -10.860235   -0.598050   -0.281259
     87          1           0      -11.461562    0.910254    1.390478
     88          1           0      -11.306102    2.689908    1.301321
     89          1           0      -10.104845    1.733872    2.178853
     90          1           0      -11.407333    0.304109   -2.515398
     91          1           0      -10.385065   -0.940917   -2.551971
     92          1           0       -9.853675    1.492590   -3.776869
     93          1           0       -8.734346    0.057323   -3.888421
     94          1           0       -8.564027    1.454773   -2.731231
     95          1           0       -7.264859   -5.584827   -1.662253
     96          1           0       -8.541552   -4.581075   -0.853627
     97          1           0       -7.485125   -5.444423    0.075316
     98          1           0       -2.221412   -4.105689   -0.631224
     99          1           0        0.504180   -4.646009    2.770909
    100          1           0       -0.143544   -6.184652    2.551580
    101          1           0       -1.003743   -5.142502    3.579653
    102          1           0        4.252907   -2.244565   -1.840984
    103          1           0        4.709726   -3.383750   -0.620108
    104          1           0        4.216213   -0.682088    0.481218
    105          1           0        8.142924   -1.353753   -0.955244
    106          1           0        6.931223   -2.471578   -1.570968
    107          1           0        7.668491   -2.689909    0.085327
    108          1           0        7.581298   -0.284957    1.425821
    109          1           0        5.910629    0.028713    1.644278
    110          1           0        6.063414    2.006779    0.574319
    111          1           0        6.568921    1.262915   -0.881946
    112          1           0        9.108865    1.078033    0.430114
    113          1           0        8.434199    2.371338    1.280962
    114          1           0        9.831225    3.022440   -0.606049
    115          1           0        7.503990    3.960780   -2.026647
    116          1           0        8.638082    4.734555   -1.054787
    117          1           0        7.215480    4.129192   -0.229552
    118          1           0        8.488910    2.128915   -2.936773
    119          1           0        9.013197    0.763776   -1.852080
    120          1           0       11.349184    2.473834   -1.833165
    121          1           0       10.728274    2.393908   -3.460515
    122          1           0       11.608904    0.398608   -3.783605
    123          1           0       10.793293   -0.263781   -2.365762
    124          1           0       13.399316    1.429962   -2.282064
    125          1           0       14.287572   -1.045547   -2.011674
    126          1           0       14.641679    0.206579   -3.122704
    127          1           0       13.354922   -0.955057   -3.565127
    128          1           0       12.823524   -0.790569   -0.356868
    129          1           0       11.559078    0.305334   -0.321046
    130          1           0       13.819437    2.133099   -0.040460
    131          1           0       14.405023    0.616460    0.507365
    132          1           0       11.672151    1.827474    1.451203
    133          1           0       13.296249    2.055847    2.182882
    134          1           0       13.168720   -0.561918    2.191787
    135          1           0       11.253265   -1.604622    1.872373
    136          1           0       10.463561   -0.047716    1.649889
    137          1           0       10.664049   -0.738241    3.318238
    138          1           0       12.815695    1.482270    4.161743
    139          1           0       13.805835   -0.013537    4.122800
    140          1           0       12.185968   -0.105651    4.720983
 ---------------------------------------------------------------------

 SCF Done:  E(RPBE1PBE) =  -3005.31839272     A.U. after   15 cycles

 Excitation energies and oscillator strengths:

 Excited State   1:      Singlet-A      1.9530 eV  634.82 nm  f=0.3517  <S**2>=0.000
     245 -> 248       -0.20079
     246 -> 247        0.68373
 This state for optimization and/or second-order correction.
 Total Energy, E(TD-HF/TD-DFT) =  -3005.24661957
 Copying the excited state density for this state as the 1-particle RhoCI density.

 Excited State   2:      Singlet-A      2.2944 eV  540.38 nm  f=0.1012  <S**2>=0.000
     245 -> 247        0.64304
     246 -> 248        0.28443

 Excited State   3:      Singlet-A      3.1228 eV  397.03 nm  f=0.0002  <S**2>=0.000
     241 -> 247       -0.32430
     242 -> 247        0.44698
     243 -> 247        0.39975

 Excited State   4:      Singlet-A      3.1652 eV  391.71 nm  f=0.0005  <S**2>=0.000
     241 -> 247        0.18816
     242 -> 247       -0.34881
     243 -> 247        0.57504

 Excited State   5:      Singlet-A      3.2759 eV  378.48 nm  f=0.0215  <S**2>=0.000
     241 -> 247        0.52606
     242 -> 247        0.34178
     246 -> 248       -0.28599

 The electronic state is 1-A.
 Alpha  occ. eigenvalues --  -46.92033 -19.25665 -19.25664 -19.20019 -19.19856
 Alpha  occ. eigenvalues --  -19.19671 -19.18891 -14.41565 -14.40891 -14.39424
 Alpha  occ. eigenvalues --  -14.38554 -10.36798 -10.36439 -10.33213 -10.31694
 Alpha  occ. eigenvalues --  -10.29219 -10.28732 -10.28730 -10.28654 -10.28523
 Alpha  occ. eigenvalues --  -10.28338 -10.28027 -10.27919 -10.27395 -10.27365
 Alpha  occ. eigenvalues --  -10.26680 -10.26302 -10.26299 -10.26285 -10.26002
 Alpha  occ. eigenvalues --  -10.25686 -10.25682 -10.25339 -10.25230 -10.25091
 Alpha  occ. eigenvalues --  -10.24928 -10.24729 -10.24582 -10.24510 -10.24383
 Alpha  occ. eigenvalues --  -10.24358 -10.24033 -10.23890 -10.23807 -10.23504
 Alpha  occ. eigenvalues --  -10.23378 -10.23341 -10.23255 -10.23167 -10.23078
 Alpha  occ. eigenvalues --  -10.22926 -10.22859 -10.22856 -10.22680 -10.22650
 Alpha  occ. eigenvalues --  -10.22620 -10.22614 -10.22530 -10.22365 -10.22260
 Alpha  occ. eigenvalues --  -10.22193 -10.22185 -10.21774 -10.21767 -10.21714
 Alpha  occ. eigenvalues --  -10.21416  -3.14112  -1.86967  -1.86482  -1.86336
 Alpha  occ. eigenvalues --   -1.11122  -1.10378  -1.05173  -1.03968  -1.02791
 Alpha  occ. eigenvalues --   -1.01105  -0.99923  -0.98450  -0.97841  -0.97118
 Alpha  occ. eigenvalues --   -0.87303  -0.85267  -0.84406  -0.83770  -0.83163
 Alpha  occ. eigenvalues --   -0.83089  -0.82300  -0.82018  -0.81945  -0.81376
 Alpha  occ. eigenvalues --   -0.81004  -0.79960  -0.78707  -0.77900  -0.77562
 Alpha  occ. eigenvalues --   -0.77083  -0.76707  -0.75737  -0.75390  -0.74944
 Alpha  occ. eigenvalues --   -0.74031  -0.72644  -0.72172  -0.71795  -0.70841
 Alpha  occ. eigenvalues --   -0.70536  -0.70301  -0.69802  -0.69332  -0.68409
 Alpha  occ. eigenvalues --   -0.67827  -0.67313  -0.66517  -0.64885  -0.64252
 Alpha  occ. eigenvalues --   -0.63052  -0.62618  -0.62084  -0.61312  -0.60263
 Alpha  occ. eigenvalues --   -0.60249  -0.59799  -0.59264  -0.58844  -0.57706
 Alpha  occ. eigenvalues --   -0.57612  -0.56864  -0.56802  -0.55904  -0.55024
 Alpha  occ. eigenvalues --   -0.54851  -0.54637  -0.54028  -0.53276  -0.52823
 Alpha  occ. eigenvalues --   -0.52369  -0.52134  -0.50841  -0.50716  -0.50171
 Alpha  occ. eigenvalues --   -0.49643  -0.49287  -0.49072  -0.48981  -0.48552
 Alpha  occ. eigenvalues --   -0.48446  -0.48091  -0.47865  -0.47687  -0.47495
 Alpha  occ. eigenvalues --   -0.47237  -0.46882  -0.46679  -0.46660  -0.46555
 Alpha  occ. eigenvalues --   -0.46303  -0.46166  -0.45795  -0.45465  -0.45124
 Alpha  occ. eigenvalues --   -0.44787  -0.44637  -0.44592  -0.44501  -0.44382
 Alpha  occ. eigenvalues --   -0.44202  -0.43968  -0.43928  -0.43687  -0.43580
 Alpha  occ. eigenvalues --   -0.43539  -0.43293  -0.42975  -0.42881  -0.42536
 Alpha  occ. eigenvalues --   -0.42388  -0.42204  -0.41937  -0.41420  -0.41123
 Alpha  occ. eigenvalues --   -0.40772  -0.40680  -0.40652  -0.40546  -0.40464
 Alpha  occ. eigenvalues --   -0.40217  -0.40144  -0.39995  -0.39916  -0.39673
 Alpha  occ. eigenvalues --   -0.39561  -0.39234  -0.39141  -0.39049  -0.39038
 Alpha  occ. eigenvalues --   -0.38903  -0.38555  -0.38516  -0.38306  -0.37875
 Alpha  occ. eigenvalues --   -0.37757  -0.37506  -0.37438  -0.37117  -0.36996
 Alpha  occ. eigenvalues --   -0.36841  -0.36561  -0.36455  -0.36399  -0.36167
 Alpha  occ. eigenvalues --   -0.35838  -0.35769  -0.35518  -0.35484  -0.35287
 Alpha  occ. eigenvalues --   -0.35022  -0.34516  -0.34321  -0.33415  -0.33110
 Alpha  occ. eigenvalues --   -0.33072  -0.32924  -0.32519  -0.32446  -0.32295
 Alpha  occ. eigenvalues --   -0.32109  -0.31793  -0.31396  -0.31059  -0.31023
 Alpha  occ. eigenvalues --   -0.30988  -0.30607  -0.29978  -0.29468  -0.29171
 Alpha  occ. eigenvalues --   -0.28920  -0.28737  -0.28347  -0.27131  -0.26648
 Alpha  occ. eigenvalues --   -0.25816  -0.25721  -0.25400  -0.24587  -0.20968
 Alpha  occ. eigenvalues --   -0.19020
 Alpha virt. eigenvalues --   -0.10895  -0.05501  -0.04050  -0.01835   0.00070
 Alpha virt. eigenvalues --    0.00166   0.00958   0.01337   0.01946   0.02642
 Alpha virt. eigenvalues --    0.03264   0.04018   0.04800   0.04988   0.05272

 Mulliken charges:
               1
     1  Mg   0.962710
     2  C   -0.096649
     3  C   -0.062698
     4  C   -0.046687
     5  C   -0.053573
     6  N   -0.320054
     7  C    0.008973
     8  C   -0.034074
     9  C   -0.166882
    10  C    0.024654
    11  C   -0.002715
    12  C    0.003031
    13  C   -0.014019
    14  C    0.206702
    15  O   -0.263424
    16  O   -0.365845
    17  N   -0.492284
    18  C    0.229864
    19  C   -0.173290
    20  C   -0.110554
    21  C    0.143525
    22  C    0.017870
    23  C    0.117777
    24  O   -0.261473
    25  C   -0.012436
    26  N   -0.372532
    27  C    0.059115
    28  C   -0.121744
    29  C   -0.079979
    30  C    0.046260
    31  C    0.032345
    32  C   -0.043637
    33  C   -0.074597
    34  N   -0.537985
    35  C    0.158309
    36  C   -0.218594
    37  C    0.000058
    38  C    0.221544
    39  C    0.069471
    40  C    0.083529
    41  O   -0.205525
    42  C   -0.038480
    43  C    0.304957
    44  O   -0.257528
    45  O   -0.376766
    46  C    0.110152
    47  C    0.234061
    48  C   -0.116396
    49  C   -0.233105
    50  C    0.013094
    51  C    0.002898
    52  C    0.000365
    53  C   -0.064515
    54  C   -0.223358
    55  C   -0.010695
    56  C   -0.001261
    57  C   -0.053161
    58  C   -0.009903
    59  C   -0.236526
    60  C    0.025616
    61  C   -0.022218
    62  C   -0.039234
    63  C   -0.050568
    64  C   -0.260176
    65  C    0.010652
    66  C    0.016473
    67  H   -0.002996
    68  H    0.027007
    69  H    0.001367
    70  H    0.034436
    71  H    0.050839
    72  H    0.043124
    73  H    0.060736
    74  H    0.041732
    75  H    0.054460
    76  H    0.055753
    77  H    0.081717
    78  H    0.062104
    79  H    0.054309
    80  H    0.047956
    81  H    0.055082
    82  H    0.054880
    83  H    0.060729
    84  H    0.065642
    85  H    0.046127
    86  H    0.029529
    87  H    0.035298
    88  H    0.055347
    89  H    0.053639
    90  H    0.038922
    91  H    0.024535
    92  H    0.045060
    93  H    0.066957
    94  H    0.064378
    95  H    0.059460
    96  H    0.017475
    97  H    0.055688
    98  H    0.083655
    99  H    0.055317
   100  H    0.048664
   101  H    0.081493
   102  H    0.060569
   103  H    0.053439
   104  H    0.017352
   105  H    0.040790
   106  H    0.046304
   107  H    0.059888
   108  H    0.036230
   109  H    0.023786
   110  H    0.035758
   111  H    0.042159
   112  H    0.053010
   113  H    0.032080
   114  H    0.033430
   115  H    0.024223
   116  H    0.023320
   117  H    0.042829
   118  H    0.040261
   119  H    0.032689
   120  H    0.044193
   121  H    0.030629
   122  H    0.014682
   123  H    0.027885
   124  H    0.027645
   125  H    0.021557
   126  H    0.024849
   127  H    0.032957
   128  H    0.022120
   129  H    0.022737
   130  H    0.034502
   131  H    0.026453
   132  H    0.042063
   133  H    0.020646
   134  H    0.029135
   135  H    0.037422
   136  H    0.025830
   137  H    0.026539
   138  H    0.039924
   139  H    0.035700
   140  H    0.025130
 Sum of Mulliken charges =  -0.00000

 Dipole moment (field-independent basis, Debye):
    X=              4.5390    Y=              3.6425    Z=              1.0241  Tot=              5.9092
 Quadrupole moment (field-independent basis, Debye-Ang):
   XX=           -361.4483   YY=           -422.3991   ZZ=           -408.0992
   XY=             -1.0261   XZ=             16.2748   YZ=              5.7747

 Normal termination of Gaussian 16 at Wed May  4 06:49:00 2022.
