 Gaussian 16, Revision A.03,
 Gaussian 16:  ES64L-G16RevA.03 25-Dec-2016

 --------------------------------
 #p wB97XD/Def2SVP td=(nstates=5)
 --------------------------------

 -----------------------------------------------------
 step_1451_chromophore_13 TDDFT with wB97XD functional
 -----------------------------------------------------
 Symbolic Z-matrix:
 Charge =  0 Multiplicity = 1

                         Standard orientation:
 ---------------------------------------------------------------------
 Center     Atomic      Atomic             Coordinates (Angstroms)
 Number     Number       Type             X           Y           Z
 ---------------------------------------------------------------------
      1         12           0       -5.732480    0.313341   -0.049032
      2          6           0       -3.505934   -2.384479    0.060429
      3          6           0       -3.072968    2.415383    0.609474
      4          6           0       -7.881541    2.924246    0.204641
      5          6           0       -8.363006   -1.841170   -0.669058
      6          7           0       -3.450270   -0.023009    0.328219
      7          6           0       -2.837487   -1.177954    0.327448
      8          6           0       -1.321119   -0.870096    0.450149
      9          6           0       -1.177335    0.627256    0.794927
     10          6           0       -2.639058    1.034848    0.570972
     11          6           0       -0.677576    1.019126    2.248717
     12          6           0       -0.503388   -1.340959   -0.766816
     13          6           0        0.479686   -2.549807   -0.607359
     14          6           0        1.844099   -2.241395   -1.197445
     15          8           0        2.021512   -1.756633   -2.304524
     16          8           0        2.861810   -2.636612   -0.363200
     17          7           0       -5.514471    2.427678    0.188645
     18          6           0       -4.313658    3.017869    0.460188
     19          6           0       -4.593837    4.452431    0.497700
     20          6           0       -6.011610    4.711836    0.346579
     21          6           0       -6.560415    3.318295    0.212469
     22          6           0       -3.476768    5.464409    0.945370
     23          6           0       -6.817810    6.080188    0.388687
     24          8           0       -8.063268    6.181593    0.337178
     25          6           0       -6.086625    7.239026    0.740694
     26          7           0       -7.890927    0.413691   -0.065405
     27          6           0       -8.470178    1.660319    0.105183
     28          6           0      -10.039487    1.469812   -0.037115
     29          6           0      -10.124507    0.056727   -0.748854
     30          6           0       -8.736311   -0.513060   -0.482854
     31          6           0      -10.764511    1.744920    1.310736
     32          6           0      -10.360459    0.114361   -2.279465
     33          6           0       -9.242952    0.768573   -3.237198
     34          7           0       -5.912019   -1.647072   -0.302762
     35          6           0       -7.033996   -2.446574   -0.609950
     36          6           0       -6.602855   -3.771705   -0.722431
     37          6           0       -5.274760   -3.809164   -0.407802
     38          6           0       -4.874697   -2.511839   -0.199372
     39          6           0       -7.494327   -4.884468   -0.860029
     40          6           0       -4.122529   -4.679292   -0.140433
     41          8           0       -4.121974   -5.889313   -0.066051
     42          6           0       -2.920073   -3.826554    0.157855
     43          6           0       -2.439134   -4.287357    1.509408
     44          8           0       -2.927434   -4.212143    2.638137
     45          8           0       -1.187452   -4.842409    1.358316
     46          6           0       -0.456607   -5.144931    2.636854
     47          6           0        4.240208   -2.411170   -0.764224
     48          6           0        4.891286   -1.282645   -0.129128
     49          6           0        6.203603   -1.079709   -0.002861
     50          6           0        7.305765   -1.990346   -0.667995
     51          6           0        6.680681   -0.016821    0.873201
     52          6           0        6.843599    1.363619    0.168176
     53          6           0        8.326078    1.830337    0.340504
     54          6           0        8.847046    2.624532   -0.852700
     55          6           0        7.928728    3.908180   -1.024013
     56          6           0        9.143385    1.811351   -2.124644
     57          6           0       10.725650    1.879387   -2.500232
     58          6           0       11.421336    0.553978   -2.721094
     59          6           0       12.846399    0.508644   -2.096046
     60          6           0       13.814666   -0.397518   -2.749101
     61          6           0       12.619637    0.258811   -0.570754
     62          6           0       13.481925    1.177027    0.359974
     63          6           0       12.634897    1.362011    1.664754
     64          6           0       12.424112    0.130090    2.586438
     65          6           0       11.096184   -0.624425    2.324340
     66          6           0       12.808925    0.406535    3.986810
     67          1           0       -2.183761    3.038599    0.727586
     68          1           0       -8.577184    3.748542    0.381751
     69          1           0       -9.184754   -2.479779   -0.999485
     70          1           0       -0.999447   -1.358912    1.370019
     71          1           0       -0.441320    1.136815    0.172320
     72          1           0        0.188583    0.398040    2.475992
     73          1           0       -1.468808    0.915647    2.991553
     74          1           0       -0.264350    2.027641    2.241912
     75          1           0        0.199826   -0.559755   -1.054553
     76          1           0       -1.233947   -1.481603   -1.564101
     77          1           0       -0.036944   -3.340927   -1.150652
     78          1           0        0.649666   -2.868866    0.421397
     79          1           0       -3.335595    6.153983    0.113206
     80          1           0       -2.487610    5.058643    1.161330
     81          1           0       -3.829152    6.070282    1.779041
     82          1           0       -5.147759    7.446999    0.227312
     83          1           0       -5.671221    6.990143    1.717562
     84          1           0       -6.792785    8.056486    0.881243
     85          1           0      -10.289856    2.240681   -0.766017
     86          1           0      -10.860235   -0.598050   -0.281259
     87          1           0      -11.461562    0.910254    1.390478
     88          1           0      -11.306102    2.689908    1.301321
     89          1           0      -10.104845    1.733872    2.178853
     90          1           0      -11.407333    0.304109   -2.515398
     91          1           0      -10.385065   -0.940917   -2.551971
     92          1           0       -9.853675    1.492590   -3.776869
     93          1           0       -8.734346    0.057323   -3.888421
     94          1           0       -8.564027    1.454773   -2.731231
     95          1           0       -7.264859   -5.584827   -1.662253
     96          1           0       -8.541552   -4.581075   -0.853627
     97          1           0       -7.485125   -5.444423    0.075316
     98          1           0       -2.221412   -4.105689   -0.631224
     99          1           0        0.504180   -4.646009    2.770909
    100          1           0       -0.143544   -6.184652    2.551580
    101          1           0       -1.003743   -5.142502    3.579653
    102          1           0        4.252907   -2.244565   -1.840984
    103          1           0        4.709726   -3.383750   -0.620108
    104          1           0        4.216213   -0.682088    0.481218
    105          1           0        8.142924   -1.353753   -0.955244
    106          1           0        6.931223   -2.471578   -1.570968
    107          1           0        7.668491   -2.689909    0.085327
    108          1           0        7.581298   -0.284957    1.425821
    109          1           0        5.910629    0.028713    1.644278
    110          1           0        6.063414    2.006779    0.574319
    111          1           0        6.568921    1.262915   -0.881946
    112          1           0        9.108865    1.078033    0.430114
    113          1           0        8.434199    2.371338    1.280962
    114          1           0        9.831225    3.022440   -0.606049
    115          1           0        7.503990    3.960780   -2.026647
    116          1           0        8.638082    4.734555   -1.054787
    117          1           0        7.215480    4.129192   -0.229552
    118          1           0        8.488910    2.128915   -2.936773
    119          1           0        9.013197    0.763776   -1.852080
    120          1           0       11.349184    2.473834   -1.833165
    121          1           0       10.728274    2.393908   -3.460515
    122          1           0       11.608904    0.398608   -3.783605
    123          1           0       10.793293   -0.263781   -2.365762
    124          1           0       13.399316    1.429962   -2.282064
    125          1           0       14.287572   -1.045547   -2.011674
    126          1           0       14.641679    0.206579   -3.122704
    127          1           0       13.354922   -0.955057   -3.565127
    128          1           0       12.823524   -0.790569   -0.356868
    129          1           0       11.559078    0.305334   -0.321046
    130          1           0       13.819437    2.133099   -0.040460
    131          1           0       14.405023    0.616460    0.507365
    132          1           0       11.672151    1.827474    1.451203
    133          1           0       13.296249    2.055847    2.182882
    134          1           0       13.168720   -0.561918    2.191787
    135          1           0       11.253265   -1.604622    1.872373
    136          1           0       10.463561   -0.047716    1.649889
    137          1           0       10.664049   -0.738241    3.318238
    138          1           0       12.815695    1.482270    4.161743
    139          1           0       13.805835   -0.013537    4.122800
    140          1           0       12.185968   -0.105651    4.720983
 ---------------------------------------------------------------------

 SCF Done:  E(RwB97XD) =  -3007.83184380     A.U. after   17 cycles

 Excitation energies and oscillator strengths:

 Excited State   1:      Singlet-A      1.7500 eV  708.50 nm  f=0.3611  <S**2>=0.000
     245 -> 248       -0.21142
     246 -> 247        0.67645
     245 <- 248       -0.12052
 This state for optimization and/or second-order correction.
 Total Energy, E(TD-HF/TD-DFT) =  -3007.76753417
 Copying the excited state density for this state as the 1-particle RhoCI density.

 Excited State   2:      Singlet-A      2.2292 eV  556.19 nm  f=0.0966  <S**2>=0.000
     245 -> 247        0.62787
     246 -> 248        0.31291

 Excited State   3:      Singlet-A      3.5157 eV  352.66 nm  f=0.0539  <S**2>=0.000
     242 -> 247       -0.32304
     243 -> 247        0.58355
     246 -> 248        0.16589

 Excited State   4:      Singlet-A      3.5473 eV  349.52 nm  f=0.4180  <S**2>=0.000
     242 -> 247       -0.27655
     243 -> 247       -0.31718
     245 -> 247       -0.21284
     246 -> 248        0.51368

 Excited State   5:      Singlet-A      3.7047 eV  334.67 nm  f=0.0182  <S**2>=0.000
     241 -> 247        0.55189
     241 -> 249        0.24168
     241 -> 250       -0.30739

 The electronic state is 1-A.
 Alpha  occ. eigenvalues --  -46.94972 -19.30217 -19.30211 -19.24689 -19.24613
 Alpha  occ. eigenvalues --  -19.24547 -19.23626 -14.46730 -14.45895 -14.44445
 Alpha  occ. eigenvalues --  -14.43396 -10.43617 -10.43221 -10.40209 -10.38456
 Alpha  occ. eigenvalues --  -10.35663 -10.35220 -10.35157 -10.35142 -10.34929
 Alpha  occ. eigenvalues --  -10.34740 -10.34600 -10.34079 -10.34072 -10.33488
 Alpha  occ. eigenvalues --  -10.33090 -10.32874 -10.32638 -10.32594 -10.32170
 Alpha  occ. eigenvalues --  -10.31929 -10.31853 -10.31769 -10.31754 -10.31571
 Alpha  occ. eigenvalues --  -10.31345 -10.31072 -10.30820 -10.30812 -10.30737
 Alpha  occ. eigenvalues --  -10.30712 -10.30354 -10.30229 -10.30206 -10.30187
 Alpha  occ. eigenvalues --  -10.29751 -10.29738 -10.29641 -10.29531 -10.29362
 Alpha  occ. eigenvalues --  -10.29292 -10.29240 -10.29136 -10.29088 -10.29014
 Alpha  occ. eigenvalues --  -10.28999 -10.28893 -10.28867 -10.28733 -10.28629
 Alpha  occ. eigenvalues --  -10.28613 -10.28473 -10.28208 -10.28145 -10.27935
 Alpha  occ. eigenvalues --  -10.27844  -3.20915  -1.94518  -1.94035  -1.93880
 Alpha  occ. eigenvalues --   -1.18495  -1.17767  -1.12571  -1.11603  -1.10129
 Alpha  occ. eigenvalues --   -1.08465  -1.07325  -1.05752  -1.05199  -1.04565
 Alpha  occ. eigenvalues --   -0.94874  -0.92946  -0.92072  -0.91398  -0.90836
 Alpha  occ. eigenvalues --   -0.90751  -0.89955  -0.89556  -0.89496  -0.88929
 Alpha  occ. eigenvalues --   -0.88876  -0.87612  -0.86365  -0.85534  -0.85318
 Alpha  occ. eigenvalues --   -0.84787  -0.84353  -0.83390  -0.82970  -0.82557
 Alpha  occ. eigenvalues --   -0.81685  -0.80277  -0.79937  -0.79425  -0.78419
 Alpha  occ. eigenvalues --   -0.78242  -0.77993  -0.77385  -0.77012  -0.76074
 Alpha  occ. eigenvalues --   -0.75433  -0.74821  -0.74034  -0.72509  -0.71794
 Alpha  occ. eigenvalues --   -0.70666  -0.70126  -0.69735  -0.68970  -0.67908
 Alpha  occ. eigenvalues --   -0.67753  -0.67310  -0.66677  -0.66303  -0.65378
 Alpha  occ. eigenvalues --   -0.65064  -0.64514  -0.64178  -0.63521  -0.62573
 Alpha  occ. eigenvalues --   -0.62427  -0.62024  -0.61459  -0.60771  -0.60147
 Alpha  occ. eigenvalues --   -0.59839  -0.59638  -0.58303  -0.58070  -0.57623
 Alpha  occ. eigenvalues --   -0.57033  -0.56692  -0.56489  -0.56386  -0.56021
 Alpha  occ. eigenvalues --   -0.55800  -0.55446  -0.55319  -0.55062  -0.54898
 Alpha  occ. eigenvalues --   -0.54628  -0.54461  -0.54269  -0.53954  -0.53852
 Alpha  occ. eigenvalues --   -0.53653  -0.53519  -0.53134  -0.52809  -0.52353
 Alpha  occ. eigenvalues --   -0.52126  -0.52039  -0.51984  -0.51915  -0.51764
 Alpha  occ. eigenvalues --   -0.51521  -0.51312  -0.51279  -0.50994  -0.50937
 Alpha  occ. eigenvalues --   -0.50878  -0.50635  -0.50285  -0.50119  -0.49795
 Alpha  occ. eigenvalues --   -0.49675  -0.49484  -0.49361  -0.48606  -0.48318
 Alpha  occ. eigenvalues --   -0.47957  -0.47871  -0.47822  -0.47804  -0.47581
 Alpha  occ. eigenvalues --   -0.47437  -0.47329  -0.47133  -0.47081  -0.46839
 Alpha  occ. eigenvalues --   -0.46747  -0.46436  -0.46349  -0.46240  -0.46202
 Alpha  occ. eigenvalues --   -0.45987  -0.45706  -0.45623  -0.45396  -0.45006
 Alpha  occ. eigenvalues --   -0.44913  -0.44640  -0.44488  -0.44171  -0.44072
 Alpha  occ. eigenvalues --   -0.43964  -0.43683  -0.43504  -0.43477  -0.43284
 Alpha  occ. eigenvalues --   -0.42921  -0.42852  -0.42695  -0.42547  -0.42296
 Alpha  occ. eigenvalues --   -0.42111  -0.41588  -0.41264  -0.40374  -0.40117
 Alpha  occ. eigenvalues --   -0.40039  -0.39891  -0.39527  -0.39496  -0.39306
 Alpha  occ. eigenvalues --   -0.39185  -0.38826  -0.38418  -0.38102  -0.38037
 Alpha  occ. eigenvalues --   -0.37877  -0.37615  -0.36973  -0.36437  -0.36120
 Alpha  occ. eigenvalues --   -0.35860  -0.35556  -0.35234  -0.34086  -0.33607
 Alpha  occ. eigenvalues --   -0.32815  -0.32468  -0.31865  -0.31322  -0.25927
 Alpha  occ. eigenvalues --   -0.23211
 Alpha virt. eigenvalues --   -0.06728  -0.00186   0.02193   0.04713   0.06662
 Alpha virt. eigenvalues --    0.06903   0.07091   0.08032   0.08528   0.09065
 Alpha virt. eigenvalues --    0.09776   0.10390   0.11665   0.11717   0.11876

 Mulliken charges:
               1
     1  Mg   0.952949
     2  C   -0.096732
     3  C   -0.078230
     4  C   -0.066890
     5  C   -0.069866
     6  N   -0.280748
     7  C   -0.031244
     8  C   -0.008064
     9  C   -0.142945
    10  C    0.007180
    11  C    0.007283
    12  C    0.018284
    13  C    0.002325
    14  C    0.198233
    15  O   -0.261288
    16  O   -0.363977
    17  N   -0.460253
    18  C    0.224878
    19  C   -0.162898
    20  C   -0.108508
    21  C    0.139907
    22  C    0.033173
    23  C    0.117705
    24  O   -0.254167
    25  C   -0.000091
    26  N   -0.340289
    27  C    0.050901
    28  C   -0.101711
    29  C   -0.050712
    30  C    0.030947
    31  C    0.041917
    32  C   -0.030800
    33  C   -0.055188
    34  N   -0.501998
    35  C    0.146499
    36  C   -0.207837
    37  C    0.006921
    38  C    0.203264
    39  C    0.078301
    40  C    0.060352
    41  O   -0.196457
    42  C    0.000168
    43  C    0.281200
    44  O   -0.251704
    45  O   -0.375392
    46  C    0.126340
    47  C    0.245730
    48  C   -0.127049
    49  C   -0.220161
    50  C    0.033390
    51  C    0.026619
    52  C    0.008681
    53  C   -0.019752
    54  C   -0.194518
    55  C    0.000344
    56  C    0.025013
    57  C   -0.038772
    58  C    0.015004
    59  C   -0.208652
    60  C    0.034025
    61  C    0.005437
    62  C   -0.024865
    63  C   -0.022369
    64  C   -0.236687
    65  C    0.039078
    66  C    0.029482
    67  H   -0.012361
    68  H    0.021909
    69  H   -0.006113
    70  H    0.019561
    71  H    0.042643
    72  H    0.037510
    73  H    0.055709
    74  H    0.036265
    75  H    0.043296
    76  H    0.048390
    77  H    0.074318
    78  H    0.053612
    79  H    0.048140
    80  H    0.045817
    81  H    0.049300
    82  H    0.049434
    83  H    0.052112
    84  H    0.065783
    85  H    0.035673
    86  H    0.021946
    87  H    0.028912
    88  H    0.050738
    89  H    0.048203
    90  H    0.032271
    91  H    0.013673
    92  H    0.038822
    93  H    0.063130
    94  H    0.051943
    95  H    0.055030
    96  H    0.010777
    97  H    0.049599
    98  H    0.075243
    99  H    0.051177
   100  H    0.044084
   101  H    0.078126
   102  H    0.055755
   103  H    0.049559
   104  H    0.013989
   105  H    0.030439
   106  H    0.041481
   107  H    0.054852
   108  H    0.026193
   109  H    0.015973
   110  H    0.029874
   111  H    0.031029
   112  H    0.018007
   113  H    0.024270
   114  H    0.017788
   115  H    0.017753
   116  H    0.017582
   117  H    0.036917
   118  H    0.033967
   119  H    0.006378
   120  H    0.031417
   121  H    0.023542
   122  H    0.006011
   123  H    0.017087
   124  H    0.014867
   125  H    0.015322
   126  H    0.019916
   127  H    0.027681
   128  H    0.011385
   129  H   -0.004334
   130  H    0.028178
   131  H    0.017586
   132  H    0.027655
   133  H    0.010932
   134  H    0.014512
   135  H    0.032531
   136  H    0.005432
   137  H    0.019984
   138  H    0.033678
   139  H    0.030137
   140  H    0.019288
 Sum of Mulliken charges =  -0.00000

 Dipole moment (field-independent basis, Debye):
    X=              4.7078    Y=              4.1197    Z=              1.1105  Tot=              6.3536
 Quadrupole moment (field-independent basis, Debye-Ang):
   XX=           -363.9473   YY=           -420.3315   ZZ=           -407.7620
   XY=             -3.9564   XZ=             15.8671   YZ=              5.9065

 Normal termination of Gaussian 16 at Wed May  4 07:13:06 2022.
