 Gaussian 16, Revision A.03,
 Gaussian 16:  ES64L-G16RevA.03 25-Dec-2016

 --------------------
 #p ZINDO=(nstates=5)
 --------------------

 ------------------------------
 step_1451_chromophore_13 ZINDO
 ------------------------------
 Symbolic Z-matrix:
 Charge =  0 Multiplicity = 1

                         Standard orientation:
 ---------------------------------------------------------------------
 Center     Atomic      Atomic             Coordinates (Angstroms)
 Number     Number       Type             X           Y           Z
 ---------------------------------------------------------------------
      1         12           0       -5.732480    0.313341   -0.049032
      2          6           0       -3.505934   -2.384479    0.060429
      3          6           0       -3.072968    2.415383    0.609474
      4          6           0       -7.881541    2.924246    0.204641
      5          6           0       -8.363006   -1.841170   -0.669058
      6          7           0       -3.450270   -0.023009    0.328219
      7          6           0       -2.837487   -1.177954    0.327448
      8          6           0       -1.321119   -0.870096    0.450149
      9          6           0       -1.177335    0.627256    0.794927
     10          6           0       -2.639058    1.034848    0.570972
     11          6           0       -0.677576    1.019126    2.248717
     12          6           0       -0.503388   -1.340959   -0.766816
     13          6           0        0.479686   -2.549807   -0.607359
     14          6           0        1.844099   -2.241395   -1.197445
     15          8           0        2.021512   -1.756633   -2.304524
     16          8           0        2.861810   -2.636612   -0.363200
     17          7           0       -5.514471    2.427678    0.188645
     18          6           0       -4.313658    3.017869    0.460188
     19          6           0       -4.593837    4.452431    0.497700
     20          6           0       -6.011610    4.711836    0.346579
     21          6           0       -6.560415    3.318295    0.212469
     22          6           0       -3.476768    5.464409    0.945370
     23          6           0       -6.817810    6.080188    0.388687
     24          8           0       -8.063268    6.181593    0.337178
     25          6           0       -6.086625    7.239026    0.740694
     26          7           0       -7.890927    0.413691   -0.065405
     27          6           0       -8.470178    1.660319    0.105183
     28          6           0      -10.039487    1.469812   -0.037115
     29          6           0      -10.124507    0.056727   -0.748854
     30          6           0       -8.736311   -0.513060   -0.482854
     31          6           0      -10.764511    1.744920    1.310736
     32          6           0      -10.360459    0.114361   -2.279465
     33          6           0       -9.242952    0.768573   -3.237198
     34          7           0       -5.912019   -1.647072   -0.302762
     35          6           0       -7.033996   -2.446574   -0.609950
     36          6           0       -6.602855   -3.771705   -0.722431
     37          6           0       -5.274760   -3.809164   -0.407802
     38          6           0       -4.874697   -2.511839   -0.199372
     39          6           0       -7.494327   -4.884468   -0.860029
     40          6           0       -4.122529   -4.679292   -0.140433
     41          8           0       -4.121974   -5.889313   -0.066051
     42          6           0       -2.920073   -3.826554    0.157855
     43          6           0       -2.439134   -4.287357    1.509408
     44          8           0       -2.927434   -4.212143    2.638137
     45          8           0       -1.187452   -4.842409    1.358316
     46          6           0       -0.456607   -5.144931    2.636854
     47          6           0        4.240208   -2.411170   -0.764224
     48          6           0        4.891286   -1.282645   -0.129128
     49          6           0        6.203603   -1.079709   -0.002861
     50          6           0        7.305765   -1.990346   -0.667995
     51          6           0        6.680681   -0.016821    0.873201
     52          6           0        6.843599    1.363619    0.168176
     53          6           0        8.326078    1.830337    0.340504
     54          6           0        8.847046    2.624532   -0.852700
     55          6           0        7.928728    3.908180   -1.024013
     56          6           0        9.143385    1.811351   -2.124644
     57          6           0       10.725650    1.879387   -2.500232
     58          6           0       11.421336    0.553978   -2.721094
     59          6           0       12.846399    0.508644   -2.096046
     60          6           0       13.814666   -0.397518   -2.749101
     61          6           0       12.619637    0.258811   -0.570754
     62          6           0       13.481925    1.177027    0.359974
     63          6           0       12.634897    1.362011    1.664754
     64          6           0       12.424112    0.130090    2.586438
     65          6           0       11.096184   -0.624425    2.324340
     66          6           0       12.808925    0.406535    3.986810
     67          1           0       -2.183761    3.038599    0.727586
     68          1           0       -8.577184    3.748542    0.381751
     69          1           0       -9.184754   -2.479779   -0.999485
     70          1           0       -0.999447   -1.358912    1.370019
     71          1           0       -0.441320    1.136815    0.172320
     72          1           0        0.188583    0.398040    2.475992
     73          1           0       -1.468808    0.915647    2.991553
     74          1           0       -0.264350    2.027641    2.241912
     75          1           0        0.199826   -0.559755   -1.054553
     76          1           0       -1.233947   -1.481603   -1.564101
     77          1           0       -0.036944   -3.340927   -1.150652
     78          1           0        0.649666   -2.868866    0.421397
     79          1           0       -3.335595    6.153983    0.113206
     80          1           0       -2.487610    5.058643    1.161330
     81          1           0       -3.829152    6.070282    1.779041
     82          1           0       -5.147759    7.446999    0.227312
     83          1           0       -5.671221    6.990143    1.717562
     84          1           0       -6.792785    8.056486    0.881243
     85          1           0      -10.289856    2.240681   -0.766017
     86          1           0      -10.860235   -0.598050   -0.281259
     87          1           0      -11.461562    0.910254    1.390478
     88          1           0      -11.306102    2.689908    1.301321
     89          1           0      -10.104845    1.733872    2.178853
     90          1           0      -11.407333    0.304109   -2.515398
     91          1           0      -10.385065   -0.940917   -2.551971
     92          1           0       -9.853675    1.492590   -3.776869
     93          1           0       -8.734346    0.057323   -3.888421
     94          1           0       -8.564027    1.454773   -2.731231
     95          1           0       -7.264859   -5.584827   -1.662253
     96          1           0       -8.541552   -4.581075   -0.853627
     97          1           0       -7.485125   -5.444423    0.075316
     98          1           0       -2.221412   -4.105689   -0.631224
     99          1           0        0.504180   -4.646009    2.770909
    100          1           0       -0.143544   -6.184652    2.551580
    101          1           0       -1.003743   -5.142502    3.579653
    102          1           0        4.252907   -2.244565   -1.840984
    103          1           0        4.709726   -3.383750   -0.620108
    104          1           0        4.216213   -0.682088    0.481218
    105          1           0        8.142924   -1.353753   -0.955244
    106          1           0        6.931223   -2.471578   -1.570968
    107          1           0        7.668491   -2.689909    0.085327
    108          1           0        7.581298   -0.284957    1.425821
    109          1           0        5.910629    0.028713    1.644278
    110          1           0        6.063414    2.006779    0.574319
    111          1           0        6.568921    1.262915   -0.881946
    112          1           0        9.108865    1.078033    0.430114
    113          1           0        8.434199    2.371338    1.280962
    114          1           0        9.831225    3.022440   -0.606049
    115          1           0        7.503990    3.960780   -2.026647
    116          1           0        8.638082    4.734555   -1.054787
    117          1           0        7.215480    4.129192   -0.229552
    118          1           0        8.488910    2.128915   -2.936773
    119          1           0        9.013197    0.763776   -1.852080
    120          1           0       11.349184    2.473834   -1.833165
    121          1           0       10.728274    2.393908   -3.460515
    122          1           0       11.608904    0.398608   -3.783605
    123          1           0       10.793293   -0.263781   -2.365762
    124          1           0       13.399316    1.429962   -2.282064
    125          1           0       14.287572   -1.045547   -2.011674
    126          1           0       14.641679    0.206579   -3.122704
    127          1           0       13.354922   -0.955057   -3.565127
    128          1           0       12.823524   -0.790569   -0.356868
    129          1           0       11.559078    0.305334   -0.321046
    130          1           0       13.819437    2.133099   -0.040460
    131          1           0       14.405023    0.616460    0.507365
    132          1           0       11.672151    1.827474    1.451203
    133          1           0       13.296249    2.055847    2.182882
    134          1           0       13.168720   -0.561918    2.191787
    135          1           0       11.253265   -1.604622    1.872373
    136          1           0       10.463561   -0.047716    1.649889
    137          1           0       10.664049   -0.738241    3.318238
    138          1           0       12.815695    1.482270    4.161743
    139          1           0       13.805835   -0.013537    4.122800
    140          1           0       12.185968   -0.105651    4.720983
 ---------------------------------------------------------------------

 SCF Done:  E(RZINDO/S) =  -474.357727312     A.U. after   20 cycles

 Excitation energies and oscillator strengths:

 Excited State   1:      Singlet-A      1.3181 eV  940.63 nm  f=0.5707  <S**2>=0.000
     175 ->178         0.20416
     176 ->177         0.65979
 This state for optimization and/or second-order correction.
 Total Energy, E(CIS/TDA) =  -474.309288125
 Copying the excited state density for this state as the 1-particle RhoCI density.

 Excited State   2:      Singlet-A      1.9339 eV  641.09 nm  f=0.0269  <S**2>=0.000
     175 ->177         0.53043
     176 ->178        -0.44310

 Excited State   3:      Singlet-A      2.9914 eV  414.47 nm  f=0.0084  <S**2>=0.000
     170 ->177         0.31233
     170 ->178        -0.13847
     170 ->179         0.23159
     170 ->180        -0.37394
     170 ->182         0.15593
     170 ->185         0.20324
     170 ->187        -0.13580
     170 ->189        -0.11185

 Excited State   4:      Singlet-A      3.0375 eV  408.18 nm  f=1.2263  <S**2>=0.000
     171 ->177         0.11057
     175 ->177         0.40234
     176 ->178         0.50222
     176 ->179        -0.13741

 Excited State   5:      Singlet-A      3.0640 eV  404.64 nm  f=0.0339  <S**2>=0.000
     167 ->177        -0.16681
     167 ->179         0.31678
     167 ->180         0.14832
     167 ->185         0.14021
     168 ->177        -0.20342
     168 ->179         0.35499
     168 ->180         0.16620
     168 ->182        -0.10140
     168 ->185         0.15045
     176 ->179        -0.12952

 The electronic state is 1-A.
 Alpha  occ. eigenvalues --   -1.85978  -1.80843  -1.79837  -1.73661  -1.72313
 Alpha  occ. eigenvalues --   -1.71012  -1.67016  -1.61516  -1.59861  -1.59301
 Alpha  occ. eigenvalues --   -1.56781  -1.52946  -1.49424  -1.47502  -1.43740
 Alpha  occ. eigenvalues --   -1.42450  -1.42131  -1.39973  -1.38503  -1.37384
 Alpha  occ. eigenvalues --   -1.36252  -1.35058  -1.32992  -1.32189  -1.28965
 Alpha  occ. eigenvalues --   -1.28002  -1.24677  -1.22508  -1.20465  -1.18655
 Alpha  occ. eigenvalues --   -1.18363  -1.18140  -1.16221  -1.14865  -1.13650
 Alpha  occ. eigenvalues --   -1.13397  -1.10387  -1.10076  -1.05961  -1.04150
 Alpha  occ. eigenvalues --   -1.03695  -1.01382  -0.99741  -0.98163  -0.97960
 Alpha  occ. eigenvalues --   -0.96882  -0.94897  -0.93263  -0.92631  -0.92013
 Alpha  occ. eigenvalues --   -0.90912  -0.90261  -0.88840  -0.88187  -0.85574
 Alpha  occ. eigenvalues --   -0.84820  -0.83432  -0.83135  -0.81955  -0.81216
 Alpha  occ. eigenvalues --   -0.80082  -0.79681  -0.77417  -0.76564  -0.76309
 Alpha  occ. eigenvalues --   -0.75852  -0.75521  -0.74587  -0.74346  -0.74161
 Alpha  occ. eigenvalues --   -0.74006  -0.73667  -0.72477  -0.72426  -0.71898
 Alpha  occ. eigenvalues --   -0.71185  -0.69890  -0.69188  -0.68828  -0.67967
 Alpha  occ. eigenvalues --   -0.67557  -0.66361  -0.66237  -0.66121  -0.65781
 Alpha  occ. eigenvalues --   -0.65615  -0.63921  -0.63808  -0.63682  -0.62927
 Alpha  occ. eigenvalues --   -0.62917  -0.62718  -0.62360  -0.62266  -0.61841
 Alpha  occ. eigenvalues --   -0.61574  -0.61417  -0.60952  -0.60675  -0.60166
 Alpha  occ. eigenvalues --   -0.59513  -0.59277  -0.59059  -0.58627  -0.58497
 Alpha  occ. eigenvalues --   -0.58392  -0.57908  -0.56991  -0.56827  -0.56496
 Alpha  occ. eigenvalues --   -0.56468  -0.56026  -0.55324  -0.55015  -0.54913
 Alpha  occ. eigenvalues --   -0.54757  -0.54282  -0.53944  -0.53033  -0.52914
 Alpha  occ. eigenvalues --   -0.52721  -0.52261  -0.52051  -0.51990  -0.51295
 Alpha  occ. eigenvalues --   -0.50850  -0.50650  -0.50442  -0.50314  -0.50279
 Alpha  occ. eigenvalues --   -0.50211  -0.50087  -0.49612  -0.49434  -0.49199
 Alpha  occ. eigenvalues --   -0.49173  -0.49103  -0.48645  -0.47970  -0.47635
 Alpha  occ. eigenvalues --   -0.47327  -0.47262  -0.46890  -0.46643  -0.46538
 Alpha  occ. eigenvalues --   -0.46195  -0.45418  -0.45356  -0.44828  -0.44707
 Alpha  occ. eigenvalues --   -0.44619  -0.44400  -0.44104  -0.43928  -0.43615
 Alpha  occ. eigenvalues --   -0.43546  -0.43173  -0.42440  -0.42201  -0.41843
 Alpha  occ. eigenvalues --   -0.41485  -0.41368  -0.40688  -0.39355  -0.39067
 Alpha  occ. eigenvalues --   -0.38251  -0.36840  -0.36202  -0.34883  -0.34347
 Alpha  occ. eigenvalues --   -0.33659  -0.32703  -0.32327  -0.31792  -0.26537
 Alpha  occ. eigenvalues --   -0.21883
 Alpha virt. eigenvalues --   -0.08226  -0.02456  -0.00800   0.01323   0.01759
 Alpha virt. eigenvalues --    0.02848   0.03246   0.03360   0.04159   0.04634
 Alpha virt. eigenvalues --    0.05593   0.06373   0.06508   0.07473   0.08097

 Mulliken charges:
               1
     1  Mg   0.420567
     2  C   -0.046302
     3  C   -0.078508
     4  C   -0.062698
     5  C   -0.080010
     6  N   -0.260407
     7  C    0.112675
     8  C    0.008993
     9  C    0.000165
    10  C    0.133491
    11  C   -0.051158
    12  C   -0.026395
    13  C    0.002967
    14  C    0.472965
    15  O   -0.523146
    16  O   -0.278583
    17  N   -0.331864
    18  C    0.128462
    19  C    0.012034
    20  C   -0.058270
    21  C    0.153344
    22  C   -0.051947
    23  C    0.346514
    24  O   -0.528493
    25  C   -0.025017
    26  N   -0.276960
    27  C    0.142276
    28  C   -0.003617
    29  C    0.015568
    30  C    0.131597
    31  C   -0.045426
    32  C   -0.035689
    33  C   -0.056450
    34  N   -0.334217
    35  C    0.075453
    36  C    0.041325
    37  C   -0.052045
    38  C    0.110524
    39  C   -0.040745
    40  C    0.337715
    41  O   -0.524123
    42  C    0.057762
    43  C    0.495468
    44  O   -0.520971
    45  O   -0.273497
    46  C    0.067021
    47  C    0.112709
    48  C   -0.081911
    49  C   -0.005038
    50  C   -0.049092
    51  C   -0.020903
    52  C   -0.024892
    53  C   -0.029130
    54  C   -0.018363
    55  C   -0.068358
    56  C   -0.037333
    57  C   -0.043934
    58  C   -0.030029
    59  C   -0.018981
    60  C   -0.053456
    61  C   -0.039759
    62  C   -0.039873
    63  C   -0.036544
    64  C   -0.010166
    65  C   -0.060166
    66  C   -0.046936
    67  H    0.023265
    68  H    0.039656
    69  H    0.020535
    70  H    0.023596
    71  H    0.035055
    72  H    0.018256
    73  H    0.032914
    74  H    0.019475
    75  H    0.028947
    76  H    0.032659
    77  H    0.049540
    78  H    0.038710
    79  H    0.023542
    80  H    0.030815
    81  H    0.030057
    82  H    0.043103
    83  H    0.041126
    84  H    0.044771
    85  H    0.027702
    86  H    0.029454
    87  H    0.018474
    88  H    0.028516
    89  H    0.029388
    90  H    0.026209
    91  H    0.004746
    92  H    0.014078
    93  H    0.037942
    94  H    0.030585
    95  H    0.035012
    96  H    0.013807
    97  H    0.029901
    98  H    0.060885
    99  H    0.036367
   100  H    0.024868
   101  H    0.060734
   102  H    0.051915
   103  H    0.037674
   104  H    0.027872
   105  H    0.021809
   106  H    0.027229
   107  H    0.033769
   108  H    0.021253
   109  H    0.011644
   110  H    0.026962
   111  H    0.024913
   112  H    0.017914
   113  H    0.014792
   114  H    0.012819
   115  H    0.020192
   116  H    0.006871
   117  H    0.029458
   118  H    0.032682
   119  H    0.020275
   120  H    0.029947
   121  H    0.009991
   122  H    0.008678
   123  H    0.022729
   124  H    0.021344
   125  H    0.015837
   126  H    0.012086
   127  H    0.021570
   128  H    0.015474
   129  H    0.018846
   130  H    0.025857
   131  H    0.018089
   132  H    0.024438
   133  H    0.004892
   134  H    0.009322
   135  H    0.020797
   136  H    0.023417
   137  H    0.019261
   138  H    0.022539
   139  H    0.015941
   140  H    0.016020
 Sum of Mulliken charges =  -0.00000

 Dipole moment (field-independent basis, Debye):
    X=              6.0618    Y=              6.3986    Z=              1.1938  Tot=              8.8946
 N-N= 4.335069351521D+03 E-N= 0.000000000000D+00  KE=-9.344260937428D+03
 Leave Link  601 at Wed May  4 07:25:59 2022, MaxMem=  6710886400 cpu:               0.8 elap:               0.1
 (Enter /sw/apps/gaussian-16.0/g16/l9999.exe)
 1\1\GINC-BP1-COMPUTE050\SP\RZINDO CIS\STO-3G\C55H74Mg1N4O6\OF15641\04-
 May-2022\0\\#p ZINDO=(nstates=5)\\step_1451_chromophore_13 ZINDO\\0,1\
 Mg,0,46.81,25.076,28.883\C,0,47.256,27.418,31.445\C,0,45.879,22.77,31.
 279\C,0,46.696,22.669,26.497\C,0,47.786,27.414,26.532\N,0,46.621,25.13
 9,31.212\C,0,46.866,26.175,31.971\C,0,46.434,25.778,33.408\C,0,46.156,
 24.26,33.407\C,0,46.223,24.036,31.891\C,0,47.163,23.311,34.183\C,0,45.
 293,26.65,33.964\C,0,45.595,27.657,35.125\C,0,44.573,27.544,36.242\O,0

 Normal termination of Gaussian 16 at Wed May  4 07:25:59 2022.
