 Gaussian 16, Revision A.03,
 Gaussian 16:  ES64L-G16RevA.03 25-Dec-2016

 ------------------------------
 #p blyp/Def2SVP td=(nstates=5)
 ------------------------------

 ---------------------------------------------------
 step_1551_chromophore_25 TDDFT with blyp functional
 ---------------------------------------------------
 Symbolic Z-matrix:
 Charge =  0 Multiplicity = 1

                         Standard orientation:
 ---------------------------------------------------------------------
 Center     Atomic      Atomic             Coordinates (Angstroms)
 Number     Number       Type             X           Y           Z
 ---------------------------------------------------------------------
      1         12           0        6.185975    0.350246    0.448196
      2          6           0        3.676669   -2.085572    0.147595
      3          6           0        3.918499    2.781180    0.053078
      4          6           0        8.682852    2.527627   -0.378227
      5          6           0        8.584723   -2.213808    0.371451
      6          7           0        4.029580    0.258208    0.262477
      7          6           0        3.177266   -0.790549    0.102851
      8          6           0        1.706769   -0.328169    0.065652
      9          6           0        1.839626    1.244147   -0.071602
     10          6           0        3.379939    1.446499    0.046429
     11          6           0        1.177328    1.868741   -1.373512
     12          6           0        0.755371   -0.807618    1.190501
     13          6           0       -0.490936   -1.688687    0.743392
     14          6           0       -1.856798   -1.310232    1.350880
     15          8           0       -2.065629   -1.145865    2.570430
     16          8           0       -2.739410   -1.050226    0.386493
     17          7           0        6.318914    2.396575    0.167660
     18          6           0        5.227790    3.211509    0.066628
     19          6           0        5.677331    4.552307   -0.049166
     20          6           0        7.130789    4.516381   -0.099579
     21          6           0        7.435953    3.094793   -0.067733
     22          6           0        4.722204    5.682655   -0.252499
     23          6           0        8.164312    5.681545   -0.356167
     24          8           0        9.429137    5.509324   -0.352741
     25          6           0        7.525446    7.091067   -0.425908
     26          7           0        8.311456    0.103950    0.067538
     27          6           0        9.054400    1.167499   -0.316533
     28          6           0       10.515121    0.735477   -0.635413
     29          6           0       10.603933   -0.665406    0.091097
     30          6           0        9.136313   -0.955961    0.143680
     31          6           0       10.823280    0.741404   -2.141125
     32          6           0       11.308581   -0.542092    1.479882
     33          6           0       10.567324   -0.956414    2.730984
     34          7           0        6.276415   -1.721985    0.213849
     35          6           0        7.282597   -2.637970    0.390145
     36          6           0        6.763341   -4.006223    0.529068
     37          6           0        5.324925   -3.815790    0.392137
     38          6           0        5.101077   -2.406788    0.242841
     39          6           0        7.485517   -5.306797    0.468464
     40          6           0        4.124212   -4.525201    0.290360
     41          8           0        3.892620   -5.717661    0.313847
     42          6           0        2.991228   -3.466791    0.063576
     43          6           0        2.369535   -3.794584   -1.255032
     44          8           0        3.004770   -3.742339   -2.341680
     45          8           0        1.009435   -3.846268   -1.142700
     46          6           0        0.163983   -3.868985   -2.354971
     47          6           0       -4.109241   -0.715052    0.873317
     48          6           0       -5.076833   -0.794138   -0.281743
     49          6           0       -6.397660   -0.645072   -0.197834
     50          6           0       -7.145039   -0.339221    1.124677
     51          6           0       -7.365185   -0.984134   -1.368716
     52          6           0       -7.886047    0.161524   -2.325526
     53          6           0       -9.256788    0.710623   -2.013677
     54          6           0      -10.202079    0.648650   -3.190891
     55          6           0      -10.532118    2.120246   -3.534466
     56          6           0      -11.645584   -0.123167   -2.933204
     57          6           0      -12.359559    0.087871   -1.574519
     58          6           0      -13.876975    0.288362   -1.690672
     59          6           0      -14.650207   -0.082865   -0.423619
     60          6           0      -16.063534   -0.590991   -0.797083
     61          6           0      -14.634764    1.080352    0.601074
     62          6           0      -14.317328    0.631008    2.111086
     63          6           0      -13.374833    1.605282    2.887062
     64          6           0      -12.084163    0.865929    3.405025
     65          6           0      -11.835593    1.285990    4.921290
     66          6           0      -10.843317    1.320129    2.649771
     67          1           0        3.080352    3.479032    0.005131
     68          1           0        9.451096    3.254434   -0.652680
     69          1           0        9.279261   -3.052990    0.447325
     70          1           0        1.266392   -0.583526   -0.898425
     71          1           0        1.453418    1.754915    0.810188
     72          1           0        1.880946    2.102334   -2.171429
     73          1           0        0.554609    2.735442   -1.154512
     74          1           0        0.600177    1.122223   -1.920079
     75          1           0        0.394174    0.035074    1.779884
     76          1           0        1.390413   -1.435648    1.816381
     77          1           0       -0.300872   -2.698424    1.107203
     78          1           0       -0.542979   -1.658401   -0.345014
     79          1           0        5.020053    6.725519   -0.140364
     80          1           0        4.053680    5.458921    0.578161
     81          1           0        4.177749    5.578137   -1.190698
     82          1           0        8.378505    7.769672   -0.404312
     83          1           0        6.988249    7.190035    0.517519
     84          1           0        6.715843    7.229560   -1.143351
     85          1           0       11.258971    1.431444   -0.247530
     86          1           0       11.099958   -1.481918   -0.435278
     87          1           0       11.894567    0.913524   -2.245505
     88          1           0       10.291382    1.542447   -2.654515
     89          1           0       10.509821   -0.261385   -2.429181
     90          1           0       11.662182    0.476348    1.637985
     91          1           0       12.136276   -1.251105    1.496093
     92          1           0        9.984444   -0.056423    2.928685
     93          1           0       11.282650   -1.137192    3.533102
     94          1           0        9.937948   -1.832897    2.577541
     95          1           0        8.562300   -5.190704    0.348861
     96          1           0        7.096553   -5.909715   -0.350867
     97          1           0        7.382638   -5.838300    1.414483
     98          1           0        2.275340   -3.602631    0.872969
     99          1           0       -0.819934   -3.406052   -2.285154
    100          1           0       -0.108108   -4.923214   -2.412039
    101          1           0        0.771655   -3.615388   -3.222917
    102          1           0       -4.002468    0.296490    1.264488
    103          1           0       -4.389764   -1.433811    1.643690
    104          1           0       -4.752404   -1.209804   -1.234863
    105          1           0       -6.545421   -0.519908    2.017710
    106          1           0       -8.053467   -0.938157    1.181650
    107          1           0       -7.450823    0.706999    1.103635
    108          1           0       -8.213154   -1.581741   -1.036845
    109          1           0       -6.890218   -1.726324   -2.009642
    110          1           0       -7.845993   -0.248827   -3.334391
    111          1           0       -7.193344    0.998362   -2.230861
    112          1           0       -8.985504    1.746227   -1.809985
    113          1           0       -9.697382    0.211142   -1.150960
    114          1           0       -9.689436    0.179587   -4.029510
    115          1           0      -10.982916    2.609973   -2.671206
    116          1           0      -11.249754    2.296200   -4.335955
    117          1           0       -9.614656    2.647869   -3.793432
    118          1           0      -11.500495   -1.203197   -2.945851
    119          1           0      -12.444148    0.069364   -3.650380
    120          1           0      -12.045433    1.016347   -1.098905
    121          1           0      -12.073817   -0.696737   -0.873953
    122          1           0      -14.194347   -0.415127   -2.460464
    123          1           0      -14.088960    1.277839   -2.096353
    124          1           0      -14.182911   -0.937032    0.066803
    125          1           0      -16.817153   -0.112228   -0.170891
    126          1           0      -16.103137   -1.659134   -0.584416
    127          1           0      -16.431883   -0.517321   -1.820652
    128          1           0      -15.612144    1.558235    0.663291
    129          1           0      -13.956495    1.904575    0.379278
    130          1           0      -13.923981   -0.382082    2.032087
    131          1           0      -15.251276    0.627287    2.673838
    132          1           0      -13.817520    2.007300    3.798977
    133          1           0      -13.104429    2.511748    2.345662
    134          1           0      -12.208356   -0.213883    3.321167
    135          1           0      -12.738864    0.995051    5.457543
    136          1           0      -11.800342    2.365343    5.070899
    137          1           0      -10.863731    0.848429    5.149453
    138          1           0      -11.097767    1.114530    1.610084
    139          1           0       -9.912244    0.820937    2.921612
    140          1           0      -10.729107    2.403323    2.694324
 ---------------------------------------------------------------------

 SCF Done:  E(RB-LYP) =  -3007.38257278     A.U. after   21 cycles

 Excitation energies and oscillator strengths:

 Excited State   1:      Singlet-A      1.7796 eV  696.70 nm  f=0.2284  <S**2>=0.000
     244 -> 247       -0.27812
     245 -> 247        0.10473
     245 -> 248       -0.12122
     245 -> 249       -0.12015
     246 -> 247        0.62831
     246 <- 247       -0.13639
 This state for optimization and/or second-order correction.
 Total Energy, E(TD-HF/TD-DFT) =  -3007.31717376
 Copying the excited state density for this state as the 1-particle RhoCI density.

 Excited State   2:      Singlet-A      1.8172 eV  682.26 nm  f=0.0743  <S**2>=0.000
     244 -> 247        0.60526
     245 -> 247       -0.20733
     246 -> 247        0.28970

 Excited State   3:      Singlet-A      2.0137 eV  615.69 nm  f=0.0834  <S**2>=0.000
     244 -> 247        0.22910
     245 -> 247        0.61052
     246 -> 248        0.16462
     246 -> 249        0.17767

 Excited State   4:      Singlet-A      2.1956 eV  564.70 nm  f=0.0012  <S**2>=0.000
     243 -> 247        0.70250

 Excited State   5:      Singlet-A      2.4840 eV  499.14 nm  f=0.0025  <S**2>=0.000
     242 -> 247        0.69015

 The electronic state is 1-A.
 Alpha  occ. eigenvalues --  -46.27384 -18.83044 -18.82700 -18.76798 -18.76227
 Alpha  occ. eigenvalues --  -18.76221 -18.74802 -14.03783 -14.02944 -14.01059
 Alpha  occ. eigenvalues --  -14.00693 -10.04175 -10.04031 -10.01434  -9.98907
 Alpha  occ. eigenvalues --   -9.98315  -9.98174  -9.97200  -9.96855  -9.96184
 Alpha  occ. eigenvalues --   -9.95791  -9.95513  -9.95498  -9.95067  -9.94962
 Alpha  occ. eigenvalues --   -9.94735  -9.94413  -9.94170  -9.94123  -9.93896
 Alpha  occ. eigenvalues --   -9.93800  -9.93617  -9.93596  -9.93584  -9.93481
 Alpha  occ. eigenvalues --   -9.93401  -9.93253  -9.93177  -9.93109  -9.93091
 Alpha  occ. eigenvalues --   -9.92843  -9.92763  -9.92623  -9.92525  -9.92311
 Alpha  occ. eigenvalues --   -9.92271  -9.92212  -9.92198  -9.92160  -9.91997
 Alpha  occ. eigenvalues --   -9.91886  -9.91872  -9.91870  -9.91790  -9.91684
 Alpha  occ. eigenvalues --   -9.91331  -9.91273  -9.91243  -9.91205  -9.91101
 Alpha  occ. eigenvalues --   -9.91012  -9.91010  -9.90882  -9.90835  -9.90825
 Alpha  occ. eigenvalues --   -9.90639  -2.92031  -1.72452  -1.71901  -1.71753
 Alpha  occ. eigenvalues --   -0.98632  -0.97084  -0.91024  -0.89479  -0.88748
 Alpha  occ. eigenvalues --   -0.88175  -0.87100  -0.86427  -0.86026  -0.84849
 Alpha  occ. eigenvalues --   -0.74909  -0.73754  -0.72961  -0.72506  -0.72368
 Alpha  occ. eigenvalues --   -0.72037  -0.71982  -0.71223  -0.70815  -0.70457
 Alpha  occ. eigenvalues --   -0.69532  -0.68924  -0.68149  -0.67801  -0.67391
 Alpha  occ. eigenvalues --   -0.66554  -0.65974  -0.65561  -0.65167  -0.64678
 Alpha  occ. eigenvalues --   -0.64319  -0.62713  -0.62378  -0.62137  -0.61067
 Alpha  occ. eigenvalues --   -0.60751  -0.60008  -0.59881  -0.59472  -0.58850
 Alpha  occ. eigenvalues --   -0.58747  -0.57593  -0.56785  -0.55723  -0.54346
 Alpha  occ. eigenvalues --   -0.53849  -0.53609  -0.52508  -0.52310  -0.51849
 Alpha  occ. eigenvalues --   -0.51365  -0.51194  -0.50646  -0.50426  -0.50154
 Alpha  occ. eigenvalues --   -0.49928  -0.49076  -0.48914  -0.48594  -0.47022
 Alpha  occ. eigenvalues --   -0.46295  -0.45936  -0.45443  -0.44736  -0.44417
 Alpha  occ. eigenvalues --   -0.44201  -0.43889  -0.42954  -0.42826  -0.42283
 Alpha  occ. eigenvalues --   -0.42055  -0.41655  -0.41576  -0.41475  -0.41375
 Alpha  occ. eigenvalues --   -0.41257  -0.40742  -0.40609  -0.40484  -0.40117
 Alpha  occ. eigenvalues --   -0.39917  -0.39709  -0.39645  -0.39497  -0.39225
 Alpha  occ. eigenvalues --   -0.39106  -0.38949  -0.38684  -0.38469  -0.38140
 Alpha  occ. eigenvalues --   -0.38058  -0.37890  -0.37705  -0.37447  -0.37237
 Alpha  occ. eigenvalues --   -0.37103  -0.37044  -0.36953  -0.36781  -0.36726
 Alpha  occ. eigenvalues --   -0.36652  -0.36152  -0.35647  -0.35601  -0.35419
 Alpha  occ. eigenvalues --   -0.35281  -0.35124  -0.35029  -0.34911  -0.34790
 Alpha  occ. eigenvalues --   -0.34707  -0.34441  -0.34374  -0.33944  -0.33822
 Alpha  occ. eigenvalues --   -0.33573  -0.33431  -0.33390  -0.33256  -0.33122
 Alpha  occ. eigenvalues --   -0.33067  -0.32958  -0.32912  -0.32636  -0.32576
 Alpha  occ. eigenvalues --   -0.32183  -0.32141  -0.32016  -0.31833  -0.31408
 Alpha  occ. eigenvalues --   -0.31296  -0.30963  -0.30868  -0.30652  -0.30441
 Alpha  occ. eigenvalues --   -0.30308  -0.30002  -0.29802  -0.29762  -0.29682
 Alpha  occ. eigenvalues --   -0.29575  -0.29551  -0.29232  -0.29129  -0.28962
 Alpha  occ. eigenvalues --   -0.28693  -0.28558  -0.28399  -0.28193  -0.28080
 Alpha  occ. eigenvalues --   -0.27615  -0.27279  -0.27141  -0.27013  -0.26677
 Alpha  occ. eigenvalues --   -0.26364  -0.26150  -0.26140  -0.25857  -0.25583
 Alpha  occ. eigenvalues --   -0.25468  -0.24678  -0.24586  -0.24174  -0.23933
 Alpha  occ. eigenvalues --   -0.23333  -0.22123  -0.21452  -0.21273  -0.21014
 Alpha  occ. eigenvalues --   -0.20561  -0.20166  -0.19561  -0.18213  -0.17328
 Alpha  occ. eigenvalues --   -0.15815
 Alpha virt. eigenvalues --   -0.11608  -0.06949  -0.06506  -0.04962  -0.03671
 Alpha virt. eigenvalues --   -0.03088  -0.02838  -0.02075  -0.01429  -0.00101
 Alpha virt. eigenvalues --    0.01206   0.01629   0.01726   0.02354   0.03015

 Mulliken charges:
               1
     1  Mg   0.703781
     2  C   -0.009207
     3  C   -0.094450
     4  C   -0.067765
     5  C   -0.064353
     6  N   -0.235581
     7  C   -0.079200
     8  C    0.077096
     9  C   -0.059307
    10  C    0.010897
    11  C    0.121360
    12  C    0.143095
    13  C    0.121056
    14  C    0.052467
    15  O   -0.231875
    16  O   -0.248540
    17  N   -0.284952
    18  C    0.207082
    19  C   -0.126197
    20  C   -0.006075
    21  C    0.078140
    22  C    0.141508
    23  C   -0.017398
    24  O   -0.199676
    25  C    0.113195
    26  N   -0.176638
    27  C    0.075875
    28  C   -0.031844
    29  C    0.088597
    30  C   -0.022348
    31  C    0.141474
    32  C    0.064772
    33  C    0.088905
    34  N   -0.253742
    35  C    0.105123
    36  C   -0.147000
    37  C    0.099215
    38  C    0.093744
    39  C    0.181447
    40  C   -0.115261
    41  O   -0.128574
    42  C    0.088234
    43  C    0.142794
    44  O   -0.219809
    45  O   -0.270647
    46  C    0.204269
    47  C    0.309869
    48  C   -0.079362
    49  C   -0.147091
    50  C    0.128738
    51  C    0.098083
    52  C    0.071403
    53  C    0.120960
    54  C   -0.029876
    55  C    0.082335
    56  C    0.097982
    57  C    0.001754
    58  C    0.092062
    59  C   -0.040955
    60  C    0.108215
    61  C    0.092736
    62  C    0.061562
    63  C    0.106452
    64  C   -0.109698
    65  C    0.093774
    66  C    0.086992
    67  H   -0.066703
    68  H   -0.040338
    69  H   -0.077713
    70  H   -0.033110
    71  H   -0.012215
    72  H   -0.009446
    73  H    0.002611
    74  H   -0.015179
    75  H   -0.007212
    76  H   -0.016216
    77  H    0.015342
    78  H   -0.007629
    79  H   -0.014597
    80  H    0.004064
    81  H    0.011397
    82  H    0.001924
    83  H    0.012627
    84  H    0.023680
    85  H   -0.027254
    86  H   -0.040870
    87  H   -0.005543
    88  H   -0.001144
    89  H   -0.004813
    90  H   -0.016251
    91  H   -0.029866
    92  H   -0.010245
    93  H   -0.007594
    94  H   -0.011680
    95  H   -0.027969
    96  H    0.025373
    97  H    0.001903
    98  H   -0.016662
    99  H    0.028921
   100  H    0.009880
   101  H    0.031117
   102  H    0.011399
   103  H    0.027432
   104  H   -0.037857
   105  H   -0.007803
   106  H   -0.001872
   107  H    0.007794
   108  H   -0.033362
   109  H   -0.045228
   110  H   -0.025652
   111  H   -0.030019
   112  H   -0.034421
   113  H   -0.013010
   114  H   -0.033151
   115  H   -0.016508
   116  H   -0.025044
   117  H   -0.019776
   118  H   -0.036011
   119  H   -0.030193
   120  H   -0.016024
   121  H   -0.028156
   122  H   -0.043858
   123  H   -0.022636
   124  H   -0.037666
   125  H   -0.026535
   126  H   -0.023633
   127  H   -0.013561
   128  H   -0.037199
   129  H   -0.029273
   130  H   -0.019921
   131  H   -0.024042
   132  H   -0.048849
   133  H   -0.035919
   134  H   -0.026877
   135  H   -0.012934
   136  H   -0.019656
   137  H   -0.012607
   138  H   -0.019523
   139  H   -0.006151
   140  H   -0.019913
 Sum of Mulliken charges =  -0.00000

 Dipole moment (field-independent basis, Debye):
    X=             -3.9652    Y=              3.7462    Z=             -0.6085  Tot=              5.4888
 Quadrupole moment (field-independent basis, Debye-Ang):
   XX=           -379.5866   YY=           -423.6984   ZZ=           -415.9037
   XY=             -4.6740   XZ=             17.1549   YZ=              0.6048

 Normal termination of Gaussian 16 at Wed May  4 10:15:42 2022.
