 Gaussian 16, Revision A.03,
 Gaussian 16:  ES64L-G16RevA.03 25-Dec-2016

 -----------------------------------
 #p cam-b3lyp/Def2SVP td=(nstates=5)
 -----------------------------------

 --------------------------------------------------------
 step_1551_chromophore_25 TDDFT with cam-b3lyp functional
 --------------------------------------------------------
 Symbolic Z-matrix:
 Charge =  0 Multiplicity = 1

                         Standard orientation:
 ---------------------------------------------------------------------
 Center     Atomic      Atomic             Coordinates (Angstroms)
 Number     Number       Type             X           Y           Z
 ---------------------------------------------------------------------
      1         12           0        6.185975    0.350246    0.448196
      2          6           0        3.676669   -2.085572    0.147595
      3          6           0        3.918499    2.781180    0.053078
      4          6           0        8.682852    2.527627   -0.378227
      5          6           0        8.584723   -2.213808    0.371451
      6          7           0        4.029580    0.258208    0.262477
      7          6           0        3.177266   -0.790549    0.102851
      8          6           0        1.706769   -0.328169    0.065652
      9          6           0        1.839626    1.244147   -0.071602
     10          6           0        3.379939    1.446499    0.046429
     11          6           0        1.177328    1.868741   -1.373512
     12          6           0        0.755371   -0.807618    1.190501
     13          6           0       -0.490936   -1.688687    0.743392
     14          6           0       -1.856798   -1.310232    1.350880
     15          8           0       -2.065629   -1.145865    2.570430
     16          8           0       -2.739410   -1.050226    0.386493
     17          7           0        6.318914    2.396575    0.167660
     18          6           0        5.227790    3.211509    0.066628
     19          6           0        5.677331    4.552307   -0.049166
     20          6           0        7.130789    4.516381   -0.099579
     21          6           0        7.435953    3.094793   -0.067733
     22          6           0        4.722204    5.682655   -0.252499
     23          6           0        8.164312    5.681545   -0.356167
     24          8           0        9.429137    5.509324   -0.352741
     25          6           0        7.525446    7.091067   -0.425908
     26          7           0        8.311456    0.103950    0.067538
     27          6           0        9.054400    1.167499   -0.316533
     28          6           0       10.515121    0.735477   -0.635413
     29          6           0       10.603933   -0.665406    0.091097
     30          6           0        9.136313   -0.955961    0.143680
     31          6           0       10.823280    0.741404   -2.141125
     32          6           0       11.308581   -0.542092    1.479882
     33          6           0       10.567324   -0.956414    2.730984
     34          7           0        6.276415   -1.721985    0.213849
     35          6           0        7.282597   -2.637970    0.390145
     36          6           0        6.763341   -4.006223    0.529068
     37          6           0        5.324925   -3.815790    0.392137
     38          6           0        5.101077   -2.406788    0.242841
     39          6           0        7.485517   -5.306797    0.468464
     40          6           0        4.124212   -4.525201    0.290360
     41          8           0        3.892620   -5.717661    0.313847
     42          6           0        2.991228   -3.466791    0.063576
     43          6           0        2.369535   -3.794584   -1.255032
     44          8           0        3.004770   -3.742339   -2.341680
     45          8           0        1.009435   -3.846268   -1.142700
     46          6           0        0.163983   -3.868985   -2.354971
     47          6           0       -4.109241   -0.715052    0.873317
     48          6           0       -5.076833   -0.794138   -0.281743
     49          6           0       -6.397660   -0.645072   -0.197834
     50          6           0       -7.145039   -0.339221    1.124677
     51          6           0       -7.365185   -0.984134   -1.368716
     52          6           0       -7.886047    0.161524   -2.325526
     53          6           0       -9.256788    0.710623   -2.013677
     54          6           0      -10.202079    0.648650   -3.190891
     55          6           0      -10.532118    2.120246   -3.534466
     56          6           0      -11.645584   -0.123167   -2.933204
     57          6           0      -12.359559    0.087871   -1.574519
     58          6           0      -13.876975    0.288362   -1.690672
     59          6           0      -14.650207   -0.082865   -0.423619
     60          6           0      -16.063534   -0.590991   -0.797083
     61          6           0      -14.634764    1.080352    0.601074
     62          6           0      -14.317328    0.631008    2.111086
     63          6           0      -13.374833    1.605282    2.887062
     64          6           0      -12.084163    0.865929    3.405025
     65          6           0      -11.835593    1.285990    4.921290
     66          6           0      -10.843317    1.320129    2.649771
     67          1           0        3.080352    3.479032    0.005131
     68          1           0        9.451096    3.254434   -0.652680
     69          1           0        9.279261   -3.052990    0.447325
     70          1           0        1.266392   -0.583526   -0.898425
     71          1           0        1.453418    1.754915    0.810188
     72          1           0        1.880946    2.102334   -2.171429
     73          1           0        0.554609    2.735442   -1.154512
     74          1           0        0.600177    1.122223   -1.920079
     75          1           0        0.394174    0.035074    1.779884
     76          1           0        1.390413   -1.435648    1.816381
     77          1           0       -0.300872   -2.698424    1.107203
     78          1           0       -0.542979   -1.658401   -0.345014
     79          1           0        5.020053    6.725519   -0.140364
     80          1           0        4.053680    5.458921    0.578161
     81          1           0        4.177749    5.578137   -1.190698
     82          1           0        8.378505    7.769672   -0.404312
     83          1           0        6.988249    7.190035    0.517519
     84          1           0        6.715843    7.229560   -1.143351
     85          1           0       11.258971    1.431444   -0.247530
     86          1           0       11.099958   -1.481918   -0.435278
     87          1           0       11.894567    0.913524   -2.245505
     88          1           0       10.291382    1.542447   -2.654515
     89          1           0       10.509821   -0.261385   -2.429181
     90          1           0       11.662182    0.476348    1.637985
     91          1           0       12.136276   -1.251105    1.496093
     92          1           0        9.984444   -0.056423    2.928685
     93          1           0       11.282650   -1.137192    3.533102
     94          1           0        9.937948   -1.832897    2.577541
     95          1           0        8.562300   -5.190704    0.348861
     96          1           0        7.096553   -5.909715   -0.350867
     97          1           0        7.382638   -5.838300    1.414483
     98          1           0        2.275340   -3.602631    0.872969
     99          1           0       -0.819934   -3.406052   -2.285154
    100          1           0       -0.108108   -4.923214   -2.412039
    101          1           0        0.771655   -3.615388   -3.222917
    102          1           0       -4.002468    0.296490    1.264488
    103          1           0       -4.389764   -1.433811    1.643690
    104          1           0       -4.752404   -1.209804   -1.234863
    105          1           0       -6.545421   -0.519908    2.017710
    106          1           0       -8.053467   -0.938157    1.181650
    107          1           0       -7.450823    0.706999    1.103635
    108          1           0       -8.213154   -1.581741   -1.036845
    109          1           0       -6.890218   -1.726324   -2.009642
    110          1           0       -7.845993   -0.248827   -3.334391
    111          1           0       -7.193344    0.998362   -2.230861
    112          1           0       -8.985504    1.746227   -1.809985
    113          1           0       -9.697382    0.211142   -1.150960
    114          1           0       -9.689436    0.179587   -4.029510
    115          1           0      -10.982916    2.609973   -2.671206
    116          1           0      -11.249754    2.296200   -4.335955
    117          1           0       -9.614656    2.647869   -3.793432
    118          1           0      -11.500495   -1.203197   -2.945851
    119          1           0      -12.444148    0.069364   -3.650380
    120          1           0      -12.045433    1.016347   -1.098905
    121          1           0      -12.073817   -0.696737   -0.873953
    122          1           0      -14.194347   -0.415127   -2.460464
    123          1           0      -14.088960    1.277839   -2.096353
    124          1           0      -14.182911   -0.937032    0.066803
    125          1           0      -16.817153   -0.112228   -0.170891
    126          1           0      -16.103137   -1.659134   -0.584416
    127          1           0      -16.431883   -0.517321   -1.820652
    128          1           0      -15.612144    1.558235    0.663291
    129          1           0      -13.956495    1.904575    0.379278
    130          1           0      -13.923981   -0.382082    2.032087
    131          1           0      -15.251276    0.627287    2.673838
    132          1           0      -13.817520    2.007300    3.798977
    133          1           0      -13.104429    2.511748    2.345662
    134          1           0      -12.208356   -0.213883    3.321167
    135          1           0      -12.738864    0.995051    5.457543
    136          1           0      -11.800342    2.365343    5.070899
    137          1           0      -10.863731    0.848429    5.149453
    138          1           0      -11.097767    1.114530    1.610084
    139          1           0       -9.912244    0.820937    2.921612
    140          1           0      -10.729107    2.403323    2.694324
 ---------------------------------------------------------------------

 SCF Done:  E(RCAM-B3LYP) =  -3007.16715430     A.U. after   19 cycles

 Excitation energies and oscillator strengths:

 Excited State   1:      Singlet-A      1.6972 eV  730.51 nm  f=0.3693  <S**2>=0.000
     245 -> 248       -0.17570
     246 -> 247        0.68645
     245 <- 248       -0.10683
 This state for optimization and/or second-order correction.
 Total Energy, E(TD-HF/TD-DFT) =  -3007.10478208
 Copying the excited state density for this state as the 1-particle RhoCI density.

 Excited State   2:      Singlet-A      2.2466 eV  551.87 nm  f=0.1158  <S**2>=0.000
     245 -> 247        0.63790
     246 -> 248        0.29060

 Excited State   3:      Singlet-A      3.3807 eV  366.74 nm  f=0.0218  <S**2>=0.000
     242 -> 247        0.32049
     243 -> 247       -0.31118
     244 -> 247        0.51144
     246 -> 248        0.14440

 Excited State   4:      Singlet-A      3.4757 eV  356.72 nm  f=0.0511  <S**2>=0.000
     240 -> 247        0.13366
     242 -> 247       -0.30801
     243 -> 247        0.26263
     244 -> 247        0.44398
     246 -> 248       -0.31830

 Excited State   5:      Singlet-A      3.5075 eV  353.48 nm  f=0.0553  <S**2>=0.000
     242 -> 247        0.30179
     242 -> 249        0.16246
     242 -> 250        0.16181
     243 -> 247        0.47653
     243 -> 249        0.17506
     243 -> 250        0.16582
     246 -> 248        0.16358

 The electronic state is 1-A.
 Alpha  occ. eigenvalues --  -46.88916 -19.25945 -19.25598 -19.20314 -19.19168
 Alpha  occ. eigenvalues --  -19.19136 -19.17722 -14.42623 -14.41870 -14.39567
 Alpha  occ. eigenvalues --  -14.38970 -10.39608 -10.39305 -10.37165 -10.33383
 Alpha  occ. eigenvalues --  -10.33028 -10.32197 -10.32028 -10.31228 -10.30743
 Alpha  occ. eigenvalues --  -10.30109 -10.30081 -10.29853 -10.29152 -10.29035
 Alpha  occ. eigenvalues --  -10.28922 -10.28868 -10.28459 -10.28359 -10.28173
 Alpha  occ. eigenvalues --  -10.27981 -10.27880 -10.27767 -10.27596 -10.27508
 Alpha  occ. eigenvalues --  -10.27473 -10.27365 -10.27314 -10.27258 -10.27125
 Alpha  occ. eigenvalues --  -10.26914 -10.26648 -10.26328 -10.26322 -10.26301
 Alpha  occ. eigenvalues --  -10.26215 -10.25940 -10.25913 -10.25896 -10.25842
 Alpha  occ. eigenvalues --  -10.25715 -10.25568 -10.25562 -10.25467 -10.25400
 Alpha  occ. eigenvalues --  -10.25044 -10.24989 -10.24859 -10.24780 -10.24708
 Alpha  occ. eigenvalues --  -10.24641 -10.24629 -10.24518 -10.24436 -10.24435
 Alpha  occ. eigenvalues --  -10.24433  -3.17465  -1.92363  -1.91905  -1.91779
 Alpha  occ. eigenvalues --   -1.17063  -1.15472  -1.09227  -1.08042  -1.06583
 Alpha  occ. eigenvalues --   -1.05995  -1.04885  -1.04150  -1.03696  -1.02174
 Alpha  occ. eigenvalues --   -0.91908  -0.90631  -0.89759  -0.89326  -0.89094
 Alpha  occ. eigenvalues --   -0.88725  -0.88616  -0.87846  -0.87344  -0.87265
 Alpha  occ. eigenvalues --   -0.85939  -0.85244  -0.84447  -0.83885  -0.83529
 Alpha  occ. eigenvalues --   -0.82589  -0.82267  -0.81491  -0.81041  -0.80612
 Alpha  occ. eigenvalues --   -0.80101  -0.78545  -0.77983  -0.77682  -0.76483
 Alpha  occ. eigenvalues --   -0.76139  -0.75282  -0.75228  -0.74757  -0.74067
 Alpha  occ. eigenvalues --   -0.73833  -0.72541  -0.71690  -0.70515  -0.68846
 Alpha  occ. eigenvalues --   -0.68433  -0.68215  -0.66937  -0.66720  -0.66193
 Alpha  occ. eigenvalues --   -0.65593  -0.65180  -0.64624  -0.64416  -0.64201
 Alpha  occ. eigenvalues --   -0.63760  -0.63013  -0.62785  -0.62222  -0.60855
 Alpha  occ. eigenvalues --   -0.59738  -0.59502  -0.58808  -0.58088  -0.57878
 Alpha  occ. eigenvalues --   -0.57657  -0.57263  -0.56294  -0.56018  -0.55216
 Alpha  occ. eigenvalues --   -0.55086  -0.54783  -0.54692  -0.54345  -0.54212
 Alpha  occ. eigenvalues --   -0.53984  -0.53570  -0.53308  -0.53098  -0.52835
 Alpha  occ. eigenvalues --   -0.52652  -0.52473  -0.52346  -0.52166  -0.51616
 Alpha  occ. eigenvalues --   -0.51591  -0.51380  -0.51073  -0.51021  -0.50741
 Alpha  occ. eigenvalues --   -0.50506  -0.50381  -0.50123  -0.49737  -0.49602
 Alpha  occ. eigenvalues --   -0.49443  -0.49320  -0.49214  -0.49046  -0.49018
 Alpha  occ. eigenvalues --   -0.48805  -0.48791  -0.48443  -0.47878  -0.47715
 Alpha  occ. eigenvalues --   -0.47452  -0.47334  -0.47017  -0.46844  -0.46602
 Alpha  occ. eigenvalues --   -0.46496  -0.46351  -0.46146  -0.45610  -0.45541
 Alpha  occ. eigenvalues --   -0.45322  -0.45212  -0.45179  -0.44975  -0.44932
 Alpha  occ. eigenvalues --   -0.44806  -0.44744  -0.44542  -0.44329  -0.44294
 Alpha  occ. eigenvalues --   -0.43969  -0.43775  -0.43486  -0.43438  -0.42970
 Alpha  occ. eigenvalues --   -0.42694  -0.42627  -0.42302  -0.42265  -0.41895
 Alpha  occ. eigenvalues --   -0.41614  -0.41496  -0.41416  -0.41323  -0.40942
 Alpha  occ. eigenvalues --   -0.40930  -0.40661  -0.40516  -0.40351  -0.40096
 Alpha  occ. eigenvalues --   -0.39611  -0.39580  -0.39349  -0.39142  -0.39072
 Alpha  occ. eigenvalues --   -0.38462  -0.38117  -0.37920  -0.37777  -0.37670
 Alpha  occ. eigenvalues --   -0.37170  -0.37107  -0.36981  -0.36860  -0.36660
 Alpha  occ. eigenvalues --   -0.36080  -0.35845  -0.35096  -0.34595  -0.34216
 Alpha  occ. eigenvalues --   -0.33934  -0.33514  -0.33288  -0.32019  -0.31036
 Alpha  occ. eigenvalues --   -0.30869  -0.30151  -0.30092  -0.29134  -0.24129
 Alpha  occ. eigenvalues --   -0.21092
 Alpha virt. eigenvalues --   -0.08693  -0.01600  -0.00272   0.01919   0.02060
 Alpha virt. eigenvalues --    0.04227   0.04742   0.05409   0.05884   0.06589
 Alpha virt. eigenvalues --    0.07615   0.07730   0.08500   0.08643   0.09311

 Mulliken charges:
               1
     1  Mg   0.835617
     2  C   -0.036501
     3  C   -0.113152
     4  C   -0.079503
     5  C   -0.069171
     6  N   -0.310445
     7  C   -0.040460
     8  C    0.033111
     9  C   -0.110373
    10  C    0.040200
    11  C    0.060291
    12  C    0.085632
    13  C    0.056530
    14  C    0.136013
    15  O   -0.274886
    16  O   -0.312945
    17  N   -0.377142
    18  C    0.214838
    19  C   -0.133912
    20  C   -0.062234
    21  C    0.104050
    22  C    0.080128
    23  C    0.062927
    24  O   -0.239260
    25  C    0.031194
    26  N   -0.242285
    27  C    0.083495
    28  C   -0.084249
    29  C    0.029602
    30  C   -0.011385
    31  C    0.087776
    32  C    0.013058
    33  C    0.028472
    34  N   -0.339501
    35  C    0.101901
    36  C   -0.131670
    37  C    0.013683
    38  C    0.128285
    39  C    0.126566
    40  C   -0.018931
    41  O   -0.170799
    42  C    0.016258
    43  C    0.233058
    44  O   -0.259140
    45  O   -0.337003
    46  C    0.164733
    47  C    0.276963
    48  C   -0.101564
    49  C   -0.169260
    50  C    0.069810
    51  C    0.042459
    52  C    0.019325
    53  C    0.061991
    54  C   -0.086465
    55  C    0.025066
    56  C    0.046835
    57  C   -0.042556
    58  C    0.037160
    59  C   -0.100535
    60  C    0.049332
    61  C    0.041711
    62  C    0.009728
    63  C    0.049058
    64  C   -0.167168
    65  C    0.034139
    66  C    0.036625
    67  H   -0.030266
    68  H    0.001354
    69  H   -0.042302
    70  H    0.000953
    71  H    0.022207
    72  H    0.017766
    73  H    0.026648
    74  H    0.010379
    75  H    0.024029
    76  H    0.015135
    77  H    0.045235
    78  H    0.021398
    79  H    0.013821
    80  H    0.030092
    81  H    0.040413
    82  H    0.037632
    83  H    0.039062
    84  H    0.051503
    85  H    0.007489
    86  H   -0.002881
    87  H    0.018733
    88  H    0.023092
    89  H    0.018218
    90  H    0.010948
    91  H   -0.001417
    92  H    0.010811
    93  H    0.016716
    94  H    0.011899
    95  H   -0.003373
    96  H    0.050692
    97  H    0.027999
    98  H    0.025546
    99  H    0.048913
   100  H    0.033288
   101  H    0.058757
   102  H    0.040209
   103  H    0.054982
   104  H   -0.001957
   105  H    0.016043
   106  H    0.020503
   107  H    0.029719
   108  H   -0.004040
   109  H   -0.012975
   110  H    0.003047
   111  H   -0.000992
   112  H   -0.002716
   113  H    0.010870
   114  H   -0.000944
   115  H    0.005800
   116  H    0.000870
   117  H    0.004312
   118  H   -0.007070
   119  H   -0.001321
   120  H    0.004740
   121  H   -0.002675
   122  H   -0.014307
   123  H    0.004858
   124  H   -0.005015
   125  H   -0.001935
   126  H    0.001056
   127  H    0.011307
   128  H   -0.007789
   129  H   -0.002461
   130  H    0.004435
   131  H    0.004350
   132  H   -0.016857
   133  H   -0.007292
   134  H    0.003701
   135  H    0.011139
   136  H    0.003842
   137  H    0.011314
   138  H   -0.000961
   139  H    0.015143
   140  H    0.003454
 Sum of Mulliken charges =  -0.00000

 Dipole moment (field-independent basis, Debye):
    X=             -4.1429    Y=              4.8177    Z=             -0.7822  Tot=              6.4020
 Quadrupole moment (field-independent basis, Debye-Ang):
   XX=           -378.0271   YY=           -418.7981   ZZ=           -416.4480
   XY=              1.2712   XZ=             17.5443   YZ=              0.3335

 Normal termination of Gaussian 16 at Wed May  4 09:18:26 2022.
