 Gaussian 16, Revision A.03,
 Gaussian 16:  ES64L-G16RevA.03 25-Dec-2016

 ---------------------------------
 #p PBE1PBE/Def2SVP td=(nstates=5)
 ---------------------------------

 ------------------------------------------------------
 step_1551_chromophore_25 TDDFT with PBE1PBE functional
 ------------------------------------------------------
 Symbolic Z-matrix:
 Charge =  0 Multiplicity = 1

                         Standard orientation:
 ---------------------------------------------------------------------
 Center     Atomic      Atomic             Coordinates (Angstroms)
 Number     Number       Type             X           Y           Z
 ---------------------------------------------------------------------
      1         12           0        6.185975    0.350246    0.448196
      2          6           0        3.676669   -2.085572    0.147595
      3          6           0        3.918499    2.781180    0.053078
      4          6           0        8.682852    2.527627   -0.378227
      5          6           0        8.584723   -2.213808    0.371451
      6          7           0        4.029580    0.258208    0.262477
      7          6           0        3.177266   -0.790549    0.102851
      8          6           0        1.706769   -0.328169    0.065652
      9          6           0        1.839626    1.244147   -0.071602
     10          6           0        3.379939    1.446499    0.046429
     11          6           0        1.177328    1.868741   -1.373512
     12          6           0        0.755371   -0.807618    1.190501
     13          6           0       -0.490936   -1.688687    0.743392
     14          6           0       -1.856798   -1.310232    1.350880
     15          8           0       -2.065629   -1.145865    2.570430
     16          8           0       -2.739410   -1.050226    0.386493
     17          7           0        6.318914    2.396575    0.167660
     18          6           0        5.227790    3.211509    0.066628
     19          6           0        5.677331    4.552307   -0.049166
     20          6           0        7.130789    4.516381   -0.099579
     21          6           0        7.435953    3.094793   -0.067733
     22          6           0        4.722204    5.682655   -0.252499
     23          6           0        8.164312    5.681545   -0.356167
     24          8           0        9.429137    5.509324   -0.352741
     25          6           0        7.525446    7.091067   -0.425908
     26          7           0        8.311456    0.103950    0.067538
     27          6           0        9.054400    1.167499   -0.316533
     28          6           0       10.515121    0.735477   -0.635413
     29          6           0       10.603933   -0.665406    0.091097
     30          6           0        9.136313   -0.955961    0.143680
     31          6           0       10.823280    0.741404   -2.141125
     32          6           0       11.308581   -0.542092    1.479882
     33          6           0       10.567324   -0.956414    2.730984
     34          7           0        6.276415   -1.721985    0.213849
     35          6           0        7.282597   -2.637970    0.390145
     36          6           0        6.763341   -4.006223    0.529068
     37          6           0        5.324925   -3.815790    0.392137
     38          6           0        5.101077   -2.406788    0.242841
     39          6           0        7.485517   -5.306797    0.468464
     40          6           0        4.124212   -4.525201    0.290360
     41          8           0        3.892620   -5.717661    0.313847
     42          6           0        2.991228   -3.466791    0.063576
     43          6           0        2.369535   -3.794584   -1.255032
     44          8           0        3.004770   -3.742339   -2.341680
     45          8           0        1.009435   -3.846268   -1.142700
     46          6           0        0.163983   -3.868985   -2.354971
     47          6           0       -4.109241   -0.715052    0.873317
     48          6           0       -5.076833   -0.794138   -0.281743
     49          6           0       -6.397660   -0.645072   -0.197834
     50          6           0       -7.145039   -0.339221    1.124677
     51          6           0       -7.365185   -0.984134   -1.368716
     52          6           0       -7.886047    0.161524   -2.325526
     53          6           0       -9.256788    0.710623   -2.013677
     54          6           0      -10.202079    0.648650   -3.190891
     55          6           0      -10.532118    2.120246   -3.534466
     56          6           0      -11.645584   -0.123167   -2.933204
     57          6           0      -12.359559    0.087871   -1.574519
     58          6           0      -13.876975    0.288362   -1.690672
     59          6           0      -14.650207   -0.082865   -0.423619
     60          6           0      -16.063534   -0.590991   -0.797083
     61          6           0      -14.634764    1.080352    0.601074
     62          6           0      -14.317328    0.631008    2.111086
     63          6           0      -13.374833    1.605282    2.887062
     64          6           0      -12.084163    0.865929    3.405025
     65          6           0      -11.835593    1.285990    4.921290
     66          6           0      -10.843317    1.320129    2.649771
     67          1           0        3.080352    3.479032    0.005131
     68          1           0        9.451096    3.254434   -0.652680
     69          1           0        9.279261   -3.052990    0.447325
     70          1           0        1.266392   -0.583526   -0.898425
     71          1           0        1.453418    1.754915    0.810188
     72          1           0        1.880946    2.102334   -2.171429
     73          1           0        0.554609    2.735442   -1.154512
     74          1           0        0.600177    1.122223   -1.920079
     75          1           0        0.394174    0.035074    1.779884
     76          1           0        1.390413   -1.435648    1.816381
     77          1           0       -0.300872   -2.698424    1.107203
     78          1           0       -0.542979   -1.658401   -0.345014
     79          1           0        5.020053    6.725519   -0.140364
     80          1           0        4.053680    5.458921    0.578161
     81          1           0        4.177749    5.578137   -1.190698
     82          1           0        8.378505    7.769672   -0.404312
     83          1           0        6.988249    7.190035    0.517519
     84          1           0        6.715843    7.229560   -1.143351
     85          1           0       11.258971    1.431444   -0.247530
     86          1           0       11.099958   -1.481918   -0.435278
     87          1           0       11.894567    0.913524   -2.245505
     88          1           0       10.291382    1.542447   -2.654515
     89          1           0       10.509821   -0.261385   -2.429181
     90          1           0       11.662182    0.476348    1.637985
     91          1           0       12.136276   -1.251105    1.496093
     92          1           0        9.984444   -0.056423    2.928685
     93          1           0       11.282650   -1.137192    3.533102
     94          1           0        9.937948   -1.832897    2.577541
     95          1           0        8.562300   -5.190704    0.348861
     96          1           0        7.096553   -5.909715   -0.350867
     97          1           0        7.382638   -5.838300    1.414483
     98          1           0        2.275340   -3.602631    0.872969
     99          1           0       -0.819934   -3.406052   -2.285154
    100          1           0       -0.108108   -4.923214   -2.412039
    101          1           0        0.771655   -3.615388   -3.222917
    102          1           0       -4.002468    0.296490    1.264488
    103          1           0       -4.389764   -1.433811    1.643690
    104          1           0       -4.752404   -1.209804   -1.234863
    105          1           0       -6.545421   -0.519908    2.017710
    106          1           0       -8.053467   -0.938157    1.181650
    107          1           0       -7.450823    0.706999    1.103635
    108          1           0       -8.213154   -1.581741   -1.036845
    109          1           0       -6.890218   -1.726324   -2.009642
    110          1           0       -7.845993   -0.248827   -3.334391
    111          1           0       -7.193344    0.998362   -2.230861
    112          1           0       -8.985504    1.746227   -1.809985
    113          1           0       -9.697382    0.211142   -1.150960
    114          1           0       -9.689436    0.179587   -4.029510
    115          1           0      -10.982916    2.609973   -2.671206
    116          1           0      -11.249754    2.296200   -4.335955
    117          1           0       -9.614656    2.647869   -3.793432
    118          1           0      -11.500495   -1.203197   -2.945851
    119          1           0      -12.444148    0.069364   -3.650380
    120          1           0      -12.045433    1.016347   -1.098905
    121          1           0      -12.073817   -0.696737   -0.873953
    122          1           0      -14.194347   -0.415127   -2.460464
    123          1           0      -14.088960    1.277839   -2.096353
    124          1           0      -14.182911   -0.937032    0.066803
    125          1           0      -16.817153   -0.112228   -0.170891
    126          1           0      -16.103137   -1.659134   -0.584416
    127          1           0      -16.431883   -0.517321   -1.820652
    128          1           0      -15.612144    1.558235    0.663291
    129          1           0      -13.956495    1.904575    0.379278
    130          1           0      -13.923981   -0.382082    2.032087
    131          1           0      -15.251276    0.627287    2.673838
    132          1           0      -13.817520    2.007300    3.798977
    133          1           0      -13.104429    2.511748    2.345662
    134          1           0      -12.208356   -0.213883    3.321167
    135          1           0      -12.738864    0.995051    5.457543
    136          1           0      -11.800342    2.365343    5.070899
    137          1           0      -10.863731    0.848429    5.149453
    138          1           0      -11.097767    1.114530    1.610084
    139          1           0       -9.912244    0.820937    2.921612
    140          1           0      -10.729107    2.403323    2.694324
 ---------------------------------------------------------------------

 SCF Done:  E(RPBE1PBE) =  -3005.35599343     A.U. after   16 cycles

 Excitation energies and oscillator strengths:

 Excited State   1:      Singlet-A      1.8421 eV  673.06 nm  f=0.3569  <S**2>=0.000
     245 -> 248       -0.16510
     246 -> 247        0.69400
     246 <- 247       -0.10892
 This state for optimization and/or second-order correction.
 Total Energy, E(TD-HF/TD-DFT) =  -3005.28829797
 Copying the excited state density for this state as the 1-particle RhoCI density.

 Excited State   2:      Singlet-A      2.2399 eV  553.53 nm  f=0.1161  <S**2>=0.000
     245 -> 247        0.65129
     246 -> 248        0.25655

 Excited State   3:      Singlet-A      2.9253 eV  423.84 nm  f=0.0005  <S**2>=0.000
     243 -> 247        0.56996
     243 -> 249        0.12454
     243 -> 250        0.11457
     244 -> 247        0.36728

 Excited State   4:      Singlet-A      3.0287 eV  409.36 nm  f=0.0046  <S**2>=0.000
     242 -> 247       -0.18032
     243 -> 247       -0.36782
     244 -> 247        0.56547

 Excited State   5:      Singlet-A      3.1590 eV  392.48 nm  f=0.0077  <S**2>=0.000
     240 -> 247       -0.10914
     242 -> 247        0.66029
     244 -> 247        0.15793
     246 -> 248       -0.10187

 The electronic state is 1-A.
 Alpha  occ. eigenvalues --  -46.92324 -19.26667 -19.26285 -19.20395 -19.19504
 Alpha  occ. eigenvalues --  -19.19491 -19.18128 -14.42177 -14.41320 -14.39138
 Alpha  occ. eigenvalues --  -14.38737 -10.36685 -10.36400 -10.34185 -10.30644
 Alpha  occ. eigenvalues --  -10.30443 -10.29607 -10.29454 -10.29043 -10.28396
 Alpha  occ. eigenvalues --  -10.27773 -10.27581 -10.27531 -10.27044 -10.26864
 Alpha  occ. eigenvalues --  -10.26657 -10.26500 -10.26296 -10.26282 -10.26069
 Alpha  occ. eigenvalues --  -10.25593 -10.25506 -10.25493 -10.25445 -10.25166
 Alpha  occ. eigenvalues --  -10.25151 -10.25030 -10.24893 -10.24671 -10.24361
 Alpha  occ. eigenvalues --  -10.24359 -10.24290 -10.23910 -10.23836 -10.23769
 Alpha  occ. eigenvalues --  -10.23713 -10.23653 -10.23602 -10.23538 -10.23527
 Alpha  occ. eigenvalues --  -10.23267 -10.23156 -10.23126 -10.22976 -10.22936
 Alpha  occ. eigenvalues --  -10.22631 -10.22574 -10.22426 -10.22391 -10.22314
 Alpha  occ. eigenvalues --  -10.22181 -10.22162 -10.22023 -10.21938 -10.21841
 Alpha  occ. eigenvalues --  -10.21812  -3.14451  -1.87289  -1.86811  -1.86689
 Alpha  occ. eigenvalues --   -1.11941  -1.10286  -1.04125  -1.02581  -1.01482
 Alpha  occ. eigenvalues --   -1.00841  -0.99474  -0.98750  -0.98321  -0.96987
 Alpha  occ. eigenvalues --   -0.86349  -0.84754  -0.83871  -0.83571  -0.83299
 Alpha  occ. eigenvalues --   -0.82926  -0.82871  -0.81956  -0.81691  -0.81445
 Alpha  occ. eigenvalues --   -0.80341  -0.79472  -0.78625  -0.78203  -0.77791
 Alpha  occ. eigenvalues --   -0.76804  -0.76363  -0.75756  -0.75275  -0.74894
 Alpha  occ. eigenvalues --   -0.74312  -0.72791  -0.72249  -0.72014  -0.70851
 Alpha  occ. eigenvalues --   -0.70290  -0.69654  -0.69313  -0.68889  -0.68247
 Alpha  occ. eigenvalues --   -0.68151  -0.67039  -0.66111  -0.64892  -0.63363
 Alpha  occ. eigenvalues --   -0.62670  -0.62565  -0.61316  -0.60972  -0.60348
 Alpha  occ. eigenvalues --   -0.60031  -0.59671  -0.59170  -0.59011  -0.58328
 Alpha  occ. eigenvalues --   -0.58290  -0.57202  -0.57013  -0.56856  -0.55308
 Alpha  occ. eigenvalues --   -0.54175  -0.54039  -0.53447  -0.52738  -0.52427
 Alpha  occ. eigenvalues --   -0.52188  -0.51602  -0.50798  -0.50565  -0.49808
 Alpha  occ. eigenvalues --   -0.49620  -0.49380  -0.49295  -0.48866  -0.48608
 Alpha  occ. eigenvalues --   -0.48529  -0.48103  -0.47917  -0.47474  -0.47285
 Alpha  occ. eigenvalues --   -0.47150  -0.46888  -0.46849  -0.46687  -0.46307
 Alpha  occ. eigenvalues --   -0.46145  -0.45935  -0.45717  -0.45542  -0.45314
 Alpha  occ. eigenvalues --   -0.44990  -0.44880  -0.44718  -0.44260  -0.44151
 Alpha  occ. eigenvalues --   -0.44028  -0.43955  -0.43787  -0.43594  -0.43582
 Alpha  occ. eigenvalues --   -0.43385  -0.43361  -0.43090  -0.42536  -0.42352
 Alpha  occ. eigenvalues --   -0.42117  -0.41944  -0.41654  -0.41452  -0.41356
 Alpha  occ. eigenvalues --   -0.41311  -0.41068  -0.40804  -0.40414  -0.40231
 Alpha  occ. eigenvalues --   -0.40017  -0.39986  -0.39844  -0.39762  -0.39655
 Alpha  occ. eigenvalues --   -0.39465  -0.39356  -0.39324  -0.39168  -0.39032
 Alpha  occ. eigenvalues --   -0.38693  -0.38612  -0.38337  -0.38151  -0.37841
 Alpha  occ. eigenvalues --   -0.37513  -0.37440  -0.37099  -0.37052  -0.36678
 Alpha  occ. eigenvalues --   -0.36546  -0.36265  -0.36206  -0.36098  -0.35840
 Alpha  occ. eigenvalues --   -0.35638  -0.35452  -0.35424  -0.35303  -0.35007
 Alpha  occ. eigenvalues --   -0.34560  -0.34336  -0.34146  -0.34129  -0.33909
 Alpha  occ. eigenvalues --   -0.33322  -0.33001  -0.32709  -0.32703  -0.32630
 Alpha  occ. eigenvalues --   -0.32193  -0.32055  -0.31927  -0.31743  -0.31734
 Alpha  occ. eigenvalues --   -0.30913  -0.30848  -0.30064  -0.29555  -0.29459
 Alpha  occ. eigenvalues --   -0.29091  -0.28595  -0.28344  -0.26819  -0.26523
 Alpha  occ. eigenvalues --   -0.26131  -0.25613  -0.25122  -0.24951  -0.21048
 Alpha  occ. eigenvalues --   -0.18737
 Alpha virt. eigenvalues --   -0.11184  -0.05128  -0.04408  -0.02467  -0.00879
 Alpha virt. eigenvalues --   -0.00433   0.00234   0.00960   0.01413   0.02884
 Alpha virt. eigenvalues --    0.04015   0.04419   0.04578   0.05203   0.05956

 Mulliken charges:
               1
     1  Mg   0.980743
     2  C   -0.043022
     3  C   -0.096949
     4  C   -0.060755
     5  C   -0.072228
     6  N   -0.414640
     7  C    0.020899
     8  C   -0.027213
     9  C   -0.185371
    10  C    0.079497
    11  C    0.002369
    12  C    0.034163
    13  C   -0.025166
    14  C    0.204638
    15  O   -0.306220
    16  O   -0.344935
    17  N   -0.497220
    18  C    0.227206
    19  C   -0.169875
    20  C   -0.089305
    21  C    0.132594
    22  C    0.020633
    23  C    0.105459
    24  O   -0.276241
    25  C   -0.043327
    26  N   -0.346928
    27  C    0.109350
    28  C   -0.159606
    29  C   -0.043060
    30  C    0.030473
    31  C    0.031013
    32  C   -0.039129
    33  C   -0.052759
    34  N   -0.462125
    35  C    0.118299
    36  C   -0.130535
    37  C   -0.035616
    38  C    0.179911
    39  C    0.071038
    40  C    0.068253
    41  O   -0.217107
    42  C   -0.092080
    43  C    0.324803
    44  O   -0.291932
    45  O   -0.369692
    46  C    0.111308
    47  C    0.237193
    48  C   -0.113126
    49  C   -0.212734
    50  C    0.006855
    51  C   -0.016827
    52  C   -0.040748
    53  C    0.005028
    54  C   -0.172763
    55  C   -0.039366
    56  C   -0.007433
    57  C   -0.101192
    58  C   -0.024581
    59  C   -0.190252
    60  C   -0.007622
    61  C   -0.005227
    62  C   -0.054205
    63  C   -0.001076
    64  C   -0.259295
    65  C   -0.031137
    66  C   -0.030896
    67  H    0.001076
    68  H    0.031903
    69  H   -0.009479
    70  H    0.041238
    71  H    0.058536
    72  H    0.045154
    73  H    0.052905
    74  H    0.036935
    75  H    0.055444
    76  H    0.049105
    77  H    0.077826
    78  H    0.055953
    79  H    0.038680
    80  H    0.057536
    81  H    0.067726
    82  H    0.064448
    83  H    0.067020
    84  H    0.077683
    85  H    0.043132
    86  H    0.032756
    87  H    0.046739
    88  H    0.051759
    89  H    0.046259
    90  H    0.043206
    91  H    0.032274
    92  H    0.042033
    93  H    0.045799
    94  H    0.043074
    95  H    0.024680
    96  H    0.077526
    97  H    0.056809
    98  H    0.064061
    99  H    0.068690
   100  H    0.055865
   101  H    0.078871
   102  H    0.067001
   103  H    0.079700
   104  H    0.027705
   105  H    0.042337
   106  H    0.046513
   107  H    0.058242
   108  H    0.027996
   109  H    0.019505
   110  H    0.033876
   111  H    0.032325
   112  H    0.030161
   113  H    0.045195
   114  H    0.035538
   115  H    0.034035
   116  H    0.029101
   117  H    0.034049
   118  H    0.026877
   119  H    0.030729
   120  H    0.040103
   121  H    0.028095
   122  H    0.020682
   123  H    0.037332
   124  H    0.032516
   125  H    0.025568
   126  H    0.028721
   127  H    0.037380
   128  H    0.024964
   129  H    0.029003
   130  H    0.035021
   131  H    0.037208
   132  H    0.016384
   133  H    0.022934
   134  H    0.040002
   135  H    0.039883
   136  H    0.031981
   137  H    0.039646
   138  H    0.033605
   139  H    0.043434
   140  H    0.031222
 Sum of Mulliken charges =  -0.00000

 Dipole moment (field-independent basis, Debye):
    X=             -4.1398    Y=              4.3752    Z=             -0.7369  Tot=              6.0682
 Quadrupole moment (field-independent basis, Debye-Ang):
   XX=           -371.6503   YY=           -416.6627   ZZ=           -413.9258
   XY=             -2.7239   XZ=             17.9663   YZ=              0.3822

 Normal termination of Gaussian 16 at Wed May  4 09:38:13 2022.
