 Gaussian 16, Revision A.03,
 Gaussian 16:  ES64L-G16RevA.03 25-Dec-2016

 --------------------------------
 #p wB97XD/Def2SVP td=(nstates=5)
 --------------------------------

 -----------------------------------------------------
 step_1551_chromophore_25 TDDFT with wB97XD functional
 -----------------------------------------------------
 Symbolic Z-matrix:
 Charge =  0 Multiplicity = 1

                         Standard orientation:
 ---------------------------------------------------------------------
 Center     Atomic      Atomic             Coordinates (Angstroms)
 Number     Number       Type             X           Y           Z
 ---------------------------------------------------------------------
      1         12           0        6.185975    0.350246    0.448196
      2          6           0        3.676669   -2.085572    0.147595
      3          6           0        3.918499    2.781180    0.053078
      4          6           0        8.682852    2.527627   -0.378227
      5          6           0        8.584723   -2.213808    0.371451
      6          7           0        4.029580    0.258208    0.262477
      7          6           0        3.177266   -0.790549    0.102851
      8          6           0        1.706769   -0.328169    0.065652
      9          6           0        1.839626    1.244147   -0.071602
     10          6           0        3.379939    1.446499    0.046429
     11          6           0        1.177328    1.868741   -1.373512
     12          6           0        0.755371   -0.807618    1.190501
     13          6           0       -0.490936   -1.688687    0.743392
     14          6           0       -1.856798   -1.310232    1.350880
     15          8           0       -2.065629   -1.145865    2.570430
     16          8           0       -2.739410   -1.050226    0.386493
     17          7           0        6.318914    2.396575    0.167660
     18          6           0        5.227790    3.211509    0.066628
     19          6           0        5.677331    4.552307   -0.049166
     20          6           0        7.130789    4.516381   -0.099579
     21          6           0        7.435953    3.094793   -0.067733
     22          6           0        4.722204    5.682655   -0.252499
     23          6           0        8.164312    5.681545   -0.356167
     24          8           0        9.429137    5.509324   -0.352741
     25          6           0        7.525446    7.091067   -0.425908
     26          7           0        8.311456    0.103950    0.067538
     27          6           0        9.054400    1.167499   -0.316533
     28          6           0       10.515121    0.735477   -0.635413
     29          6           0       10.603933   -0.665406    0.091097
     30          6           0        9.136313   -0.955961    0.143680
     31          6           0       10.823280    0.741404   -2.141125
     32          6           0       11.308581   -0.542092    1.479882
     33          6           0       10.567324   -0.956414    2.730984
     34          7           0        6.276415   -1.721985    0.213849
     35          6           0        7.282597   -2.637970    0.390145
     36          6           0        6.763341   -4.006223    0.529068
     37          6           0        5.324925   -3.815790    0.392137
     38          6           0        5.101077   -2.406788    0.242841
     39          6           0        7.485517   -5.306797    0.468464
     40          6           0        4.124212   -4.525201    0.290360
     41          8           0        3.892620   -5.717661    0.313847
     42          6           0        2.991228   -3.466791    0.063576
     43          6           0        2.369535   -3.794584   -1.255032
     44          8           0        3.004770   -3.742339   -2.341680
     45          8           0        1.009435   -3.846268   -1.142700
     46          6           0        0.163983   -3.868985   -2.354971
     47          6           0       -4.109241   -0.715052    0.873317
     48          6           0       -5.076833   -0.794138   -0.281743
     49          6           0       -6.397660   -0.645072   -0.197834
     50          6           0       -7.145039   -0.339221    1.124677
     51          6           0       -7.365185   -0.984134   -1.368716
     52          6           0       -7.886047    0.161524   -2.325526
     53          6           0       -9.256788    0.710623   -2.013677
     54          6           0      -10.202079    0.648650   -3.190891
     55          6           0      -10.532118    2.120246   -3.534466
     56          6           0      -11.645584   -0.123167   -2.933204
     57          6           0      -12.359559    0.087871   -1.574519
     58          6           0      -13.876975    0.288362   -1.690672
     59          6           0      -14.650207   -0.082865   -0.423619
     60          6           0      -16.063534   -0.590991   -0.797083
     61          6           0      -14.634764    1.080352    0.601074
     62          6           0      -14.317328    0.631008    2.111086
     63          6           0      -13.374833    1.605282    2.887062
     64          6           0      -12.084163    0.865929    3.405025
     65          6           0      -11.835593    1.285990    4.921290
     66          6           0      -10.843317    1.320129    2.649771
     67          1           0        3.080352    3.479032    0.005131
     68          1           0        9.451096    3.254434   -0.652680
     69          1           0        9.279261   -3.052990    0.447325
     70          1           0        1.266392   -0.583526   -0.898425
     71          1           0        1.453418    1.754915    0.810188
     72          1           0        1.880946    2.102334   -2.171429
     73          1           0        0.554609    2.735442   -1.154512
     74          1           0        0.600177    1.122223   -1.920079
     75          1           0        0.394174    0.035074    1.779884
     76          1           0        1.390413   -1.435648    1.816381
     77          1           0       -0.300872   -2.698424    1.107203
     78          1           0       -0.542979   -1.658401   -0.345014
     79          1           0        5.020053    6.725519   -0.140364
     80          1           0        4.053680    5.458921    0.578161
     81          1           0        4.177749    5.578137   -1.190698
     82          1           0        8.378505    7.769672   -0.404312
     83          1           0        6.988249    7.190035    0.517519
     84          1           0        6.715843    7.229560   -1.143351
     85          1           0       11.258971    1.431444   -0.247530
     86          1           0       11.099958   -1.481918   -0.435278
     87          1           0       11.894567    0.913524   -2.245505
     88          1           0       10.291382    1.542447   -2.654515
     89          1           0       10.509821   -0.261385   -2.429181
     90          1           0       11.662182    0.476348    1.637985
     91          1           0       12.136276   -1.251105    1.496093
     92          1           0        9.984444   -0.056423    2.928685
     93          1           0       11.282650   -1.137192    3.533102
     94          1           0        9.937948   -1.832897    2.577541
     95          1           0        8.562300   -5.190704    0.348861
     96          1           0        7.096553   -5.909715   -0.350867
     97          1           0        7.382638   -5.838300    1.414483
     98          1           0        2.275340   -3.602631    0.872969
     99          1           0       -0.819934   -3.406052   -2.285154
    100          1           0       -0.108108   -4.923214   -2.412039
    101          1           0        0.771655   -3.615388   -3.222917
    102          1           0       -4.002468    0.296490    1.264488
    103          1           0       -4.389764   -1.433811    1.643690
    104          1           0       -4.752404   -1.209804   -1.234863
    105          1           0       -6.545421   -0.519908    2.017710
    106          1           0       -8.053467   -0.938157    1.181650
    107          1           0       -7.450823    0.706999    1.103635
    108          1           0       -8.213154   -1.581741   -1.036845
    109          1           0       -6.890218   -1.726324   -2.009642
    110          1           0       -7.845993   -0.248827   -3.334391
    111          1           0       -7.193344    0.998362   -2.230861
    112          1           0       -8.985504    1.746227   -1.809985
    113          1           0       -9.697382    0.211142   -1.150960
    114          1           0       -9.689436    0.179587   -4.029510
    115          1           0      -10.982916    2.609973   -2.671206
    116          1           0      -11.249754    2.296200   -4.335955
    117          1           0       -9.614656    2.647869   -3.793432
    118          1           0      -11.500495   -1.203197   -2.945851
    119          1           0      -12.444148    0.069364   -3.650380
    120          1           0      -12.045433    1.016347   -1.098905
    121          1           0      -12.073817   -0.696737   -0.873953
    122          1           0      -14.194347   -0.415127   -2.460464
    123          1           0      -14.088960    1.277839   -2.096353
    124          1           0      -14.182911   -0.937032    0.066803
    125          1           0      -16.817153   -0.112228   -0.170891
    126          1           0      -16.103137   -1.659134   -0.584416
    127          1           0      -16.431883   -0.517321   -1.820652
    128          1           0      -15.612144    1.558235    0.663291
    129          1           0      -13.956495    1.904575    0.379278
    130          1           0      -13.923981   -0.382082    2.032087
    131          1           0      -15.251276    0.627287    2.673838
    132          1           0      -13.817520    2.007300    3.798977
    133          1           0      -13.104429    2.511748    2.345662
    134          1           0      -12.208356   -0.213883    3.321167
    135          1           0      -12.738864    0.995051    5.457543
    136          1           0      -11.800342    2.365343    5.070899
    137          1           0      -10.863731    0.848429    5.149453
    138          1           0      -11.097767    1.114530    1.610084
    139          1           0       -9.912244    0.820937    2.921612
    140          1           0      -10.729107    2.403323    2.694324
 ---------------------------------------------------------------------

 SCF Done:  E(RwB97XD) =  -3007.86509400     A.U. after   20 cycles

 Excitation energies and oscillator strengths:

 Excited State   1:      Singlet-A      1.6471 eV  752.76 nm  f=0.3679  <S**2>=0.000
     245 -> 248       -0.18108
     246 -> 247        0.68423
     245 <- 248       -0.11553
 This state for optimization and/or second-order correction.
 Total Energy, E(TD-HF/TD-DFT) =  -3007.80456535
 Copying the excited state density for this state as the 1-particle RhoCI density.

 Excited State   2:      Singlet-A      2.1949 eV  564.88 nm  f=0.1128  <S**2>=0.000
     245 -> 247        0.63560
     246 -> 248        0.29299

 Excited State   3:      Singlet-A      3.4030 eV  364.33 nm  f=0.0296  <S**2>=0.000
     242 -> 247        0.52767
     244 -> 247       -0.39490
     246 -> 248       -0.19156

 Excited State   4:      Singlet-A      3.5084 eV  353.39 nm  f=0.0945  <S**2>=0.000
     240 -> 247        0.13098
     242 -> 247        0.25410
     244 -> 247        0.51453
     246 -> 248       -0.35355

 Excited State   5:      Singlet-A      3.5532 eV  348.94 nm  f=0.0835  <S**2>=0.000
     243 -> 247        0.52021
     243 -> 249        0.24705
     243 -> 250        0.27068
     244 -> 247        0.10359
     245 -> 247       -0.10166
     246 -> 248        0.17621

 The electronic state is 1-A.
 Alpha  occ. eigenvalues --  -46.95266 -19.31212 -19.30801 -19.25422 -19.24142
 Alpha  occ. eigenvalues --  -19.24121 -19.22740 -14.47206 -14.46468 -14.44186
 Alpha  occ. eigenvalues --  -14.43536 -10.43447 -10.43155 -10.41237 -10.37344
 Alpha  occ. eigenvalues --  -10.36949 -10.36109 -10.35935 -10.35232 -10.34799
 Alpha  occ. eigenvalues --  -10.34199 -10.34143 -10.33794 -10.33235 -10.33132
 Alpha  occ. eigenvalues --  -10.32938 -10.32861 -10.32523 -10.32475 -10.32270
 Alpha  occ. eigenvalues --  -10.32159 -10.31905 -10.31791 -10.31629 -10.31494
 Alpha  occ. eigenvalues --  -10.31430 -10.31358 -10.31349 -10.31314 -10.31046
 Alpha  occ. eigenvalues --  -10.30795 -10.30649 -10.30312 -10.30286 -10.30239
 Alpha  occ. eigenvalues --  -10.30165 -10.29937 -10.29894 -10.29856 -10.29741
 Alpha  occ. eigenvalues --  -10.29550 -10.29519 -10.29501 -10.29326 -10.29310
 Alpha  occ. eigenvalues --  -10.28968 -10.28930 -10.28798 -10.28702 -10.28560
 Alpha  occ. eigenvalues --  -10.28508 -10.28470 -10.28443 -10.28354 -10.28264
 Alpha  occ. eigenvalues --  -10.28240  -3.21251  -1.94839  -1.94359  -1.94238
 Alpha  occ. eigenvalues --   -1.19296  -1.17637  -1.11425  -1.10311  -1.08810
 Alpha  occ. eigenvalues --   -1.08165  -1.06912  -1.06183  -1.05713  -1.04176
 Alpha  occ. eigenvalues --   -0.93856  -0.92437  -0.91544  -0.91275  -0.90930
 Alpha  occ. eigenvalues --   -0.90537  -0.90483  -0.89616  -0.89271  -0.89231
 Alpha  occ. eigenvalues --   -0.87860  -0.87122  -0.86293  -0.85752  -0.85433
 Alpha  occ. eigenvalues --   -0.84476  -0.84189  -0.83403  -0.82934  -0.82538
 Alpha  occ. eigenvalues --   -0.81964  -0.80536  -0.79880  -0.79600  -0.78410
 Alpha  occ. eigenvalues --   -0.77982  -0.77229  -0.77013  -0.76575  -0.75908
 Alpha  occ. eigenvalues --   -0.75757  -0.74515  -0.73665  -0.72471  -0.70790
 Alpha  occ. eigenvalues --   -0.70314  -0.70166  -0.68925  -0.68617  -0.68028
 Alpha  occ. eigenvalues --   -0.67569  -0.67118  -0.66617  -0.66418  -0.66002
 Alpha  occ. eigenvalues --   -0.65755  -0.64843  -0.64639  -0.64197  -0.62899
 Alpha  occ. eigenvalues --   -0.61665  -0.61448  -0.60792  -0.60085  -0.59811
 Alpha  occ. eigenvalues --   -0.59633  -0.59121  -0.58304  -0.57968  -0.57166
 Alpha  occ. eigenvalues --   -0.56996  -0.56733  -0.56660  -0.56239  -0.56070
 Alpha  occ. eigenvalues --   -0.55911  -0.55475  -0.55220  -0.54935  -0.54807
 Alpha  occ. eigenvalues --   -0.54558  -0.54427  -0.54255  -0.54070  -0.53541
 Alpha  occ. eigenvalues --   -0.53497  -0.53283  -0.52970  -0.52919  -0.52643
 Alpha  occ. eigenvalues --   -0.52466  -0.52243  -0.52047  -0.51710  -0.51504
 Alpha  occ. eigenvalues --   -0.51350  -0.51217  -0.51121  -0.51005  -0.50931
 Alpha  occ. eigenvalues --   -0.50714  -0.50665  -0.50420  -0.49866  -0.49643
 Alpha  occ. eigenvalues --   -0.49390  -0.49244  -0.48947  -0.48716  -0.48525
 Alpha  occ. eigenvalues --   -0.48417  -0.48260  -0.48019  -0.47517  -0.47420
 Alpha  occ. eigenvalues --   -0.47226  -0.47111  -0.47040  -0.46899  -0.46845
 Alpha  occ. eigenvalues --   -0.46683  -0.46584  -0.46487  -0.46263  -0.46214
 Alpha  occ. eigenvalues --   -0.45846  -0.45695  -0.45358  -0.45337  -0.44919
 Alpha  occ. eigenvalues --   -0.44631  -0.44545  -0.44239  -0.44168  -0.43799
 Alpha  occ. eigenvalues --   -0.43560  -0.43513  -0.43327  -0.43264  -0.42837
 Alpha  occ. eigenvalues --   -0.42765  -0.42521  -0.42412  -0.42283  -0.42002
 Alpha  occ. eigenvalues --   -0.41482  -0.41421  -0.41211  -0.41064  -0.40942
 Alpha  occ. eigenvalues --   -0.40323  -0.39989  -0.39766  -0.39649  -0.39630
 Alpha  occ. eigenvalues --   -0.39197  -0.39085  -0.38928  -0.38700  -0.38655
 Alpha  occ. eigenvalues --   -0.37921  -0.37862  -0.36949  -0.36430  -0.36197
 Alpha  occ. eigenvalues --   -0.35910  -0.35504  -0.35425  -0.34015  -0.33252
 Alpha  occ. eigenvalues --   -0.32902  -0.32348  -0.32059  -0.31285  -0.26053
 Alpha  occ. eigenvalues --   -0.22906
 Alpha virt. eigenvalues --   -0.07034   0.00319   0.01778   0.04047   0.05169
 Alpha virt. eigenvalues --    0.06400   0.07019   0.07700   0.08211   0.09418
 Alpha virt. eigenvalues --    0.10356   0.11102   0.11412   0.11892   0.12660

 Mulliken charges:
               1
     1  Mg   0.971246
     2  C   -0.048159
     3  C   -0.120994
     4  C   -0.081048
     5  C   -0.081302
     6  N   -0.383072
     7  C   -0.004498
     8  C   -0.004968
     9  C   -0.159297
    10  C    0.067778
    11  C    0.012532
    12  C    0.046046
    13  C   -0.003219
    14  C    0.194573
    15  O   -0.303983
    16  O   -0.344031
    17  N   -0.463187
    18  C    0.226847
    19  C   -0.156160
    20  C   -0.090161
    21  C    0.126421
    22  C    0.032891
    23  C    0.102825
    24  O   -0.268802
    25  C   -0.028118
    26  N   -0.310223
    27  C    0.096779
    28  C   -0.131972
    29  C   -0.022212
    30  C    0.012769
    31  C    0.040394
    32  C   -0.032140
    33  C   -0.029545
    34  N   -0.424929
    35  C    0.111013
    36  C   -0.135521
    37  C   -0.033349
    38  C    0.161324
    39  C    0.083030
    40  C    0.054999
    41  O   -0.208782
    42  C   -0.051309
    43  C    0.299669
    44  O   -0.287521
    45  O   -0.367298
    46  C    0.125189
    47  C    0.249120
    48  C   -0.122036
    49  C   -0.199941
    50  C    0.022034
    51  C    0.000196
    52  C   -0.024848
    53  C    0.021764
    54  C   -0.144003
    55  C   -0.023399
    56  C    0.007195
    57  C   -0.082864
    58  C   -0.003764
    59  C   -0.157404
    60  C    0.002402
    61  C    0.004410
    62  C   -0.033880
    63  C    0.009310
    64  C   -0.230256
    65  C   -0.015899
    66  C   -0.011428
    67  H   -0.005612
    68  H    0.028066
    69  H   -0.017029
    70  H    0.023991
    71  H    0.048339
    72  H    0.039350
    73  H    0.048575
    74  H    0.031589
    75  H    0.048500
    76  H    0.039694
    77  H    0.071748
    78  H    0.043427
    79  H    0.035475
    80  H    0.051040
    81  H    0.064589
    82  H    0.063991
    83  H    0.058949
    84  H    0.072478
    85  H    0.033374
    86  H    0.025294
    87  H    0.041859
    88  H    0.045266
    89  H    0.039370
    90  H    0.034979
    91  H    0.024643
    92  H    0.032339
    93  H    0.040722
    94  H    0.034141
    95  H    0.018189
    96  H    0.072997
    97  H    0.051212
    98  H    0.055334
    99  H    0.065757
   100  H    0.051522
   101  H    0.076005
   102  H    0.062923
   103  H    0.074264
   104  H    0.025561
   105  H    0.037273
   106  H    0.040423
   107  H    0.051380
   108  H    0.019442
   109  H    0.012548
   110  H    0.026024
   111  H    0.023941
   112  H    0.020876
   113  H    0.030622
   114  H    0.025218
   115  H    0.025545
   116  H    0.023755
   117  H    0.026691
   118  H    0.019251
   119  H    0.021226
   120  H    0.022295
   121  H    0.019378
   122  H    0.008653
   123  H    0.029291
   124  H    0.018435
   125  H    0.019105
   126  H    0.023418
   127  H    0.032201
   128  H    0.016782
   129  H    0.017803
   130  H    0.022770
   131  H    0.030313
   132  H    0.008096
   133  H    0.014365
   134  H    0.030027
   135  H    0.032936
   136  H    0.024798
   137  H    0.033400
   138  H    0.020207
   139  H    0.037567
   140  H    0.023797
 Sum of Mulliken charges =  -0.00000

 Dipole moment (field-independent basis, Debye):
    X=             -4.1813    Y=              5.0158    Z=             -0.7925  Tot=              6.5779
 Quadrupole moment (field-independent basis, Debye-Ang):
   XX=           -372.5839   YY=           -414.4978   ZZ=           -413.5764
   XY=              1.8003   XZ=             17.9278   YZ=              0.2375

 Normal termination of Gaussian 16 at Wed May  4 10:02:50 2022.
