 Gaussian 16, Revision A.03,
 Gaussian 16:  ES64L-G16RevA.03 25-Dec-2016

 --------------------
 #p ZINDO=(nstates=5)
 --------------------

 ------------------------------
 step_1551_chromophore_25 ZINDO
 ------------------------------
 Symbolic Z-matrix:
 Charge =  0 Multiplicity = 1

                         Standard orientation:
 ---------------------------------------------------------------------
 Center     Atomic      Atomic             Coordinates (Angstroms)
 Number     Number       Type             X           Y           Z
 ---------------------------------------------------------------------
      1         12           0        6.185975    0.350246    0.448196
      2          6           0        3.676669   -2.085572    0.147595
      3          6           0        3.918499    2.781180    0.053078
      4          6           0        8.682852    2.527627   -0.378227
      5          6           0        8.584723   -2.213808    0.371451
      6          7           0        4.029580    0.258208    0.262477
      7          6           0        3.177266   -0.790549    0.102851
      8          6           0        1.706769   -0.328169    0.065652
      9          6           0        1.839626    1.244147   -0.071602
     10          6           0        3.379939    1.446499    0.046429
     11          6           0        1.177328    1.868741   -1.373512
     12          6           0        0.755371   -0.807618    1.190501
     13          6           0       -0.490936   -1.688687    0.743392
     14          6           0       -1.856798   -1.310232    1.350880
     15          8           0       -2.065629   -1.145865    2.570430
     16          8           0       -2.739410   -1.050226    0.386493
     17          7           0        6.318914    2.396575    0.167660
     18          6           0        5.227790    3.211509    0.066628
     19          6           0        5.677331    4.552307   -0.049166
     20          6           0        7.130789    4.516381   -0.099579
     21          6           0        7.435953    3.094793   -0.067733
     22          6           0        4.722204    5.682655   -0.252499
     23          6           0        8.164312    5.681545   -0.356167
     24          8           0        9.429137    5.509324   -0.352741
     25          6           0        7.525446    7.091067   -0.425908
     26          7           0        8.311456    0.103950    0.067538
     27          6           0        9.054400    1.167499   -0.316533
     28          6           0       10.515121    0.735477   -0.635413
     29          6           0       10.603933   -0.665406    0.091097
     30          6           0        9.136313   -0.955961    0.143680
     31          6           0       10.823280    0.741404   -2.141125
     32          6           0       11.308581   -0.542092    1.479882
     33          6           0       10.567324   -0.956414    2.730984
     34          7           0        6.276415   -1.721985    0.213849
     35          6           0        7.282597   -2.637970    0.390145
     36          6           0        6.763341   -4.006223    0.529068
     37          6           0        5.324925   -3.815790    0.392137
     38          6           0        5.101077   -2.406788    0.242841
     39          6           0        7.485517   -5.306797    0.468464
     40          6           0        4.124212   -4.525201    0.290360
     41          8           0        3.892620   -5.717661    0.313847
     42          6           0        2.991228   -3.466791    0.063576
     43          6           0        2.369535   -3.794584   -1.255032
     44          8           0        3.004770   -3.742339   -2.341680
     45          8           0        1.009435   -3.846268   -1.142700
     46          6           0        0.163983   -3.868985   -2.354971
     47          6           0       -4.109241   -0.715052    0.873317
     48          6           0       -5.076833   -0.794138   -0.281743
     49          6           0       -6.397660   -0.645072   -0.197834
     50          6           0       -7.145039   -0.339221    1.124677
     51          6           0       -7.365185   -0.984134   -1.368716
     52          6           0       -7.886047    0.161524   -2.325526
     53          6           0       -9.256788    0.710623   -2.013677
     54          6           0      -10.202079    0.648650   -3.190891
     55          6           0      -10.532118    2.120246   -3.534466
     56          6           0      -11.645584   -0.123167   -2.933204
     57          6           0      -12.359559    0.087871   -1.574519
     58          6           0      -13.876975    0.288362   -1.690672
     59          6           0      -14.650207   -0.082865   -0.423619
     60          6           0      -16.063534   -0.590991   -0.797083
     61          6           0      -14.634764    1.080352    0.601074
     62          6           0      -14.317328    0.631008    2.111086
     63          6           0      -13.374833    1.605282    2.887062
     64          6           0      -12.084163    0.865929    3.405025
     65          6           0      -11.835593    1.285990    4.921290
     66          6           0      -10.843317    1.320129    2.649771
     67          1           0        3.080352    3.479032    0.005131
     68          1           0        9.451096    3.254434   -0.652680
     69          1           0        9.279261   -3.052990    0.447325
     70          1           0        1.266392   -0.583526   -0.898425
     71          1           0        1.453418    1.754915    0.810188
     72          1           0        1.880946    2.102334   -2.171429
     73          1           0        0.554609    2.735442   -1.154512
     74          1           0        0.600177    1.122223   -1.920079
     75          1           0        0.394174    0.035074    1.779884
     76          1           0        1.390413   -1.435648    1.816381
     77          1           0       -0.300872   -2.698424    1.107203
     78          1           0       -0.542979   -1.658401   -0.345014
     79          1           0        5.020053    6.725519   -0.140364
     80          1           0        4.053680    5.458921    0.578161
     81          1           0        4.177749    5.578137   -1.190698
     82          1           0        8.378505    7.769672   -0.404312
     83          1           0        6.988249    7.190035    0.517519
     84          1           0        6.715843    7.229560   -1.143351
     85          1           0       11.258971    1.431444   -0.247530
     86          1           0       11.099958   -1.481918   -0.435278
     87          1           0       11.894567    0.913524   -2.245505
     88          1           0       10.291382    1.542447   -2.654515
     89          1           0       10.509821   -0.261385   -2.429181
     90          1           0       11.662182    0.476348    1.637985
     91          1           0       12.136276   -1.251105    1.496093
     92          1           0        9.984444   -0.056423    2.928685
     93          1           0       11.282650   -1.137192    3.533102
     94          1           0        9.937948   -1.832897    2.577541
     95          1           0        8.562300   -5.190704    0.348861
     96          1           0        7.096553   -5.909715   -0.350867
     97          1           0        7.382638   -5.838300    1.414483
     98          1           0        2.275340   -3.602631    0.872969
     99          1           0       -0.819934   -3.406052   -2.285154
    100          1           0       -0.108108   -4.923214   -2.412039
    101          1           0        0.771655   -3.615388   -3.222917
    102          1           0       -4.002468    0.296490    1.264488
    103          1           0       -4.389764   -1.433811    1.643690
    104          1           0       -4.752404   -1.209804   -1.234863
    105          1           0       -6.545421   -0.519908    2.017710
    106          1           0       -8.053467   -0.938157    1.181650
    107          1           0       -7.450823    0.706999    1.103635
    108          1           0       -8.213154   -1.581741   -1.036845
    109          1           0       -6.890218   -1.726324   -2.009642
    110          1           0       -7.845993   -0.248827   -3.334391
    111          1           0       -7.193344    0.998362   -2.230861
    112          1           0       -8.985504    1.746227   -1.809985
    113          1           0       -9.697382    0.211142   -1.150960
    114          1           0       -9.689436    0.179587   -4.029510
    115          1           0      -10.982916    2.609973   -2.671206
    116          1           0      -11.249754    2.296200   -4.335955
    117          1           0       -9.614656    2.647869   -3.793432
    118          1           0      -11.500495   -1.203197   -2.945851
    119          1           0      -12.444148    0.069364   -3.650380
    120          1           0      -12.045433    1.016347   -1.098905
    121          1           0      -12.073817   -0.696737   -0.873953
    122          1           0      -14.194347   -0.415127   -2.460464
    123          1           0      -14.088960    1.277839   -2.096353
    124          1           0      -14.182911   -0.937032    0.066803
    125          1           0      -16.817153   -0.112228   -0.170891
    126          1           0      -16.103137   -1.659134   -0.584416
    127          1           0      -16.431883   -0.517321   -1.820652
    128          1           0      -15.612144    1.558235    0.663291
    129          1           0      -13.956495    1.904575    0.379278
    130          1           0      -13.923981   -0.382082    2.032087
    131          1           0      -15.251276    0.627287    2.673838
    132          1           0      -13.817520    2.007300    3.798977
    133          1           0      -13.104429    2.511748    2.345662
    134          1           0      -12.208356   -0.213883    3.321167
    135          1           0      -12.738864    0.995051    5.457543
    136          1           0      -11.800342    2.365343    5.070899
    137          1           0      -10.863731    0.848429    5.149453
    138          1           0      -11.097767    1.114530    1.610084
    139          1           0       -9.912244    0.820937    2.921612
    140          1           0      -10.729107    2.403323    2.694324
 ---------------------------------------------------------------------

 SCF Done:  E(RZINDO/S) =  -474.084684613     A.U. after   19 cycles

 Excitation energies and oscillator strengths:

 Excited State   1:      Singlet-A      1.2278 eV 1009.77 nm  f=0.5993  <S**2>=0.000
     175 ->178         0.18797
     176 ->177         0.66387
 This state for optimization and/or second-order correction.
 Total Energy, E(CIS/TDA) =  -474.039562096
 Copying the excited state density for this state as the 1-particle RhoCI density.

 Excited State   2:      Singlet-A      1.9333 eV  641.32 nm  f=0.0359  <S**2>=0.000
     175 ->177         0.53724
     176 ->178        -0.43412

 Excited State   3:      Singlet-A      2.9437 eV  421.18 nm  f=0.0082  <S**2>=0.000
     176 ->179         0.65267
     176 ->182         0.10327

 Excited State   4:      Singlet-A      2.9807 eV  415.96 nm  f=0.7857  <S**2>=0.000
     168 ->179        -0.10112
     170 ->177        -0.15701
     170 ->179        -0.12287
     170 ->180        -0.13363
     175 ->177         0.34110
     176 ->178         0.44143
     176 ->180         0.11630
     176 ->183        -0.12704

 Excited State   5:      Singlet-A      3.0080 eV  412.18 nm  f=0.2015  <S**2>=0.000
     170 ->177         0.30609
     170 ->178         0.13138
     170 ->179         0.25462
     170 ->180         0.27671
     170 ->182         0.12353
     170 ->183        -0.19004
     170 ->186         0.14017
     170 ->187         0.16274
     170 ->202        -0.10735
     175 ->177         0.16839
     176 ->178         0.21644

 The electronic state is 1-A.
 Alpha  occ. eigenvalues --   -1.83973  -1.82200  -1.80519  -1.73797  -1.71469
 Alpha  occ. eigenvalues --   -1.70146  -1.64422  -1.60118  -1.59162  -1.55279
 Alpha  occ. eigenvalues --   -1.53999  -1.50644  -1.47685  -1.46848  -1.46516
 Alpha  occ. eigenvalues --   -1.43060  -1.42704  -1.41136  -1.39896  -1.39579
 Alpha  occ. eigenvalues --   -1.35825  -1.32928  -1.32655  -1.31810  -1.29583
 Alpha  occ. eigenvalues --   -1.28385  -1.25284  -1.23084  -1.20534  -1.17863
 Alpha  occ. eigenvalues --   -1.17161  -1.15674  -1.14941  -1.14181  -1.13134
 Alpha  occ. eigenvalues --   -1.12712  -1.10801  -1.10226  -1.05163  -1.04594
 Alpha  occ. eigenvalues --   -1.02672  -1.00329  -0.99085  -0.97639  -0.97406
 Alpha  occ. eigenvalues --   -0.97004  -0.94641  -0.94380  -0.93510  -0.92299
 Alpha  occ. eigenvalues --   -0.91025  -0.89264  -0.88083  -0.87880  -0.86583
 Alpha  occ. eigenvalues --   -0.85266  -0.84164  -0.83563  -0.81123  -0.80680
 Alpha  occ. eigenvalues --   -0.80036  -0.79276  -0.76952  -0.76761  -0.75279
 Alpha  occ. eigenvalues --   -0.75163  -0.74945  -0.74657  -0.74082  -0.73777
 Alpha  occ. eigenvalues --   -0.73325  -0.73224  -0.72780  -0.71371  -0.71022
 Alpha  occ. eigenvalues --   -0.70093  -0.69693  -0.69145  -0.68886  -0.68559
 Alpha  occ. eigenvalues --   -0.67299  -0.67133  -0.67018  -0.65956  -0.65785
 Alpha  occ. eigenvalues --   -0.64996  -0.64643  -0.64082  -0.63567  -0.63318
 Alpha  occ. eigenvalues --   -0.62960  -0.62830  -0.62646  -0.62237  -0.62081
 Alpha  occ. eigenvalues --   -0.61561  -0.61135  -0.60861  -0.60678  -0.60240
 Alpha  occ. eigenvalues --   -0.60157  -0.59828  -0.59289  -0.58832  -0.58564
 Alpha  occ. eigenvalues --   -0.58227  -0.58043  -0.57445  -0.57271  -0.56764
 Alpha  occ. eigenvalues --   -0.56015  -0.55543  -0.55356  -0.55159  -0.54563
 Alpha  occ. eigenvalues --   -0.54186  -0.54008  -0.53765  -0.53148  -0.52922
 Alpha  occ. eigenvalues --   -0.52888  -0.52460  -0.51960  -0.51495  -0.51091
 Alpha  occ. eigenvalues --   -0.50962  -0.50645  -0.50449  -0.50316  -0.50244
 Alpha  occ. eigenvalues --   -0.49892  -0.49588  -0.49437  -0.49382  -0.49241
 Alpha  occ. eigenvalues --   -0.48556  -0.48428  -0.48393  -0.48307  -0.47999
 Alpha  occ. eigenvalues --   -0.47836  -0.47456  -0.47039  -0.46692  -0.46595
 Alpha  occ. eigenvalues --   -0.46222  -0.46147  -0.45885  -0.45570  -0.45463
 Alpha  occ. eigenvalues --   -0.45075  -0.44780  -0.44741  -0.44310  -0.44099
 Alpha  occ. eigenvalues --   -0.43418  -0.43315  -0.43132  -0.42949  -0.42670
 Alpha  occ. eigenvalues --   -0.42170  -0.41803  -0.40912  -0.39028  -0.38978
 Alpha  occ. eigenvalues --   -0.38305  -0.37181  -0.36429  -0.34922  -0.34032
 Alpha  occ. eigenvalues --   -0.33312  -0.33311  -0.32524  -0.31566  -0.26754
 Alpha  occ. eigenvalues --   -0.21636
 Alpha virt. eigenvalues --   -0.08544  -0.02046  -0.00987   0.00882   0.01318
 Alpha virt. eigenvalues --    0.01499   0.01680   0.02802   0.04226   0.04484
 Alpha virt. eigenvalues --    0.06153   0.06403   0.07290   0.07772   0.08442

 Mulliken charges:
               1
     1  Mg   0.435638
     2  C   -0.041130
     3  C   -0.089823
     4  C   -0.070785
     5  C   -0.053050
     6  N   -0.276440
     7  C    0.117554
     8  C    0.002332
     9  C   -0.004559
    10  C    0.136060
    11  C   -0.054697
    12  C   -0.020293
    13  C   -0.000846
    14  C    0.468826
    15  O   -0.540118
    16  O   -0.261802
    17  N   -0.326009
    18  C    0.130928
    19  C    0.018314
    20  C   -0.061791
    21  C    0.152802
    22  C   -0.048448
    23  C    0.322588
    24  O   -0.523518
    25  C   -0.035540
    26  N   -0.262472
    27  C    0.142811
    28  C   -0.001065
    29  C    0.007748
    30  C    0.123101
    31  C   -0.051894
    32  C   -0.029285
    33  C   -0.056824
    34  N   -0.318106
    35  C    0.094808
    36  C    0.019095
    37  C   -0.066264
    38  C    0.109273
    39  C   -0.028804
    40  C    0.338549
    41  O   -0.536861
    42  C    0.057906
    43  C    0.492812
    44  O   -0.532719
    45  O   -0.272325
    46  C    0.066768
    47  C    0.110906
    48  C   -0.081119
    49  C   -0.011241
    50  C   -0.048126
    51  C   -0.031622
    52  C   -0.031579
    53  C   -0.026919
    54  C   -0.007959
    55  C   -0.055276
    56  C   -0.048679
    57  C   -0.038487
    58  C   -0.028317
    59  C   -0.001505
    60  C   -0.060435
    61  C   -0.042062
    62  C   -0.043969
    63  C   -0.038712
    64  C   -0.021275
    65  C   -0.067594
    66  C   -0.055032
    67  H    0.024027
    68  H    0.050993
    69  H    0.011862
    70  H    0.030785
    71  H    0.034266
    72  H    0.024309
    73  H    0.025783
    74  H    0.018845
    75  H    0.035788
    76  H    0.026080
    77  H    0.048903
    78  H    0.037306
    79  H    0.031466
    80  H    0.024816
    81  H    0.034786
    82  H    0.044723
    83  H    0.033240
    84  H    0.050158
    85  H    0.027403
    86  H    0.032110
    87  H    0.021843
    88  H    0.029593
    89  H    0.026929
    90  H    0.025914
    91  H    0.011757
    92  H    0.019672
    93  H    0.017488
    94  H    0.028644
    95  H    0.016660
    96  H    0.043341
    97  H    0.033389
    98  H    0.045809
    99  H    0.044797
   100  H    0.031965
   101  H    0.060610
   102  H    0.053915
   103  H    0.061541
   104  H    0.035908
   105  H    0.025114
   106  H    0.025668
   107  H    0.027560
   108  H    0.021327
   109  H    0.009249
   110  H    0.023131
   111  H    0.017654
   112  H    0.021915
   113  H    0.026954
   114  H    0.027104
   115  H    0.017062
   116  H    0.011130
   117  H    0.013081
   118  H    0.010905
   119  H    0.026026
   120  H    0.010357
   121  H    0.020523
   122  H    0.006160
   123  H    0.025859
   124  H    0.023964
   125  H    0.014145
   126  H    0.011443
   127  H    0.023350
   128  H    0.014853
   129  H    0.021780
   130  H    0.027028
   131  H    0.018519
   132  H    0.015830
   133  H    0.023646
   134  H    0.028426
   135  H    0.020056
   136  H    0.019177
   137  H    0.024877
   138  H    0.004969
   139  H    0.020902
   140  H    0.019395
 Sum of Mulliken charges =  -0.00000

 Dipole moment (field-independent basis, Debye):
    X=             -5.0944    Y=              7.1856    Z=             -0.8105  Tot=              8.8455
 N-N= 4.233703350230D+03 E-N= 0.000000000000D+00  KE=-9.141307849110D+03
 Leave Link  601 at Wed May  4 10:15:49 2022, MaxMem=  6710886400 cpu:               0.8 elap:               0.0
 (Enter /sw/apps/gaussian-16.0/g16/l9999.exe)
 1\1\GINC-BP1-COMPUTE058\SP\RZINDO CIS\STO-3G\C55H74Mg1N4O6\OF15641\04-
 May-2022\0\\#p ZINDO=(nstates=5)\\step_1551_chromophore_25 ZINDO\\0,1\
 Mg,0,-1.831,34.871,26.356\C,0,-3.043,33.316,29.26\C,0,-0.19,37.125,28.
 209\C,0,-1.637,36.939,23.646\C,0,-3.941,32.805,24.455\N,0,-1.594,35.03
 6,28.503\C,0,-2.185,34.373,29.534\C,0,-1.634,34.835,30.898\C,0,-0.805,
 36.13,30.518\C,0,-0.902,36.127,28.963\C,0,-1.286,37.472,31.219\C,0,-0.
 874,33.806,31.772\C,0,-1.503,33.476,33.195\C,0,-0.531,33.46,34.392\O,0

 Normal termination of Gaussian 16 at Wed May  4 10:15:49 2022.
