 Gaussian 16, Revision A.03,
 Gaussian 16:  ES64L-G16RevA.03 25-Dec-2016

 ------------------------------
 #p blyp/Def2SVP td=(nstates=5)
 ------------------------------

 -------------------------------------------------
 step_101_chromophore_3 TDDFT with blyp functional
 -------------------------------------------------
 Symbolic Z-matrix:
 Charge =  0 Multiplicity = 1

                         Standard orientation:
 ---------------------------------------------------------------------
 Center     Atomic      Atomic             Coordinates (Angstroms)
 Number     Number       Type             X           Y           Z
 ---------------------------------------------------------------------
      1         12           0       -5.413918    0.522823    0.138125
      2          6           0       -3.762191   -2.529459    0.185595
      3          6           0       -2.276124    2.067275    0.090107
      4          6           0       -6.932870    3.424923    0.679810
      5          6           0       -8.399092   -1.145055    0.158054
      6          7           0       -3.333379   -0.067389    0.027736
      7          6           0       -2.933285   -1.433234   -0.059673
      8          6           0       -1.466271   -1.465453   -0.481267
      9          6           0       -0.891978   -0.015985   -0.130657
     10          6           0       -2.264096    0.745787   -0.009691
     11          6           0       -0.004069    0.191695    1.100107
     12          6           0       -1.281867   -2.002642   -1.931361
     13          6           0       -0.102101   -3.075805   -2.059150
     14          6           0        1.220659   -2.684565   -1.513656
     15          8           0        1.812496   -3.041970   -0.475168
     16          8           0        1.686696   -1.636687   -2.280781
     17          7           0       -4.715513    2.537399    0.216009
     18          6           0       -3.376018    2.966577    0.179048
     19          6           0       -3.403759    4.412556    0.431309
     20          6           0       -4.717412    4.856390    0.525313
     21          6           0       -5.549306    3.580422    0.456679
     22          6           0       -2.110358    5.201835    0.550835
     23          6           0       -5.230442    6.222221    0.671158
     24          8           0       -6.390719    6.436063    0.932965
     25          6           0       -4.338737    7.446040    0.595067
     26          7           0       -7.357482    1.035815    0.615221
     27          6           0       -7.784935    2.300799    0.654044
     28          6           0       -9.331519    2.396736    0.507130
     29          6           0       -9.714514    0.952899    0.100671
     30          6           0       -8.416135    0.210445    0.280304
     31          6           0       -9.949386    2.840187    1.810196
     32          6           0      -10.367112    0.756807   -1.330779
     33          6           0      -11.491229    1.713200   -1.734540
     34          7           0       -5.992574   -1.473853    0.268187
     35          6           0       -7.249770   -1.991016    0.253316
     36          6           0       -7.217191   -3.394371    0.335480
     37          6           0       -5.826815   -3.688557    0.360717
     38          6           0       -5.183510   -2.468358    0.376606
     39          6           0       -8.396919   -4.365346    0.460779
     40          6           0       -4.729649   -4.673772    0.514126
     41          8           0       -4.747271   -5.900030    0.557273
     42          6           0       -3.414066   -3.922405    0.271756
     43          6           0       -2.426517   -4.284215    1.328670
     44          8           0       -2.067535   -3.657303    2.324422
     45          8           0       -1.788966   -5.438785    0.925763
     46          6           0       -0.618113   -5.921960    1.631138
     47          6           0        2.740432   -0.733606   -1.710684
     48          6           0        4.047961   -1.163630   -2.386030
     49          6           0        5.095586   -1.828274   -1.847463
     50          6           0        5.133408   -2.340498   -0.368724
     51          6           0        6.454950   -2.079336   -2.523640
     52          6           0        7.626756   -1.194664   -2.080419
     53          6           0        7.353201    0.315046   -2.215092
     54          6           0        8.157271    0.941430   -3.235558
     55          6           0        7.396987    1.944859   -4.143536
     56          6           0        9.354097    1.753052   -2.684153
     57          6           0       10.377915    0.922337   -1.864553
     58          6           0       10.421316    1.532567   -0.513403
     59          6           0       11.766167    2.183439   -0.081463
     60          6           0       12.292186    3.143760   -1.147457
     61          6           0       12.843192    1.185222    0.337854
     62          6           0       13.254007    1.425963    1.782116
     63          6           0       13.157705    0.136414    2.547238
     64          6           0       13.136148    0.240108    4.124865
     65          6           0       14.526721    0.035285    4.692751
     66          6           0       11.979151   -0.731423    4.685353
     67          1           0       -1.316259    2.586809    0.126845
     68          1           0       -7.542188    4.258052    1.039028
     69          1           0       -9.405365   -1.568747    0.132698
     70          1           0       -0.907602   -2.099643    0.207825
     71          1           0       -0.434189    0.436419   -1.010725
     72          1           0        1.039118    0.311533    0.810148
     73          1           0       -0.013992   -0.719924    1.698588
     74          1           0       -0.302035    0.975102    1.796969
     75          1           0       -0.979794   -1.110741   -2.480714
     76          1           0       -2.218967   -2.275064   -2.414885
     77          1           0       -0.152063   -3.262548   -3.132334
     78          1           0       -0.353015   -4.044943   -1.628605
     79          1           0       -2.151429    5.851823    1.425018
     80          1           0       -1.833461    5.805838   -0.312324
     81          1           0       -1.310986    4.541656    0.889683
     82          1           0       -4.897532    8.356031    0.810036
     83          1           0       -3.996592    7.636643   -0.422090
     84          1           0       -3.655385    7.396978    1.443864
     85          1           0       -9.459156    3.115918   -0.302423
     86          1           0      -10.443725    0.530656    0.791212
     87          1           0       -9.351606    2.512573    2.661424
     88          1           0      -10.907588    2.330180    1.910875
     89          1           0      -10.124826    3.912846    1.732471
     90          1           0      -10.638779   -0.296295   -1.402075
     91          1           0       -9.588198    0.842079   -2.088308
     92          1           0      -11.723394    2.557328   -1.085029
     93          1           0      -12.374647    1.074816   -1.750762
     94          1           0      -11.295658    2.030441   -2.757990
     95          1           0       -7.997625   -5.366654    0.621041
     96          1           0       -8.996183   -4.258091   -0.443442
     97          1           0       -9.033855   -4.020606    1.275143
     98          1           0       -3.071840   -4.296402   -0.693559
     99          1           0        0.365937   -5.583717    1.306137
    100          1           0       -0.592924   -7.004076    1.505852
    101          1           0       -0.585175   -5.651920    2.686978
    102          1           0        2.724471   -0.621387   -0.626857
    103          1           0        2.519554    0.246527   -2.133765
    104          1           0        4.298441   -0.614409   -3.292984
    105          1           0        5.229814   -3.419729   -0.480866
    106          1           0        4.240404   -2.204504    0.241260
    107          1           0        6.000515   -2.036280    0.217440
    108          1           0        6.344271   -1.894396   -3.592051
    109          1           0        6.769156   -3.120693   -2.450929
    110          1           0        8.478703   -1.516565   -2.678959
    111          1           0        7.929377   -1.451427   -1.065297
    112          1           0        7.453185    0.756756   -1.223181
    113          1           0        6.289204    0.412152   -2.430335
    114          1           0        8.521681    0.187672   -3.932158
    115          1           0        7.532030    1.573442   -5.159938
    116          1           0        7.833631    2.936385   -4.023212
    117          1           0        6.316018    1.981577   -4.007421
    118          1           0        8.966816    2.633835   -2.172568
    119          1           0        9.920124    2.328138   -3.416420
    120          1           0       11.421784    0.975009   -2.177014
    121          1           0       10.141967   -0.136789   -1.759517
    122          1           0       10.085033    0.860370    0.276107
    123          1           0        9.714009    2.358914   -0.440565
    124          1           0       11.519403    2.827640    0.761502
    125          1           0       12.863626    2.586810   -1.890472
    126          1           0       13.018588    3.798406   -0.667391
    127          1           0       11.440500    3.674517   -1.573186
    128          1           0       13.678617    1.547081   -0.261005
    129          1           0       12.517193    0.214966   -0.035470
    130          1           0       12.798948    2.247526    2.336599
    131          1           0       14.279117    1.795677    1.806729
    132          1           0       14.104271   -0.310658    2.243269
    133          1           0       12.367369   -0.552199    2.250475
    134          1           0       12.740825    1.239141    4.306053
    135          1           0       15.313461    0.461756    4.071503
    136          1           0       14.656673   -1.045085    4.766961
    137          1           0       14.681763    0.469775    5.680465
    138          1           0       11.365924   -1.109468    3.866622
    139          1           0       11.351563   -0.108488    5.322862
    140          1           0       12.474242   -1.540214    5.222319
 ---------------------------------------------------------------------

 SCF Done:  E(RB-LYP) =  -3007.35646173     A.U. after   22 cycles

 Excitation energies and oscillator strengths:

 Excited State   1:      Singlet-A      1.7762 eV  698.05 nm  f=0.1439  <S**2>=0.000
     243 -> 247       -0.14546
     244 -> 247        0.49425
     245 -> 248        0.10555
     246 -> 247       -0.47777
     246 <- 247        0.10161
 This state for optimization and/or second-order correction.
 Total Energy, E(TD-HF/TD-DFT) =  -3007.29118932
 Copying the excited state density for this state as the 1-particle RhoCI density.

 Excited State   2:      Singlet-A      1.7990 eV  689.20 nm  f=0.0022  <S**2>=0.000
     243 -> 247        0.67147
     244 -> 247        0.17816
     245 -> 247       -0.12594

 Excited State   3:      Singlet-A      1.8334 eV  676.27 nm  f=0.1842  <S**2>=0.000
     243 -> 247       -0.11839
     244 -> 247        0.46761
     245 -> 248       -0.12379
     246 -> 247        0.50206
     246 <- 247       -0.11435

 Excited State   4:      Singlet-A      2.0152 eV  615.24 nm  f=0.0967  <S**2>=0.000
     243 -> 247        0.11334
     245 -> 247        0.64759
     246 -> 248        0.20642

 Excited State   5:      Singlet-A      2.4822 eV  499.50 nm  f=0.0046  <S**2>=0.000
     242 -> 247        0.69012

 The electronic state is 1-A.
 Alpha  occ. eigenvalues --  -46.26696 -18.81858 -18.80972 -18.77633 -18.76292
 Alpha  occ. eigenvalues --  -18.75126 -18.75098 -14.03126 -14.03022 -14.01382
 Alpha  occ. eigenvalues --  -14.00113 -10.04881 -10.03574  -9.99384  -9.99350
 Alpha  occ. eigenvalues --   -9.98867  -9.96624  -9.96515  -9.96465  -9.96386
 Alpha  occ. eigenvalues --   -9.96198  -9.95859  -9.95649  -9.94623  -9.94487
 Alpha  occ. eigenvalues --   -9.94436  -9.94370  -9.94226  -9.94018  -9.93818
 Alpha  occ. eigenvalues --   -9.93640  -9.93569  -9.93414  -9.93351  -9.93236
 Alpha  occ. eigenvalues --   -9.93090  -9.92999  -9.92934  -9.92909  -9.92445
 Alpha  occ. eigenvalues --   -9.92344  -9.92336  -9.92329  -9.92328  -9.92306
 Alpha  occ. eigenvalues --   -9.92266  -9.92265  -9.92159  -9.91806  -9.91762
 Alpha  occ. eigenvalues --   -9.91712  -9.91452  -9.91441  -9.91155  -9.91001
 Alpha  occ. eigenvalues --   -9.90918  -9.90813  -9.90718  -9.90703  -9.90700
 Alpha  occ. eigenvalues --   -9.90688  -9.90594  -9.90543  -9.90531  -9.90248
 Alpha  occ. eigenvalues --   -9.89872  -2.91394  -1.71832  -1.71251  -1.71119
 Alpha  occ. eigenvalues --   -0.97033  -0.96617  -0.92258  -0.90675  -0.88977
 Alpha  occ. eigenvalues --   -0.88667  -0.87935  -0.86370  -0.85218  -0.84261
 Alpha  occ. eigenvalues --   -0.76461  -0.74535  -0.73418  -0.72798  -0.72755
 Alpha  occ. eigenvalues --   -0.71993  -0.71936  -0.71181  -0.70899  -0.70721
 Alpha  occ. eigenvalues --   -0.69713  -0.69419  -0.68186  -0.67915  -0.67392
 Alpha  occ. eigenvalues --   -0.66822  -0.65938  -0.65120  -0.64994  -0.64590
 Alpha  occ. eigenvalues --   -0.64173  -0.62732  -0.62585  -0.62328  -0.60544
 Alpha  occ. eigenvalues --   -0.60364  -0.60139  -0.60078  -0.59249  -0.59093
 Alpha  occ. eigenvalues --   -0.58532  -0.58245  -0.56809  -0.56257  -0.54987
 Alpha  occ. eigenvalues --   -0.54101  -0.53907  -0.53306  -0.52687  -0.52277
 Alpha  occ. eigenvalues --   -0.51326  -0.51189  -0.50978  -0.50346  -0.50190
 Alpha  occ. eigenvalues --   -0.49499  -0.49153  -0.48378  -0.46822  -0.46565
 Alpha  occ. eigenvalues --   -0.46169  -0.45989  -0.45812  -0.45426  -0.44907
 Alpha  occ. eigenvalues --   -0.44306  -0.43735  -0.42918  -0.42784  -0.42422
 Alpha  occ. eigenvalues --   -0.42023  -0.41782  -0.41514  -0.41414  -0.40941
 Alpha  occ. eigenvalues --   -0.40864  -0.40636  -0.40596  -0.40486  -0.40307
 Alpha  occ. eigenvalues --   -0.39850  -0.39641  -0.39452  -0.39394  -0.39178
 Alpha  occ. eigenvalues --   -0.38859  -0.38756  -0.38501  -0.38278  -0.38220
 Alpha  occ. eigenvalues --   -0.38135  -0.37950  -0.37754  -0.37384  -0.37303
 Alpha  occ. eigenvalues --   -0.37016  -0.36926  -0.36768  -0.36492  -0.36430
 Alpha  occ. eigenvalues --   -0.36159  -0.35980  -0.35808  -0.35680  -0.35432
 Alpha  occ. eigenvalues --   -0.35294  -0.35006  -0.34980  -0.34811  -0.34677
 Alpha  occ. eigenvalues --   -0.34519  -0.34338  -0.34165  -0.34098  -0.34016
 Alpha  occ. eigenvalues --   -0.33735  -0.33671  -0.33604  -0.33389  -0.33201
 Alpha  occ. eigenvalues --   -0.33031  -0.32990  -0.32955  -0.32498  -0.32274
 Alpha  occ. eigenvalues --   -0.32134  -0.31891  -0.31754  -0.31722  -0.31425
 Alpha  occ. eigenvalues --   -0.31284  -0.31190  -0.31086  -0.30946  -0.30834
 Alpha  occ. eigenvalues --   -0.30650  -0.30553  -0.30493  -0.29942  -0.29778
 Alpha  occ. eigenvalues --   -0.29702  -0.29601  -0.29349  -0.29040  -0.28914
 Alpha  occ. eigenvalues --   -0.28568  -0.28523  -0.28395  -0.28122  -0.27645
 Alpha  occ. eigenvalues --   -0.27501  -0.27091  -0.26538  -0.26250  -0.26216
 Alpha  occ. eigenvalues --   -0.26042  -0.25849  -0.25713  -0.25482  -0.25116
 Alpha  occ. eigenvalues --   -0.25003  -0.24077  -0.23884  -0.23761  -0.23430
 Alpha  occ. eigenvalues --   -0.22566  -0.22523  -0.22364  -0.21451  -0.21154
 Alpha  occ. eigenvalues --   -0.21055  -0.20389  -0.18283  -0.18270  -0.17277
 Alpha  occ. eigenvalues --   -0.15988
 Alpha virt. eigenvalues --   -0.11750  -0.06724  -0.05597  -0.04617  -0.04432
 Alpha virt. eigenvalues --   -0.03172  -0.02570  -0.01875  -0.01218   0.00220
 Alpha virt. eigenvalues --    0.01307   0.01774   0.02147   0.02599   0.02822

 Mulliken charges:
               1
     1  Mg   0.680635
     2  C    0.055068
     3  C   -0.055931
     4  C   -0.032972
     5  C   -0.109716
     6  N   -0.231172
     7  C   -0.059752
     8  C   -0.004558
     9  C   -0.017636
    10  C    0.039438
    11  C    0.137106
    12  C    0.132754
    13  C    0.129447
    14  C    0.116208
    15  O   -0.203426
    16  O   -0.294901
    17  N   -0.282009
    18  C    0.110923
    19  C   -0.148399
    20  C    0.093615
    21  C    0.124475
    22  C    0.176545
    23  C   -0.134168
    24  O   -0.149822
    25  C    0.151985
    26  N   -0.239765
    27  C   -0.031607
    28  C    0.009824
    29  C    0.045715
    30  C    0.034735
    31  C    0.154217
    32  C    0.060841
    33  C    0.084385
    34  N   -0.195689
    35  C    0.132017
    36  C   -0.204185
    37  C    0.045623
    38  C   -0.003125
    39  C    0.193766
    40  C   -0.058194
    41  O   -0.134378
    42  C    0.092222
    43  C    0.129122
    44  O   -0.182381
    45  O   -0.268332
    46  C    0.208967
    47  C    0.320697
    48  C   -0.080734
    49  C   -0.120865
    50  C    0.117822
    51  C    0.142180
    52  C    0.016691
    53  C    0.174815
    54  C   -0.053957
    55  C    0.113214
    56  C    0.066817
    57  C    0.138993
    58  C    0.047775
    59  C   -0.123300
    60  C    0.111716
    61  C    0.176006
    62  C    0.091021
    63  C    0.054556
    64  C   -0.084192
    65  C    0.118670
    66  C    0.089391
    67  H   -0.070310
    68  H   -0.044304
    69  H   -0.059517
    70  H   -0.006275
    71  H   -0.026833
    72  H   -0.013410
    73  H    0.005357
    74  H   -0.001720
    75  H   -0.023563
    76  H   -0.008599
    77  H   -0.000954
    78  H    0.002846
    79  H   -0.018120
    80  H    0.015571
    81  H   -0.015358
    82  H   -0.028901
    83  H    0.006564
    84  H    0.004492
    85  H   -0.016267
    86  H   -0.035350
    87  H    0.003327
    88  H   -0.019965
    89  H    0.009392
    90  H   -0.024743
    91  H   -0.031579
    92  H    0.004900
    93  H   -0.011811
    94  H   -0.003790
    95  H    0.017628
    96  H   -0.006690
    97  H   -0.004371
    98  H    0.012144
    99  H    0.011767
   100  H    0.010319
   101  H    0.009604
   102  H    0.020496
   103  H   -0.021025
   104  H   -0.028618
   105  H   -0.012921
   106  H    0.000633
   107  H   -0.004766
   108  H   -0.044346
   109  H   -0.025526
   110  H   -0.015647
   111  H   -0.028773
   112  H   -0.040412
   113  H   -0.057178
   114  H   -0.039554
   115  H   -0.020994
   116  H   -0.018046
   117  H   -0.028655
   118  H   -0.030865
   119  H   -0.043209
   120  H   -0.035168
   121  H   -0.032915
   122  H   -0.047000
   123  H   -0.040300
   124  H   -0.046446
   125  H   -0.015094
   126  H   -0.020818
   127  H   -0.017909
   128  H   -0.060882
   129  H   -0.023154
   130  H   -0.036296
   131  H   -0.045799
   132  H   -0.038615
   133  H   -0.033911
   134  H   -0.040618
   135  H   -0.014387
   136  H   -0.014372
   137  H   -0.018397
   138  H   -0.013129
   139  H   -0.009125
   140  H   -0.012570
 Sum of Mulliken charges =  -0.00000

 Dipole moment (field-independent basis, Debye):
    X=              1.5087    Y=              3.9020    Z=             -3.5002  Tot=              5.4547
 Quadrupole moment (field-independent basis, Debye-Ang):
   XX=           -364.5193   YY=           -436.0094   ZZ=           -407.5205
   XY=             -3.0144   XZ=             12.7740   YZ=              6.4385

 Normal termination of Gaussian 16 at Wed Apr 27 01:58:28 2022.
