 Gaussian 16, Revision A.03,
 Gaussian 16:  ES64L-G16RevA.03 25-Dec-2016

 -----------------------------------
 #p cam-b3lyp/Def2SVP td=(nstates=5)
 -----------------------------------

 ------------------------------------------------------
 step_101_chromophore_3 TDDFT with cam-b3lyp functional
 ------------------------------------------------------
 Symbolic Z-matrix:
 Charge =  0 Multiplicity = 1

                         Standard orientation:
 ---------------------------------------------------------------------
 Center     Atomic      Atomic             Coordinates (Angstroms)
 Number     Number       Type             X           Y           Z
 ---------------------------------------------------------------------
      1         12           0       -5.413918    0.522823    0.138125
      2          6           0       -3.762191   -2.529459    0.185595
      3          6           0       -2.276124    2.067275    0.090107
      4          6           0       -6.932870    3.424923    0.679810
      5          6           0       -8.399092   -1.145055    0.158054
      6          7           0       -3.333379   -0.067389    0.027736
      7          6           0       -2.933285   -1.433234   -0.059673
      8          6           0       -1.466271   -1.465453   -0.481267
      9          6           0       -0.891978   -0.015985   -0.130657
     10          6           0       -2.264096    0.745787   -0.009691
     11          6           0       -0.004069    0.191695    1.100107
     12          6           0       -1.281867   -2.002642   -1.931361
     13          6           0       -0.102101   -3.075805   -2.059150
     14          6           0        1.220659   -2.684565   -1.513656
     15          8           0        1.812496   -3.041970   -0.475168
     16          8           0        1.686696   -1.636687   -2.280781
     17          7           0       -4.715513    2.537399    0.216009
     18          6           0       -3.376018    2.966577    0.179048
     19          6           0       -3.403759    4.412556    0.431309
     20          6           0       -4.717412    4.856390    0.525313
     21          6           0       -5.549306    3.580422    0.456679
     22          6           0       -2.110358    5.201835    0.550835
     23          6           0       -5.230442    6.222221    0.671158
     24          8           0       -6.390719    6.436063    0.932965
     25          6           0       -4.338737    7.446040    0.595067
     26          7           0       -7.357482    1.035815    0.615221
     27          6           0       -7.784935    2.300799    0.654044
     28          6           0       -9.331519    2.396736    0.507130
     29          6           0       -9.714514    0.952899    0.100671
     30          6           0       -8.416135    0.210445    0.280304
     31          6           0       -9.949386    2.840187    1.810196
     32          6           0      -10.367112    0.756807   -1.330779
     33          6           0      -11.491229    1.713200   -1.734540
     34          7           0       -5.992574   -1.473853    0.268187
     35          6           0       -7.249770   -1.991016    0.253316
     36          6           0       -7.217191   -3.394371    0.335480
     37          6           0       -5.826815   -3.688557    0.360717
     38          6           0       -5.183510   -2.468358    0.376606
     39          6           0       -8.396919   -4.365346    0.460779
     40          6           0       -4.729649   -4.673772    0.514126
     41          8           0       -4.747271   -5.900030    0.557273
     42          6           0       -3.414066   -3.922405    0.271756
     43          6           0       -2.426517   -4.284215    1.328670
     44          8           0       -2.067535   -3.657303    2.324422
     45          8           0       -1.788966   -5.438785    0.925763
     46          6           0       -0.618113   -5.921960    1.631138
     47          6           0        2.740432   -0.733606   -1.710684
     48          6           0        4.047961   -1.163630   -2.386030
     49          6           0        5.095586   -1.828274   -1.847463
     50          6           0        5.133408   -2.340498   -0.368724
     51          6           0        6.454950   -2.079336   -2.523640
     52          6           0        7.626756   -1.194664   -2.080419
     53          6           0        7.353201    0.315046   -2.215092
     54          6           0        8.157271    0.941430   -3.235558
     55          6           0        7.396987    1.944859   -4.143536
     56          6           0        9.354097    1.753052   -2.684153
     57          6           0       10.377915    0.922337   -1.864553
     58          6           0       10.421316    1.532567   -0.513403
     59          6           0       11.766167    2.183439   -0.081463
     60          6           0       12.292186    3.143760   -1.147457
     61          6           0       12.843192    1.185222    0.337854
     62          6           0       13.254007    1.425963    1.782116
     63          6           0       13.157705    0.136414    2.547238
     64          6           0       13.136148    0.240108    4.124865
     65          6           0       14.526721    0.035285    4.692751
     66          6           0       11.979151   -0.731423    4.685353
     67          1           0       -1.316259    2.586809    0.126845
     68          1           0       -7.542188    4.258052    1.039028
     69          1           0       -9.405365   -1.568747    0.132698
     70          1           0       -0.907602   -2.099643    0.207825
     71          1           0       -0.434189    0.436419   -1.010725
     72          1           0        1.039118    0.311533    0.810148
     73          1           0       -0.013992   -0.719924    1.698588
     74          1           0       -0.302035    0.975102    1.796969
     75          1           0       -0.979794   -1.110741   -2.480714
     76          1           0       -2.218967   -2.275064   -2.414885
     77          1           0       -0.152063   -3.262548   -3.132334
     78          1           0       -0.353015   -4.044943   -1.628605
     79          1           0       -2.151429    5.851823    1.425018
     80          1           0       -1.833461    5.805838   -0.312324
     81          1           0       -1.310986    4.541656    0.889683
     82          1           0       -4.897532    8.356031    0.810036
     83          1           0       -3.996592    7.636643   -0.422090
     84          1           0       -3.655385    7.396978    1.443864
     85          1           0       -9.459156    3.115918   -0.302423
     86          1           0      -10.443725    0.530656    0.791212
     87          1           0       -9.351606    2.512573    2.661424
     88          1           0      -10.907588    2.330180    1.910875
     89          1           0      -10.124826    3.912846    1.732471
     90          1           0      -10.638779   -0.296295   -1.402075
     91          1           0       -9.588198    0.842079   -2.088308
     92          1           0      -11.723394    2.557328   -1.085029
     93          1           0      -12.374647    1.074816   -1.750762
     94          1           0      -11.295658    2.030441   -2.757990
     95          1           0       -7.997625   -5.366654    0.621041
     96          1           0       -8.996183   -4.258091   -0.443442
     97          1           0       -9.033855   -4.020606    1.275143
     98          1           0       -3.071840   -4.296402   -0.693559
     99          1           0        0.365937   -5.583717    1.306137
    100          1           0       -0.592924   -7.004076    1.505852
    101          1           0       -0.585175   -5.651920    2.686978
    102          1           0        2.724471   -0.621387   -0.626857
    103          1           0        2.519554    0.246527   -2.133765
    104          1           0        4.298441   -0.614409   -3.292984
    105          1           0        5.229814   -3.419729   -0.480866
    106          1           0        4.240404   -2.204504    0.241260
    107          1           0        6.000515   -2.036280    0.217440
    108          1           0        6.344271   -1.894396   -3.592051
    109          1           0        6.769156   -3.120693   -2.450929
    110          1           0        8.478703   -1.516565   -2.678959
    111          1           0        7.929377   -1.451427   -1.065297
    112          1           0        7.453185    0.756756   -1.223181
    113          1           0        6.289204    0.412152   -2.430335
    114          1           0        8.521681    0.187672   -3.932158
    115          1           0        7.532030    1.573442   -5.159938
    116          1           0        7.833631    2.936385   -4.023212
    117          1           0        6.316018    1.981577   -4.007421
    118          1           0        8.966816    2.633835   -2.172568
    119          1           0        9.920124    2.328138   -3.416420
    120          1           0       11.421784    0.975009   -2.177014
    121          1           0       10.141967   -0.136789   -1.759517
    122          1           0       10.085033    0.860370    0.276107
    123          1           0        9.714009    2.358914   -0.440565
    124          1           0       11.519403    2.827640    0.761502
    125          1           0       12.863626    2.586810   -1.890472
    126          1           0       13.018588    3.798406   -0.667391
    127          1           0       11.440500    3.674517   -1.573186
    128          1           0       13.678617    1.547081   -0.261005
    129          1           0       12.517193    0.214966   -0.035470
    130          1           0       12.798948    2.247526    2.336599
    131          1           0       14.279117    1.795677    1.806729
    132          1           0       14.104271   -0.310658    2.243269
    133          1           0       12.367369   -0.552199    2.250475
    134          1           0       12.740825    1.239141    4.306053
    135          1           0       15.313461    0.461756    4.071503
    136          1           0       14.656673   -1.045085    4.766961
    137          1           0       14.681763    0.469775    5.680465
    138          1           0       11.365924   -1.109468    3.866622
    139          1           0       11.351563   -0.108488    5.322862
    140          1           0       12.474242   -1.540214    5.222319
 ---------------------------------------------------------------------

 SCF Done:  E(RCAM-B3LYP) =  -3007.16289497     A.U. after   17 cycles

 Excitation energies and oscillator strengths:

 Excited State   1:      Singlet-A      1.7751 eV  698.47 nm  f=0.3905  <S**2>=0.000
     245 -> 248        0.14533
     246 -> 247        0.69124
 This state for optimization and/or second-order correction.
 Total Energy, E(TD-HF/TD-DFT) =  -3007.09766232
 Copying the excited state density for this state as the 1-particle RhoCI density.

 Excited State   2:      Singlet-A      2.2265 eV  556.87 nm  f=0.1603  <S**2>=0.000
     245 -> 247        0.65753
     246 -> 248       -0.23100

 Excited State   3:      Singlet-A      3.4180 eV  362.74 nm  f=0.0107  <S**2>=0.000
     239 -> 247       -0.12309
     242 -> 247       -0.33167
     244 -> 247        0.58299

 Excited State   4:      Singlet-A      3.4385 eV  360.58 nm  f=0.0012  <S**2>=0.000
     240 -> 247        0.57774
     240 -> 248       -0.17527
     240 -> 249        0.25515
     240 -> 250        0.11700
     244 -> 247       -0.10378

 Excited State   5:      Singlet-A      3.5339 eV  350.85 nm  f=0.0235  <S**2>=0.000
     239 -> 247        0.21162
     242 -> 247        0.31302
     243 -> 247        0.38979
     243 -> 249       -0.14395
     243 -> 250        0.16647
     244 -> 247        0.26982
     246 -> 248        0.24026

 The electronic state is 1-A.
 Alpha  occ. eigenvalues --  -46.88185 -19.24637 -19.23610 -19.20544 -19.19154
 Alpha  occ. eigenvalues --  -19.19021 -19.17655 -14.41974 -14.41897 -14.40220
 Alpha  occ. eigenvalues --  -14.38036 -10.40159 -10.38848 -10.35113 -10.34119
 Alpha  occ. eigenvalues --  -10.33058 -10.31841 -10.31515 -10.31466 -10.30741
 Alpha  occ. eigenvalues --  -10.30590 -10.30118 -10.29956 -10.29505 -10.28389
 Alpha  occ. eigenvalues --  -10.28289 -10.28209 -10.28178 -10.28120 -10.27881
 Alpha  occ. eigenvalues --  -10.27751 -10.27736 -10.27676 -10.27334 -10.27258
 Alpha  occ. eigenvalues --  -10.26934 -10.26893 -10.26677 -10.26656 -10.26465
 Alpha  occ. eigenvalues --  -10.26422 -10.26292 -10.26213 -10.26144 -10.26125
 Alpha  occ. eigenvalues --  -10.26112 -10.26008 -10.25778 -10.25580 -10.25501
 Alpha  occ. eigenvalues --  -10.25432 -10.25102 -10.25074 -10.24866 -10.24655
 Alpha  occ. eigenvalues --  -10.24503 -10.24457 -10.24426 -10.24371 -10.24340
 Alpha  occ. eigenvalues --  -10.24320 -10.24196 -10.24172 -10.23914 -10.23821
 Alpha  occ. eigenvalues --  -10.23534  -3.16790  -1.91705  -1.91233  -1.91103
 Alpha  occ. eigenvalues --   -1.15356  -1.14890  -1.11349  -1.08495  -1.06681
 Alpha  occ. eigenvalues --   -1.06323  -1.05099  -1.04056  -1.03171  -1.02049
 Alpha  occ. eigenvalues --   -0.93289  -0.91472  -0.90264  -0.89525  -0.89439
 Alpha  occ. eigenvalues --   -0.88851  -0.88652  -0.87915  -0.87784  -0.87516
 Alpha  occ. eigenvalues --   -0.85912  -0.85610  -0.84475  -0.83950  -0.83573
 Alpha  occ. eigenvalues --   -0.82907  -0.82137  -0.81280  -0.80856  -0.80548
 Alpha  occ. eigenvalues --   -0.79900  -0.78951  -0.78062  -0.77653  -0.75809
 Alpha  occ. eigenvalues --   -0.75704  -0.75515  -0.75326  -0.74562  -0.74176
 Alpha  occ. eigenvalues --   -0.73765  -0.73136  -0.71723  -0.71135  -0.69543
 Alpha  occ. eigenvalues --   -0.68821  -0.68700  -0.67709  -0.67028  -0.66688
 Alpha  occ. eigenvalues --   -0.65469  -0.65297  -0.64954  -0.64266  -0.64177
 Alpha  occ. eigenvalues --   -0.63203  -0.63126  -0.61851  -0.60570  -0.60550
 Alpha  occ. eigenvalues --   -0.59590  -0.59477  -0.59302  -0.58746  -0.58206
 Alpha  occ. eigenvalues --   -0.57550  -0.57024  -0.56217  -0.55735  -0.55426
 Alpha  occ. eigenvalues --   -0.55140  -0.55021  -0.54334  -0.54292  -0.54006
 Alpha  occ. eigenvalues --   -0.53777  -0.53636  -0.53540  -0.53449  -0.53046
 Alpha  occ. eigenvalues --   -0.52883  -0.52583  -0.52102  -0.51924  -0.51599
 Alpha  occ. eigenvalues --   -0.51421  -0.51326  -0.51157  -0.50951  -0.50624
 Alpha  occ. eigenvalues --   -0.50424  -0.50269  -0.50136  -0.49768  -0.49592
 Alpha  occ. eigenvalues --   -0.49427  -0.49115  -0.48943  -0.48848  -0.48569
 Alpha  occ. eigenvalues --   -0.48457  -0.48291  -0.48081  -0.47862  -0.47717
 Alpha  occ. eigenvalues --   -0.47580  -0.47296  -0.46965  -0.46827  -0.46669
 Alpha  occ. eigenvalues --   -0.46400  -0.46076  -0.45974  -0.45924  -0.45818
 Alpha  occ. eigenvalues --   -0.45530  -0.45358  -0.45351  -0.45133  -0.44827
 Alpha  occ. eigenvalues --   -0.44659  -0.44615  -0.44501  -0.44094  -0.43874
 Alpha  occ. eigenvalues --   -0.43616  -0.43480  -0.43353  -0.43215  -0.43051
 Alpha  occ. eigenvalues --   -0.42857  -0.42787  -0.42725  -0.42465  -0.42353
 Alpha  occ. eigenvalues --   -0.42274  -0.42018  -0.41843  -0.41301  -0.41177
 Alpha  occ. eigenvalues --   -0.40893  -0.40849  -0.40479  -0.40435  -0.40143
 Alpha  occ. eigenvalues --   -0.39790  -0.39597  -0.39556  -0.38930  -0.38522
 Alpha  occ. eigenvalues --   -0.38348  -0.37898  -0.37569  -0.37323  -0.36956
 Alpha  occ. eigenvalues --   -0.36790  -0.36571  -0.36510  -0.36266  -0.35998
 Alpha  occ. eigenvalues --   -0.35836  -0.35128  -0.34709  -0.34564  -0.34349
 Alpha  occ. eigenvalues --   -0.33670  -0.32992  -0.32951  -0.32167  -0.31169
 Alpha  occ. eigenvalues --   -0.30807  -0.30562  -0.29770  -0.29111  -0.24181
 Alpha  occ. eigenvalues --   -0.21485
 Alpha virt. eigenvalues --   -0.08906  -0.01215   0.00829   0.02610   0.02845
 Alpha virt. eigenvalues --    0.03261   0.04291   0.05449   0.05794   0.06918
 Alpha virt. eigenvalues --    0.07817   0.08272   0.08709   0.08919   0.09150

 Mulliken charges:
               1
     1  Mg   0.815409
     2  C    0.024270
     3  C   -0.078611
     4  C   -0.057630
     5  C   -0.103540
     6  N   -0.303410
     7  C   -0.020384
     8  C   -0.055149
     9  C   -0.062432
    10  C    0.062780
    11  C    0.078068
    12  C    0.081901
    13  C    0.057585
    14  C    0.194555
    15  O   -0.245471
    16  O   -0.358926
    17  N   -0.370827
    18  C    0.133028
    19  C   -0.152649
    20  C    0.023701
    21  C    0.160124
    22  C    0.119286
    23  C   -0.055026
    24  O   -0.185984
    25  C    0.069117
    26  N   -0.312004
    27  C    0.002113
    28  C   -0.052631
    29  C   -0.011569
    30  C    0.043919
    31  C    0.092653
    32  C    0.015041
    33  C    0.016928
    34  N   -0.288483
    35  C    0.120547
    36  C   -0.202940
    37  C   -0.031121
    38  C    0.036677
    39  C    0.142625
    40  C    0.042762
    41  O   -0.176310
    42  C    0.006310
    43  C    0.217121
    44  O   -0.221206
    45  O   -0.332419
    46  C    0.173034
    47  C    0.287165
    48  C   -0.100385
    49  C   -0.142979
    50  C    0.058202
    51  C    0.086611
    52  C   -0.034299
    53  C    0.112052
    54  C   -0.111692
    55  C    0.058035
    56  C    0.017700
    57  C    0.071111
    58  C    0.002964
    59  C   -0.172957
    60  C    0.051853
    61  C    0.109200
    62  C    0.039050
    63  C    0.002696
    64  C   -0.144978
    65  C    0.059661
    66  C    0.034729
    67  H   -0.034175
    68  H   -0.004692
    69  H   -0.024710
    70  H    0.025538
    71  H    0.006788
    72  H    0.007801
    73  H    0.033191
    74  H    0.024399
    75  H    0.007170
    76  H    0.024212
    77  H    0.034483
    78  H    0.032096
    79  H    0.011740
    80  H    0.045260
    81  H    0.015016
    82  H    0.011119
    83  H    0.037266
    84  H    0.032729
    85  H    0.019303
    86  H    0.000180
    87  H    0.029771
    88  H    0.007159
    89  H    0.033026
    90  H    0.003540
    91  H   -0.003530
    92  H    0.025664
    93  H    0.012221
    94  H    0.020047
    95  H    0.042104
    96  H    0.015473
    97  H    0.017915
    98  H    0.053765
    99  H    0.031167
   100  H    0.032576
   101  H    0.034452
   102  H    0.045346
   103  H    0.008280
   104  H   -0.000134
   105  H    0.011821
   106  H    0.026777
   107  H    0.018034
   108  H   -0.013523
   109  H    0.005855
   110  H    0.011384
   111  H   -0.002716
   112  H   -0.009668
   113  H   -0.026854
   114  H   -0.006239
   115  H    0.003673
   116  H    0.005617
   117  H   -0.004557
   118  H   -0.004041
   119  H   -0.012520
   120  H   -0.005479
   121  H   -0.003643
   122  H   -0.018172
   123  H   -0.011943
   124  H   -0.013054
   125  H    0.006984
   126  H    0.004865
   127  H    0.005623
   128  H   -0.026685
   129  H    0.005228
   130  H   -0.008969
   131  H   -0.016953
   132  H   -0.009754
   133  H   -0.007017
   134  H   -0.009658
   135  H    0.008541
   136  H    0.008133
   137  H    0.006803
   138  H    0.010072
   139  H    0.013995
   140  H    0.009914
 Sum of Mulliken charges =  -0.00000

 Dipole moment (field-independent basis, Debye):
    X=              2.0642    Y=              6.0770    Z=             -3.5012  Tot=              7.3109
 Quadrupole moment (field-independent basis, Debye-Ang):
   XX=           -367.8306   YY=           -429.7891   ZZ=           -407.7397
   XY=            -11.6154   XZ=             13.1217   YZ=              7.6458

 Normal termination of Gaussian 16 at Wed Apr 27 00:55:27 2022.
