 Gaussian 16, Revision A.03,
 Gaussian 16:  ES64L-G16RevA.03 25-Dec-2016

 ---------------------------------
 #p PBE1PBE/Def2SVP td=(nstates=5)
 ---------------------------------

 ----------------------------------------------------
 step_101_chromophore_3 TDDFT with PBE1PBE functional
 ----------------------------------------------------
 Symbolic Z-matrix:
 Charge =  0 Multiplicity = 1

                         Standard orientation:
 ---------------------------------------------------------------------
 Center     Atomic      Atomic             Coordinates (Angstroms)
 Number     Number       Type             X           Y           Z
 ---------------------------------------------------------------------
      1         12           0       -5.413918    0.522823    0.138125
      2          6           0       -3.762191   -2.529459    0.185595
      3          6           0       -2.276124    2.067275    0.090107
      4          6           0       -6.932870    3.424923    0.679810
      5          6           0       -8.399092   -1.145055    0.158054
      6          7           0       -3.333379   -0.067389    0.027736
      7          6           0       -2.933285   -1.433234   -0.059673
      8          6           0       -1.466271   -1.465453   -0.481267
      9          6           0       -0.891978   -0.015985   -0.130657
     10          6           0       -2.264096    0.745787   -0.009691
     11          6           0       -0.004069    0.191695    1.100107
     12          6           0       -1.281867   -2.002642   -1.931361
     13          6           0       -0.102101   -3.075805   -2.059150
     14          6           0        1.220659   -2.684565   -1.513656
     15          8           0        1.812496   -3.041970   -0.475168
     16          8           0        1.686696   -1.636687   -2.280781
     17          7           0       -4.715513    2.537399    0.216009
     18          6           0       -3.376018    2.966577    0.179048
     19          6           0       -3.403759    4.412556    0.431309
     20          6           0       -4.717412    4.856390    0.525313
     21          6           0       -5.549306    3.580422    0.456679
     22          6           0       -2.110358    5.201835    0.550835
     23          6           0       -5.230442    6.222221    0.671158
     24          8           0       -6.390719    6.436063    0.932965
     25          6           0       -4.338737    7.446040    0.595067
     26          7           0       -7.357482    1.035815    0.615221
     27          6           0       -7.784935    2.300799    0.654044
     28          6           0       -9.331519    2.396736    0.507130
     29          6           0       -9.714514    0.952899    0.100671
     30          6           0       -8.416135    0.210445    0.280304
     31          6           0       -9.949386    2.840187    1.810196
     32          6           0      -10.367112    0.756807   -1.330779
     33          6           0      -11.491229    1.713200   -1.734540
     34          7           0       -5.992574   -1.473853    0.268187
     35          6           0       -7.249770   -1.991016    0.253316
     36          6           0       -7.217191   -3.394371    0.335480
     37          6           0       -5.826815   -3.688557    0.360717
     38          6           0       -5.183510   -2.468358    0.376606
     39          6           0       -8.396919   -4.365346    0.460779
     40          6           0       -4.729649   -4.673772    0.514126
     41          8           0       -4.747271   -5.900030    0.557273
     42          6           0       -3.414066   -3.922405    0.271756
     43          6           0       -2.426517   -4.284215    1.328670
     44          8           0       -2.067535   -3.657303    2.324422
     45          8           0       -1.788966   -5.438785    0.925763
     46          6           0       -0.618113   -5.921960    1.631138
     47          6           0        2.740432   -0.733606   -1.710684
     48          6           0        4.047961   -1.163630   -2.386030
     49          6           0        5.095586   -1.828274   -1.847463
     50          6           0        5.133408   -2.340498   -0.368724
     51          6           0        6.454950   -2.079336   -2.523640
     52          6           0        7.626756   -1.194664   -2.080419
     53          6           0        7.353201    0.315046   -2.215092
     54          6           0        8.157271    0.941430   -3.235558
     55          6           0        7.396987    1.944859   -4.143536
     56          6           0        9.354097    1.753052   -2.684153
     57          6           0       10.377915    0.922337   -1.864553
     58          6           0       10.421316    1.532567   -0.513403
     59          6           0       11.766167    2.183439   -0.081463
     60          6           0       12.292186    3.143760   -1.147457
     61          6           0       12.843192    1.185222    0.337854
     62          6           0       13.254007    1.425963    1.782116
     63          6           0       13.157705    0.136414    2.547238
     64          6           0       13.136148    0.240108    4.124865
     65          6           0       14.526721    0.035285    4.692751
     66          6           0       11.979151   -0.731423    4.685353
     67          1           0       -1.316259    2.586809    0.126845
     68          1           0       -7.542188    4.258052    1.039028
     69          1           0       -9.405365   -1.568747    0.132698
     70          1           0       -0.907602   -2.099643    0.207825
     71          1           0       -0.434189    0.436419   -1.010725
     72          1           0        1.039118    0.311533    0.810148
     73          1           0       -0.013992   -0.719924    1.698588
     74          1           0       -0.302035    0.975102    1.796969
     75          1           0       -0.979794   -1.110741   -2.480714
     76          1           0       -2.218967   -2.275064   -2.414885
     77          1           0       -0.152063   -3.262548   -3.132334
     78          1           0       -0.353015   -4.044943   -1.628605
     79          1           0       -2.151429    5.851823    1.425018
     80          1           0       -1.833461    5.805838   -0.312324
     81          1           0       -1.310986    4.541656    0.889683
     82          1           0       -4.897532    8.356031    0.810036
     83          1           0       -3.996592    7.636643   -0.422090
     84          1           0       -3.655385    7.396978    1.443864
     85          1           0       -9.459156    3.115918   -0.302423
     86          1           0      -10.443725    0.530656    0.791212
     87          1           0       -9.351606    2.512573    2.661424
     88          1           0      -10.907588    2.330180    1.910875
     89          1           0      -10.124826    3.912846    1.732471
     90          1           0      -10.638779   -0.296295   -1.402075
     91          1           0       -9.588198    0.842079   -2.088308
     92          1           0      -11.723394    2.557328   -1.085029
     93          1           0      -12.374647    1.074816   -1.750762
     94          1           0      -11.295658    2.030441   -2.757990
     95          1           0       -7.997625   -5.366654    0.621041
     96          1           0       -8.996183   -4.258091   -0.443442
     97          1           0       -9.033855   -4.020606    1.275143
     98          1           0       -3.071840   -4.296402   -0.693559
     99          1           0        0.365937   -5.583717    1.306137
    100          1           0       -0.592924   -7.004076    1.505852
    101          1           0       -0.585175   -5.651920    2.686978
    102          1           0        2.724471   -0.621387   -0.626857
    103          1           0        2.519554    0.246527   -2.133765
    104          1           0        4.298441   -0.614409   -3.292984
    105          1           0        5.229814   -3.419729   -0.480866
    106          1           0        4.240404   -2.204504    0.241260
    107          1           0        6.000515   -2.036280    0.217440
    108          1           0        6.344271   -1.894396   -3.592051
    109          1           0        6.769156   -3.120693   -2.450929
    110          1           0        8.478703   -1.516565   -2.678959
    111          1           0        7.929377   -1.451427   -1.065297
    112          1           0        7.453185    0.756756   -1.223181
    113          1           0        6.289204    0.412152   -2.430335
    114          1           0        8.521681    0.187672   -3.932158
    115          1           0        7.532030    1.573442   -5.159938
    116          1           0        7.833631    2.936385   -4.023212
    117          1           0        6.316018    1.981577   -4.007421
    118          1           0        8.966816    2.633835   -2.172568
    119          1           0        9.920124    2.328138   -3.416420
    120          1           0       11.421784    0.975009   -2.177014
    121          1           0       10.141967   -0.136789   -1.759517
    122          1           0       10.085033    0.860370    0.276107
    123          1           0        9.714009    2.358914   -0.440565
    124          1           0       11.519403    2.827640    0.761502
    125          1           0       12.863626    2.586810   -1.890472
    126          1           0       13.018588    3.798406   -0.667391
    127          1           0       11.440500    3.674517   -1.573186
    128          1           0       13.678617    1.547081   -0.261005
    129          1           0       12.517193    0.214966   -0.035470
    130          1           0       12.798948    2.247526    2.336599
    131          1           0       14.279117    1.795677    1.806729
    132          1           0       14.104271   -0.310658    2.243269
    133          1           0       12.367369   -0.552199    2.250475
    134          1           0       12.740825    1.239141    4.306053
    135          1           0       15.313461    0.461756    4.071503
    136          1           0       14.656673   -1.045085    4.766961
    137          1           0       14.681763    0.469775    5.680465
    138          1           0       11.365924   -1.109468    3.866622
    139          1           0       11.351563   -0.108488    5.322862
    140          1           0       12.474242   -1.540214    5.222319
 ---------------------------------------------------------------------

 SCF Done:  E(RPBE1PBE) =  -3005.35022551     A.U. after   16 cycles

 Excitation energies and oscillator strengths:

 Excited State   1:      Singlet-A      1.8609 eV  666.25 nm  f=0.3794  <S**2>=0.000
     245 -> 248        0.14620
     246 -> 247        0.69676
     246 <- 247       -0.10908
 This state for optimization and/or second-order correction.
 Total Energy, E(TD-HF/TD-DFT) =  -3005.28183734
 Copying the excited state density for this state as the 1-particle RhoCI density.

 Excited State   2:      Singlet-A      2.2183 eV  558.92 nm  f=0.1467  <S**2>=0.000
     245 -> 247        0.66610
     246 -> 248       -0.21465

 Excited State   3:      Singlet-A      2.9006 eV  427.45 nm  f=0.0002  <S**2>=0.000
     242 -> 247        0.11668
     244 -> 247        0.67320
     244 -> 249        0.12433

 Excited State   4:      Singlet-A      2.9070 eV  426.50 nm  f=0.0003  <S**2>=0.000
     242 -> 247        0.65636
     242 -> 248       -0.11453
     242 -> 249       -0.12232
     243 -> 247        0.12559
     244 -> 247       -0.10665

 Excited State   5:      Singlet-A      3.0187 eV  410.73 nm  f=0.0039  <S**2>=0.000
     241 -> 247       -0.10646
     242 -> 247       -0.11331
     243 -> 247        0.67989

 The electronic state is 1-A.
 Alpha  occ. eigenvalues --  -46.91582 -19.25342 -19.24424 -19.20829 -19.19530
 Alpha  occ. eigenvalues --  -19.18793 -19.18317 -14.41531 -14.41372 -14.39679
 Alpha  occ. eigenvalues --  -14.37943 -10.37190 -10.35998 -10.31817 -10.31657
 Alpha  occ. eigenvalues --  -10.30448 -10.29043 -10.28835 -10.28672 -10.28632
 Alpha  occ. eigenvalues --  -10.28083 -10.27548 -10.27461 -10.27030 -10.26193
 Alpha  occ. eigenvalues --  -10.26110 -10.26031 -10.25905 -10.25755 -10.25632
 Alpha  occ. eigenvalues --  -10.25378 -10.25266 -10.25254 -10.25084 -10.25022
 Alpha  occ. eigenvalues --  -10.24893 -10.24802 -10.24712 -10.24410 -10.24088
 Alpha  occ. eigenvalues --  -10.23959 -10.23930 -10.23807 -10.23700 -10.23492
 Alpha  occ. eigenvalues --  -10.23396 -10.23294 -10.23261 -10.23260 -10.23250
 Alpha  occ. eigenvalues --  -10.23009 -10.22762 -10.22494 -10.22455 -10.22114
 Alpha  occ. eigenvalues --  -10.22107 -10.22068 -10.21979 -10.21890 -10.21861
 Alpha  occ. eigenvalues --  -10.21739 -10.21733 -10.21727 -10.21704 -10.21467
 Alpha  occ. eigenvalues --  -10.21078  -3.13766  -1.86623  -1.86129  -1.86002
 Alpha  occ. eigenvalues --   -1.10141  -1.09799  -1.05681  -1.03626  -1.01538
 Alpha  occ. eigenvalues --   -1.01289  -1.00197  -0.98669  -0.97552  -0.96514
 Alpha  occ. eigenvalues --   -0.87929  -0.85557  -0.84370  -0.83771  -0.83680
 Alpha  occ. eigenvalues --   -0.83010  -0.82810  -0.82109  -0.81882  -0.81625
 Alpha  occ. eigenvalues --   -0.80434  -0.79979  -0.78646  -0.78290  -0.77852
 Alpha  occ. eigenvalues --   -0.77135  -0.76284  -0.75412  -0.75095  -0.74781
 Alpha  occ. eigenvalues --   -0.74143  -0.72929  -0.72400  -0.72102  -0.70217
 Alpha  occ. eigenvalues --   -0.69841  -0.69704  -0.69595  -0.68673  -0.68471
 Alpha  occ. eigenvalues --   -0.67945  -0.67682  -0.66024  -0.65498  -0.63917
 Alpha  occ. eigenvalues --   -0.63069  -0.62884  -0.62328  -0.61310  -0.60841
 Alpha  occ. eigenvalues --   -0.59835  -0.59811  -0.59509  -0.58828  -0.58387
 Alpha  occ. eigenvalues --   -0.57668  -0.57317  -0.56565  -0.54827  -0.54817
 Alpha  occ. eigenvalues --   -0.54176  -0.53961  -0.53861  -0.53351  -0.52802
 Alpha  occ. eigenvalues --   -0.52238  -0.51505  -0.50726  -0.50075  -0.50029
 Alpha  occ. eigenvalues --   -0.49731  -0.49569  -0.48879  -0.48747  -0.48268
 Alpha  occ. eigenvalues --   -0.48185  -0.48008  -0.47984  -0.47966  -0.47621
 Alpha  occ. eigenvalues --   -0.47400  -0.47062  -0.46717  -0.46466  -0.46128
 Alpha  occ. eigenvalues --   -0.46050  -0.45689  -0.45632  -0.45524  -0.45217
 Alpha  occ. eigenvalues --   -0.45107  -0.44907  -0.44687  -0.44252  -0.44162
 Alpha  occ. eigenvalues --   -0.43995  -0.43842  -0.43641  -0.43439  -0.43080
 Alpha  occ. eigenvalues --   -0.43041  -0.42884  -0.42614  -0.42531  -0.42445
 Alpha  occ. eigenvalues --   -0.42234  -0.41764  -0.41678  -0.41452  -0.41264
 Alpha  occ. eigenvalues --   -0.41038  -0.40957  -0.40765  -0.40679  -0.40465
 Alpha  occ. eigenvalues --   -0.40309  -0.40021  -0.39998  -0.39911  -0.39512
 Alpha  occ. eigenvalues --   -0.39456  -0.39332  -0.39292  -0.38753  -0.38701
 Alpha  occ. eigenvalues --   -0.38505  -0.38061  -0.38015  -0.37927  -0.37872
 Alpha  occ. eigenvalues --   -0.37597  -0.37476  -0.37464  -0.37273  -0.37236
 Alpha  occ. eigenvalues --   -0.37084  -0.36820  -0.36592  -0.36074  -0.36026
 Alpha  occ. eigenvalues --   -0.35735  -0.35611  -0.35365  -0.35287  -0.35088
 Alpha  occ. eigenvalues --   -0.34777  -0.34505  -0.34390  -0.33843  -0.33513
 Alpha  occ. eigenvalues --   -0.33247  -0.32720  -0.32572  -0.32104  -0.31841
 Alpha  occ. eigenvalues --   -0.31798  -0.31624  -0.31392  -0.31187  -0.30871
 Alpha  occ. eigenvalues --   -0.30618  -0.30166  -0.29612  -0.29491  -0.29462
 Alpha  occ. eigenvalues --   -0.28900  -0.28345  -0.27862  -0.27455  -0.26146
 Alpha  occ. eigenvalues --   -0.26089  -0.25536  -0.25177  -0.25002  -0.21005
 Alpha  occ. eigenvalues --   -0.19001
 Alpha virt. eigenvalues --   -0.11394  -0.04902  -0.03288  -0.01854  -0.01427
 Alpha virt. eigenvalues --   -0.00184   0.00085   0.00876   0.01587   0.03217
 Alpha virt. eigenvalues --    0.03967   0.04749   0.05066   0.05504   0.05754

 Mulliken charges:
               1
     1  Mg   0.967581
     2  C   -0.005834
     3  C   -0.075680
     4  C   -0.047322
     5  C   -0.086707
     6  N   -0.408448
     7  C    0.051996
     8  C   -0.120050
     9  C   -0.132081
    10  C    0.093564
    11  C    0.018507
    12  C    0.031615
    13  C   -0.021556
    14  C    0.260380
    15  O   -0.280307
    16  O   -0.384791
    17  N   -0.480233
    18  C    0.162986
    19  C   -0.182997
    20  C   -0.036209
    21  C    0.191088
    22  C    0.065588
    23  C   -0.003854
    24  O   -0.225196
    25  C   -0.003840
    26  N   -0.416378
    27  C    0.037258
    28  C   -0.136702
    29  C   -0.086673
    30  C    0.078546
    31  C    0.037038
    32  C   -0.043350
    33  C   -0.055557
    34  N   -0.421687
    35  C    0.136415
    36  C   -0.214552
    37  C   -0.073725
    38  C    0.106639
    39  C    0.085747
    40  C    0.144385
    41  O   -0.217304
    42  C   -0.107032
    43  C    0.305228
    44  O   -0.257077
    45  O   -0.365045
    46  C    0.120117
    47  C    0.235016
    48  C   -0.119672
    49  C   -0.176207
    50  C   -0.000358
    51  C    0.021033
    52  C   -0.096832
    53  C    0.061090
    54  C   -0.207057
    55  C    0.001688
    56  C   -0.036656
    57  C    0.003397
    58  C   -0.048569
    59  C   -0.255613
    60  C   -0.013436
    61  C    0.049246
    62  C   -0.020460
    63  C   -0.051839
    64  C   -0.234676
    65  C   -0.004293
    66  C   -0.025788
    67  H   -0.002727
    68  H    0.027718
    69  H    0.005852
    70  H    0.068988
    71  H    0.043795
    72  H    0.037719
    73  H    0.058675
    74  H    0.051620
    75  H    0.041859
    76  H    0.054524
    77  H    0.067116
    78  H    0.064864
    79  H    0.038267
    80  H    0.069987
    81  H    0.039261
    82  H    0.038040
    83  H    0.062566
    84  H    0.058279
    85  H    0.056047
    86  H    0.037681
    87  H    0.057089
    88  H    0.034227
    89  H    0.059850
    90  H    0.035228
    91  H    0.030796
    92  H    0.053179
    93  H    0.040504
    94  H    0.048254
    95  H    0.070577
    96  H    0.045384
    97  H    0.047888
    98  H    0.092168
    99  H    0.053068
   100  H    0.054846
   101  H    0.055948
   102  H    0.071632
   103  H    0.035966
   104  H    0.027907
   105  H    0.040415
   106  H    0.053845
   107  H    0.045063
   108  H    0.021126
   109  H    0.038086
   110  H    0.042026
   111  H    0.028970
   112  H    0.024356
   113  H    0.011621
   114  H    0.032442
   115  H    0.031557
   116  H    0.032331
   117  H    0.022525
   118  H    0.027205
   119  H    0.020466
   120  H    0.029291
   121  H    0.031498
   122  H    0.015780
   123  H    0.021125
   124  H    0.025718
   125  H    0.033421
   126  H    0.035232
   127  H    0.035283
   128  H    0.009411
   129  H    0.036152
   130  H    0.020259
   131  H    0.015789
   132  H    0.024762
   133  H    0.024530
   134  H    0.029020
   135  H    0.036324
   136  H    0.035735
   137  H    0.034995
   138  H    0.036202
   139  H    0.041416
   140  H    0.036876
 Sum of Mulliken charges =  -0.00000

 Dipole moment (field-independent basis, Debye):
    X=              1.7770    Y=              5.0190    Z=             -3.5874  Tot=              6.4201
 Quadrupole moment (field-independent basis, Debye-Ang):
   XX=           -358.3014   YY=           -428.5528   ZZ=           -405.2946
   XY=             -6.1813   XZ=             13.6387   YZ=              7.0901

 Normal termination of Gaussian 16 at Wed Apr 27 01:12:48 2022.
