 Gaussian 16, Revision A.03,
 Gaussian 16:  ES64L-G16RevA.03 25-Dec-2016

 --------------------------------
 #p wB97XD/Def2SVP td=(nstates=5)
 --------------------------------

 ---------------------------------------------------
 step_101_chromophore_3 TDDFT with wB97XD functional
 ---------------------------------------------------
 Symbolic Z-matrix:
 Charge =  0 Multiplicity = 1

                         Standard orientation:
 ---------------------------------------------------------------------
 Center     Atomic      Atomic             Coordinates (Angstroms)
 Number     Number       Type             X           Y           Z
 ---------------------------------------------------------------------
      1         12           0       -5.413918    0.522823    0.138125
      2          6           0       -3.762191   -2.529459    0.185595
      3          6           0       -2.276124    2.067275    0.090107
      4          6           0       -6.932870    3.424923    0.679810
      5          6           0       -8.399092   -1.145055    0.158054
      6          7           0       -3.333379   -0.067389    0.027736
      7          6           0       -2.933285   -1.433234   -0.059673
      8          6           0       -1.466271   -1.465453   -0.481267
      9          6           0       -0.891978   -0.015985   -0.130657
     10          6           0       -2.264096    0.745787   -0.009691
     11          6           0       -0.004069    0.191695    1.100107
     12          6           0       -1.281867   -2.002642   -1.931361
     13          6           0       -0.102101   -3.075805   -2.059150
     14          6           0        1.220659   -2.684565   -1.513656
     15          8           0        1.812496   -3.041970   -0.475168
     16          8           0        1.686696   -1.636687   -2.280781
     17          7           0       -4.715513    2.537399    0.216009
     18          6           0       -3.376018    2.966577    0.179048
     19          6           0       -3.403759    4.412556    0.431309
     20          6           0       -4.717412    4.856390    0.525313
     21          6           0       -5.549306    3.580422    0.456679
     22          6           0       -2.110358    5.201835    0.550835
     23          6           0       -5.230442    6.222221    0.671158
     24          8           0       -6.390719    6.436063    0.932965
     25          6           0       -4.338737    7.446040    0.595067
     26          7           0       -7.357482    1.035815    0.615221
     27          6           0       -7.784935    2.300799    0.654044
     28          6           0       -9.331519    2.396736    0.507130
     29          6           0       -9.714514    0.952899    0.100671
     30          6           0       -8.416135    0.210445    0.280304
     31          6           0       -9.949386    2.840187    1.810196
     32          6           0      -10.367112    0.756807   -1.330779
     33          6           0      -11.491229    1.713200   -1.734540
     34          7           0       -5.992574   -1.473853    0.268187
     35          6           0       -7.249770   -1.991016    0.253316
     36          6           0       -7.217191   -3.394371    0.335480
     37          6           0       -5.826815   -3.688557    0.360717
     38          6           0       -5.183510   -2.468358    0.376606
     39          6           0       -8.396919   -4.365346    0.460779
     40          6           0       -4.729649   -4.673772    0.514126
     41          8           0       -4.747271   -5.900030    0.557273
     42          6           0       -3.414066   -3.922405    0.271756
     43          6           0       -2.426517   -4.284215    1.328670
     44          8           0       -2.067535   -3.657303    2.324422
     45          8           0       -1.788966   -5.438785    0.925763
     46          6           0       -0.618113   -5.921960    1.631138
     47          6           0        2.740432   -0.733606   -1.710684
     48          6           0        4.047961   -1.163630   -2.386030
     49          6           0        5.095586   -1.828274   -1.847463
     50          6           0        5.133408   -2.340498   -0.368724
     51          6           0        6.454950   -2.079336   -2.523640
     52          6           0        7.626756   -1.194664   -2.080419
     53          6           0        7.353201    0.315046   -2.215092
     54          6           0        8.157271    0.941430   -3.235558
     55          6           0        7.396987    1.944859   -4.143536
     56          6           0        9.354097    1.753052   -2.684153
     57          6           0       10.377915    0.922337   -1.864553
     58          6           0       10.421316    1.532567   -0.513403
     59          6           0       11.766167    2.183439   -0.081463
     60          6           0       12.292186    3.143760   -1.147457
     61          6           0       12.843192    1.185222    0.337854
     62          6           0       13.254007    1.425963    1.782116
     63          6           0       13.157705    0.136414    2.547238
     64          6           0       13.136148    0.240108    4.124865
     65          6           0       14.526721    0.035285    4.692751
     66          6           0       11.979151   -0.731423    4.685353
     67          1           0       -1.316259    2.586809    0.126845
     68          1           0       -7.542188    4.258052    1.039028
     69          1           0       -9.405365   -1.568747    0.132698
     70          1           0       -0.907602   -2.099643    0.207825
     71          1           0       -0.434189    0.436419   -1.010725
     72          1           0        1.039118    0.311533    0.810148
     73          1           0       -0.013992   -0.719924    1.698588
     74          1           0       -0.302035    0.975102    1.796969
     75          1           0       -0.979794   -1.110741   -2.480714
     76          1           0       -2.218967   -2.275064   -2.414885
     77          1           0       -0.152063   -3.262548   -3.132334
     78          1           0       -0.353015   -4.044943   -1.628605
     79          1           0       -2.151429    5.851823    1.425018
     80          1           0       -1.833461    5.805838   -0.312324
     81          1           0       -1.310986    4.541656    0.889683
     82          1           0       -4.897532    8.356031    0.810036
     83          1           0       -3.996592    7.636643   -0.422090
     84          1           0       -3.655385    7.396978    1.443864
     85          1           0       -9.459156    3.115918   -0.302423
     86          1           0      -10.443725    0.530656    0.791212
     87          1           0       -9.351606    2.512573    2.661424
     88          1           0      -10.907588    2.330180    1.910875
     89          1           0      -10.124826    3.912846    1.732471
     90          1           0      -10.638779   -0.296295   -1.402075
     91          1           0       -9.588198    0.842079   -2.088308
     92          1           0      -11.723394    2.557328   -1.085029
     93          1           0      -12.374647    1.074816   -1.750762
     94          1           0      -11.295658    2.030441   -2.757990
     95          1           0       -7.997625   -5.366654    0.621041
     96          1           0       -8.996183   -4.258091   -0.443442
     97          1           0       -9.033855   -4.020606    1.275143
     98          1           0       -3.071840   -4.296402   -0.693559
     99          1           0        0.365937   -5.583717    1.306137
    100          1           0       -0.592924   -7.004076    1.505852
    101          1           0       -0.585175   -5.651920    2.686978
    102          1           0        2.724471   -0.621387   -0.626857
    103          1           0        2.519554    0.246527   -2.133765
    104          1           0        4.298441   -0.614409   -3.292984
    105          1           0        5.229814   -3.419729   -0.480866
    106          1           0        4.240404   -2.204504    0.241260
    107          1           0        6.000515   -2.036280    0.217440
    108          1           0        6.344271   -1.894396   -3.592051
    109          1           0        6.769156   -3.120693   -2.450929
    110          1           0        8.478703   -1.516565   -2.678959
    111          1           0        7.929377   -1.451427   -1.065297
    112          1           0        7.453185    0.756756   -1.223181
    113          1           0        6.289204    0.412152   -2.430335
    114          1           0        8.521681    0.187672   -3.932158
    115          1           0        7.532030    1.573442   -5.159938
    116          1           0        7.833631    2.936385   -4.023212
    117          1           0        6.316018    1.981577   -4.007421
    118          1           0        8.966816    2.633835   -2.172568
    119          1           0        9.920124    2.328138   -3.416420
    120          1           0       11.421784    0.975009   -2.177014
    121          1           0       10.141967   -0.136789   -1.759517
    122          1           0       10.085033    0.860370    0.276107
    123          1           0        9.714009    2.358914   -0.440565
    124          1           0       11.519403    2.827640    0.761502
    125          1           0       12.863626    2.586810   -1.890472
    126          1           0       13.018588    3.798406   -0.667391
    127          1           0       11.440500    3.674517   -1.573186
    128          1           0       13.678617    1.547081   -0.261005
    129          1           0       12.517193    0.214966   -0.035470
    130          1           0       12.798948    2.247526    2.336599
    131          1           0       14.279117    1.795677    1.806729
    132          1           0       14.104271   -0.310658    2.243269
    133          1           0       12.367369   -0.552199    2.250475
    134          1           0       12.740825    1.239141    4.306053
    135          1           0       15.313461    0.461756    4.071503
    136          1           0       14.656673   -1.045085    4.766961
    137          1           0       14.681763    0.469775    5.680465
    138          1           0       11.365924   -1.109468    3.866622
    139          1           0       11.351563   -0.108488    5.322862
    140          1           0       12.474242   -1.540214    5.222319
 ---------------------------------------------------------------------

 SCF Done:  E(RwB97XD) =  -3007.86394563     A.U. after   19 cycles

 Excitation energies and oscillator strengths:

 Excited State   1:      Singlet-A      1.7586 eV  705.02 nm  f=0.3912  <S**2>=0.000
     245 -> 248        0.14633
     246 -> 247        0.68913
 This state for optimization and/or second-order correction.
 Total Energy, E(TD-HF/TD-DFT) =  -3007.79931820
 Copying the excited state density for this state as the 1-particle RhoCI density.

 Excited State   2:      Singlet-A      2.1812 eV  568.43 nm  f=0.1574  <S**2>=0.000
     245 -> 247        0.65469
     246 -> 248       -0.23194

 Excited State   3:      Singlet-A      3.4305 eV  361.42 nm  f=0.0004  <S**2>=0.000
     240 -> 247        0.56187
     240 -> 248       -0.18501
     240 -> 249        0.28500
     240 -> 250        0.13262

 Excited State   4:      Singlet-A      3.4632 eV  358.01 nm  f=0.0250  <S**2>=0.000
     239 -> 247       -0.19580
     240 -> 247       -0.14431
     241 -> 247        0.24627
     242 -> 247       -0.37255
     244 -> 247        0.43891
     246 -> 248       -0.15734

 Excited State   5:      Singlet-A      3.5824 eV  346.10 nm  f=0.0471  <S**2>=0.000
     239 -> 247        0.21858
     241 -> 247       -0.13256
     242 -> 247        0.19556
     243 -> 247        0.14143
     244 -> 247        0.48083
     246 -> 248        0.32366

 The electronic state is 1-A.
 Alpha  occ. eigenvalues --  -46.94533 -19.29848 -19.28796 -19.25445 -19.24126
 Alpha  occ. eigenvalues --  -19.24042 -19.22603 -14.46590 -14.46491 -14.44894
 Alpha  occ. eigenvalues --  -14.42541 -10.43942 -10.42647 -10.39144 -10.38047
 Alpha  occ. eigenvalues --  -10.36964 -10.36038 -10.35736 -10.35571 -10.34827
 Alpha  occ. eigenvalues --  -10.34581 -10.34238 -10.33815 -10.33430 -10.32470
 Alpha  occ. eigenvalues --  -10.32338 -10.32259 -10.32230 -10.32061 -10.31789
 Alpha  occ. eigenvalues --  -10.31788 -10.31751 -10.31727 -10.31365 -10.31216
 Alpha  occ. eigenvalues --  -10.30966 -10.30750 -10.30729 -10.30599 -10.30583
 Alpha  occ. eigenvalues --  -10.30404 -10.30229 -10.30158 -10.30093 -10.30080
 Alpha  occ. eigenvalues --  -10.29991 -10.29880 -10.29591 -10.29536 -10.29386
 Alpha  occ. eigenvalues --  -10.29283 -10.29074 -10.28926 -10.28834 -10.28478
 Alpha  occ. eigenvalues --  -10.28395 -10.28363 -10.28308 -10.28298 -10.28191
 Alpha  occ. eigenvalues --  -10.28162 -10.28113 -10.28099 -10.27828 -10.27747
 Alpha  occ. eigenvalues --  -10.27451  -3.20557  -1.94166  -1.93672  -1.93543
 Alpha  occ. eigenvalues --   -1.17488  -1.17010  -1.13647  -1.10629  -1.08844
 Alpha  occ. eigenvalues --   -1.08467  -1.07056  -1.06071  -1.05256  -1.04108
 Alpha  occ. eigenvalues --   -0.95208  -0.93234  -0.92036  -0.91434  -0.91279
 Alpha  occ. eigenvalues --   -0.90789  -0.90473  -0.89941  -0.89719  -0.89293
 Alpha  occ. eigenvalues --   -0.87794  -0.87462  -0.86320  -0.85799  -0.85483
 Alpha  occ. eigenvalues --   -0.84784  -0.84100  -0.83200  -0.82732  -0.82460
 Alpha  occ. eigenvalues --   -0.81782  -0.80960  -0.79935  -0.79529  -0.77765
 Alpha  occ. eigenvalues --   -0.77530  -0.77304  -0.77254  -0.76380  -0.76069
 Alpha  occ. eigenvalues --   -0.75607  -0.75073  -0.73657  -0.73101  -0.71459
 Alpha  occ. eigenvalues --   -0.70847  -0.70568  -0.69695  -0.68919  -0.68514
 Alpha  occ. eigenvalues --   -0.67449  -0.67229  -0.66931  -0.66207  -0.66040
 Alpha  occ. eigenvalues --   -0.65129  -0.64976  -0.63806  -0.62623  -0.62431
 Alpha  occ. eigenvalues --   -0.61505  -0.61432  -0.61233  -0.60710  -0.60095
 Alpha  occ. eigenvalues --   -0.59516  -0.58959  -0.58247  -0.57595  -0.57344
 Alpha  occ. eigenvalues --   -0.57075  -0.56982  -0.56239  -0.56186  -0.55998
 Alpha  occ. eigenvalues --   -0.55718  -0.55493  -0.55423  -0.55350  -0.55005
 Alpha  occ. eigenvalues --   -0.54777  -0.54538  -0.53995  -0.53813  -0.53453
 Alpha  occ. eigenvalues --   -0.53342  -0.53288  -0.53028  -0.52862  -0.52544
 Alpha  occ. eigenvalues --   -0.52325  -0.52169  -0.52030  -0.51734  -0.51532
 Alpha  occ. eigenvalues --   -0.51313  -0.50997  -0.50827  -0.50754  -0.50423
 Alpha  occ. eigenvalues --   -0.50332  -0.50288  -0.50020  -0.49751  -0.49627
 Alpha  occ. eigenvalues --   -0.49474  -0.49257  -0.48886  -0.48743  -0.48540
 Alpha  occ. eigenvalues --   -0.48345  -0.47954  -0.47888  -0.47826  -0.47679
 Alpha  occ. eigenvalues --   -0.47453  -0.47216  -0.47189  -0.46992  -0.46727
 Alpha  occ. eigenvalues --   -0.46582  -0.46516  -0.46370  -0.45969  -0.45791
 Alpha  occ. eigenvalues --   -0.45542  -0.45487  -0.45222  -0.45085  -0.44984
 Alpha  occ. eigenvalues --   -0.44815  -0.44729  -0.44612  -0.44346  -0.44269
 Alpha  occ. eigenvalues --   -0.44151  -0.43924  -0.43711  -0.43169  -0.43091
 Alpha  occ. eigenvalues --   -0.42765  -0.42745  -0.42351  -0.42335  -0.42041
 Alpha  occ. eigenvalues --   -0.41689  -0.41457  -0.41444  -0.40801  -0.40436
 Alpha  occ. eigenvalues --   -0.40242  -0.39755  -0.39492  -0.39163  -0.38813
 Alpha  occ. eigenvalues --   -0.38719  -0.38646  -0.38418  -0.38171  -0.37875
 Alpha  occ. eigenvalues --   -0.37688  -0.37077  -0.36584  -0.36401  -0.36334
 Alpha  occ. eigenvalues --   -0.35662  -0.35134  -0.34783  -0.34397  -0.33204
 Alpha  occ. eigenvalues --   -0.32844  -0.32780  -0.31651  -0.31182  -0.26144
 Alpha  occ. eigenvalues --   -0.23335
 Alpha virt. eigenvalues --   -0.07221   0.00737   0.02851   0.04757   0.05427
 Alpha virt. eigenvalues --    0.05975   0.06514   0.07747   0.08299   0.09655
 Alpha virt. eigenvalues --    0.10504   0.11521   0.11733   0.12228   0.12533

 Mulliken charges:
               1
     1  Mg   0.956320
     2  C    0.002274
     3  C   -0.095096
     4  C   -0.069884
     5  C   -0.103973
     6  N   -0.376482
     7  C    0.019295
     8  C   -0.090879
     9  C   -0.109144
    10  C    0.089255
    11  C    0.029655
    12  C    0.039888
    13  C   -0.001676
    14  C    0.243929
    15  O   -0.274846
    16  O   -0.384399
    17  N   -0.451229
    18  C    0.158347
    19  C   -0.170496
    20  C   -0.024250
    21  C    0.187899
    22  C    0.075302
    23  C   -0.006255
    24  O   -0.217057
    25  C    0.005943
    26  N   -0.385337
    27  C    0.030446
    28  C   -0.110370
    29  C   -0.058722
    30  C    0.063506
    31  C    0.043685
    32  C   -0.027535
    33  C   -0.041677
    34  N   -0.380255
    35  C    0.124175
    36  C   -0.215160
    37  C   -0.072742
    38  C    0.078209
    39  C    0.096981
    40  C    0.120948
    41  O   -0.212252
    42  C   -0.066003
    43  C    0.282229
    44  O   -0.251343
    45  O   -0.363776
    46  C    0.134520
    47  C    0.254947
    48  C   -0.124198
    49  C   -0.166802
    50  C    0.011736
    51  C    0.043183
    52  C   -0.083081
    53  C    0.077995
    54  C   -0.172911
    55  C    0.013372
    56  C   -0.016723
    57  C    0.020913
    58  C   -0.031992
    59  C   -0.223298
    60  C    0.001610
    61  C    0.060842
    62  C   -0.003135
    63  C   -0.033113
    64  C   -0.209028
    65  C    0.009565
    66  C   -0.011014
    67  H   -0.010096
    68  H    0.023060
    69  H    0.000490
    70  H    0.047122
    71  H    0.032178
    72  H    0.030005
    73  H    0.055929
    74  H    0.045882
    75  H    0.031428
    76  H    0.049314
    77  H    0.062216
    78  H    0.058984
    79  H    0.033990
    80  H    0.069227
    81  H    0.037242
    82  H    0.038326
    83  H    0.060410
    84  H    0.053535
    85  H    0.045855
    86  H    0.026475
    87  H    0.052352
    88  H    0.029301
    89  H    0.055263
    90  H    0.027390
    91  H    0.020871
    92  H    0.045985
    93  H    0.034665
    94  H    0.042702
    95  H    0.066327
    96  H    0.037530
    97  H    0.039809
    98  H    0.083350
    99  H    0.049844
   100  H    0.050841
   101  H    0.051401
   102  H    0.062126
   103  H    0.032175
   104  H    0.023558
   105  H    0.033992
   106  H    0.048082
   107  H    0.039152
   108  H    0.011667
   109  H    0.032200
   110  H    0.033053
   111  H    0.020357
   112  H    0.015618
   113  H   -0.007863
   114  H    0.019468
   115  H    0.026227
   116  H    0.025820
   117  H    0.017039
   118  H    0.013668
   119  H    0.011485
   120  H    0.017423
   121  H    0.020946
   122  H    0.006838
   123  H    0.008620
   124  H    0.013099
   125  H    0.025529
   126  H    0.028823
   127  H    0.027744
   128  H   -0.000820
   129  H    0.028098
   130  H    0.010284
   131  H    0.007931
   132  H    0.013717
   133  H    0.013209
   134  H    0.016753
   135  H    0.029504
   136  H    0.028110
   137  H    0.030004
   138  H    0.030006
   139  H    0.035887
   140  H    0.030434
 Sum of Mulliken charges =  -0.00000

 Dipole moment (field-independent basis, Debye):
    X=              2.1672    Y=              6.4404    Z=             -3.5289  Tot=              7.6569
 Quadrupole moment (field-independent basis, Debye-Ang):
   XX=           -363.1912   YY=           -425.1906   ZZ=           -404.9316
   XY=            -12.8878   XZ=             13.5054   YZ=              7.7848

 Normal termination of Gaussian 16 at Wed Apr 27 01:44:06 2022.
