 Gaussian 16, Revision A.03,
 Gaussian 16:  ES64L-G16RevA.03 25-Dec-2016

 --------------------
 #p ZINDO=(nstates=5)
 --------------------

 ----------------------------
 step_101_chromophore_3 ZINDO
 ----------------------------
 Symbolic Z-matrix:
 Charge =  0 Multiplicity = 1

                         Standard orientation:
 ---------------------------------------------------------------------
 Center     Atomic      Atomic             Coordinates (Angstroms)
 Number     Number       Type             X           Y           Z
 ---------------------------------------------------------------------
      1         12           0       -5.413918    0.522823    0.138125
      2          6           0       -3.762191   -2.529459    0.185595
      3          6           0       -2.276124    2.067275    0.090107
      4          6           0       -6.932870    3.424923    0.679810
      5          6           0       -8.399092   -1.145055    0.158054
      6          7           0       -3.333379   -0.067389    0.027736
      7          6           0       -2.933285   -1.433234   -0.059673
      8          6           0       -1.466271   -1.465453   -0.481267
      9          6           0       -0.891978   -0.015985   -0.130657
     10          6           0       -2.264096    0.745787   -0.009691
     11          6           0       -0.004069    0.191695    1.100107
     12          6           0       -1.281867   -2.002642   -1.931361
     13          6           0       -0.102101   -3.075805   -2.059150
     14          6           0        1.220659   -2.684565   -1.513656
     15          8           0        1.812496   -3.041970   -0.475168
     16          8           0        1.686696   -1.636687   -2.280781
     17          7           0       -4.715513    2.537399    0.216009
     18          6           0       -3.376018    2.966577    0.179048
     19          6           0       -3.403759    4.412556    0.431309
     20          6           0       -4.717412    4.856390    0.525313
     21          6           0       -5.549306    3.580422    0.456679
     22          6           0       -2.110358    5.201835    0.550835
     23          6           0       -5.230442    6.222221    0.671158
     24          8           0       -6.390719    6.436063    0.932965
     25          6           0       -4.338737    7.446040    0.595067
     26          7           0       -7.357482    1.035815    0.615221
     27          6           0       -7.784935    2.300799    0.654044
     28          6           0       -9.331519    2.396736    0.507130
     29          6           0       -9.714514    0.952899    0.100671
     30          6           0       -8.416135    0.210445    0.280304
     31          6           0       -9.949386    2.840187    1.810196
     32          6           0      -10.367112    0.756807   -1.330779
     33          6           0      -11.491229    1.713200   -1.734540
     34          7           0       -5.992574   -1.473853    0.268187
     35          6           0       -7.249770   -1.991016    0.253316
     36          6           0       -7.217191   -3.394371    0.335480
     37          6           0       -5.826815   -3.688557    0.360717
     38          6           0       -5.183510   -2.468358    0.376606
     39          6           0       -8.396919   -4.365346    0.460779
     40          6           0       -4.729649   -4.673772    0.514126
     41          8           0       -4.747271   -5.900030    0.557273
     42          6           0       -3.414066   -3.922405    0.271756
     43          6           0       -2.426517   -4.284215    1.328670
     44          8           0       -2.067535   -3.657303    2.324422
     45          8           0       -1.788966   -5.438785    0.925763
     46          6           0       -0.618113   -5.921960    1.631138
     47          6           0        2.740432   -0.733606   -1.710684
     48          6           0        4.047961   -1.163630   -2.386030
     49          6           0        5.095586   -1.828274   -1.847463
     50          6           0        5.133408   -2.340498   -0.368724
     51          6           0        6.454950   -2.079336   -2.523640
     52          6           0        7.626756   -1.194664   -2.080419
     53          6           0        7.353201    0.315046   -2.215092
     54          6           0        8.157271    0.941430   -3.235558
     55          6           0        7.396987    1.944859   -4.143536
     56          6           0        9.354097    1.753052   -2.684153
     57          6           0       10.377915    0.922337   -1.864553
     58          6           0       10.421316    1.532567   -0.513403
     59          6           0       11.766167    2.183439   -0.081463
     60          6           0       12.292186    3.143760   -1.147457
     61          6           0       12.843192    1.185222    0.337854
     62          6           0       13.254007    1.425963    1.782116
     63          6           0       13.157705    0.136414    2.547238
     64          6           0       13.136148    0.240108    4.124865
     65          6           0       14.526721    0.035285    4.692751
     66          6           0       11.979151   -0.731423    4.685353
     67          1           0       -1.316259    2.586809    0.126845
     68          1           0       -7.542188    4.258052    1.039028
     69          1           0       -9.405365   -1.568747    0.132698
     70          1           0       -0.907602   -2.099643    0.207825
     71          1           0       -0.434189    0.436419   -1.010725
     72          1           0        1.039118    0.311533    0.810148
     73          1           0       -0.013992   -0.719924    1.698588
     74          1           0       -0.302035    0.975102    1.796969
     75          1           0       -0.979794   -1.110741   -2.480714
     76          1           0       -2.218967   -2.275064   -2.414885
     77          1           0       -0.152063   -3.262548   -3.132334
     78          1           0       -0.353015   -4.044943   -1.628605
     79          1           0       -2.151429    5.851823    1.425018
     80          1           0       -1.833461    5.805838   -0.312324
     81          1           0       -1.310986    4.541656    0.889683
     82          1           0       -4.897532    8.356031    0.810036
     83          1           0       -3.996592    7.636643   -0.422090
     84          1           0       -3.655385    7.396978    1.443864
     85          1           0       -9.459156    3.115918   -0.302423
     86          1           0      -10.443725    0.530656    0.791212
     87          1           0       -9.351606    2.512573    2.661424
     88          1           0      -10.907588    2.330180    1.910875
     89          1           0      -10.124826    3.912846    1.732471
     90          1           0      -10.638779   -0.296295   -1.402075
     91          1           0       -9.588198    0.842079   -2.088308
     92          1           0      -11.723394    2.557328   -1.085029
     93          1           0      -12.374647    1.074816   -1.750762
     94          1           0      -11.295658    2.030441   -2.757990
     95          1           0       -7.997625   -5.366654    0.621041
     96          1           0       -8.996183   -4.258091   -0.443442
     97          1           0       -9.033855   -4.020606    1.275143
     98          1           0       -3.071840   -4.296402   -0.693559
     99          1           0        0.365937   -5.583717    1.306137
    100          1           0       -0.592924   -7.004076    1.505852
    101          1           0       -0.585175   -5.651920    2.686978
    102          1           0        2.724471   -0.621387   -0.626857
    103          1           0        2.519554    0.246527   -2.133765
    104          1           0        4.298441   -0.614409   -3.292984
    105          1           0        5.229814   -3.419729   -0.480866
    106          1           0        4.240404   -2.204504    0.241260
    107          1           0        6.000515   -2.036280    0.217440
    108          1           0        6.344271   -1.894396   -3.592051
    109          1           0        6.769156   -3.120693   -2.450929
    110          1           0        8.478703   -1.516565   -2.678959
    111          1           0        7.929377   -1.451427   -1.065297
    112          1           0        7.453185    0.756756   -1.223181
    113          1           0        6.289204    0.412152   -2.430335
    114          1           0        8.521681    0.187672   -3.932158
    115          1           0        7.532030    1.573442   -5.159938
    116          1           0        7.833631    2.936385   -4.023212
    117          1           0        6.316018    1.981577   -4.007421
    118          1           0        8.966816    2.633835   -2.172568
    119          1           0        9.920124    2.328138   -3.416420
    120          1           0       11.421784    0.975009   -2.177014
    121          1           0       10.141967   -0.136789   -1.759517
    122          1           0       10.085033    0.860370    0.276107
    123          1           0        9.714009    2.358914   -0.440565
    124          1           0       11.519403    2.827640    0.761502
    125          1           0       12.863626    2.586810   -1.890472
    126          1           0       13.018588    3.798406   -0.667391
    127          1           0       11.440500    3.674517   -1.573186
    128          1           0       13.678617    1.547081   -0.261005
    129          1           0       12.517193    0.214966   -0.035470
    130          1           0       12.798948    2.247526    2.336599
    131          1           0       14.279117    1.795677    1.806729
    132          1           0       14.104271   -0.310658    2.243269
    133          1           0       12.367369   -0.552199    2.250475
    134          1           0       12.740825    1.239141    4.306053
    135          1           0       15.313461    0.461756    4.071503
    136          1           0       14.656673   -1.045085    4.766961
    137          1           0       14.681763    0.469775    5.680465
    138          1           0       11.365924   -1.109468    3.866622
    139          1           0       11.351563   -0.108488    5.322862
    140          1           0       12.474242   -1.540214    5.222319
 ---------------------------------------------------------------------

 SCF Done:  E(RZINDO/S) =  -474.608000865     A.U. after   19 cycles

 Excitation energies and oscillator strengths:

 Excited State   1:      Singlet-A      1.3886 eV  892.90 nm  f=0.5066  <S**2>=0.000
     175 ->178         0.10540
     176 ->177         0.68052
 This state for optimization and/or second-order correction.
 Total Energy, E(CIS/TDA) =  -474.556972497
 Copying the excited state density for this state as the 1-particle RhoCI density.

 Excited State   2:      Singlet-A      1.9726 eV  628.53 nm  f=0.1202  <S**2>=0.000
     175 ->177         0.58877
     176 ->178        -0.30228
     176 ->179         0.14804

 Excited State   3:      Singlet-A      2.8156 eV  440.34 nm  f=0.0001  <S**2>=0.000
     167 ->177         0.25858
     167 ->178        -0.20148
     167 ->179        -0.26715
     167 ->181         0.12544
     167 ->186        -0.15081
     168 ->177         0.26276
     168 ->178        -0.19234
     168 ->179        -0.25177
     168 ->181         0.11622
     168 ->186        -0.14292

 Excited State   4:      Singlet-A      3.0436 eV  407.36 nm  f=0.7523  <S**2>=0.000
     169 ->177         0.12756
     173 ->177         0.10957
     175 ->177         0.29934
     176 ->178         0.57868

 Excited State   5:      Singlet-A      3.0755 eV  403.14 nm  f=0.0162  <S**2>=0.000
     171 ->177         0.24234
     171 ->179         0.25531
     171 ->181         0.44296
     171 ->183         0.12642
     171 ->186         0.20913
     171 ->188         0.19921
     171 ->203        -0.11887

 The electronic state is 1-A.
 Alpha  occ. eigenvalues --   -1.86906  -1.82079  -1.80152  -1.72576  -1.71254
 Alpha  occ. eigenvalues --   -1.70103  -1.69599  -1.63393  -1.62078  -1.58548
 Alpha  occ. eigenvalues --   -1.55865  -1.50349  -1.47970  -1.47457  -1.45563
 Alpha  occ. eigenvalues --   -1.43611  -1.42572  -1.40574  -1.39737  -1.38986
 Alpha  occ. eigenvalues --   -1.36969  -1.34210  -1.32085  -1.31101  -1.29935
 Alpha  occ. eigenvalues --   -1.28018  -1.24721  -1.22487  -1.21052  -1.18840
 Alpha  occ. eigenvalues --   -1.17200  -1.16133  -1.15505  -1.14038  -1.13889
 Alpha  occ. eigenvalues --   -1.12499  -1.12282  -1.09306  -1.05637  -1.05126
 Alpha  occ. eigenvalues --   -1.03535  -1.01735  -1.00575  -0.99605  -0.97972
 Alpha  occ. eigenvalues --   -0.95883  -0.95186  -0.94944  -0.93001  -0.91964
 Alpha  occ. eigenvalues --   -0.91720  -0.90879  -0.89509  -0.87843  -0.86238
 Alpha  occ. eigenvalues --   -0.83853  -0.83506  -0.82482  -0.81946  -0.80775
 Alpha  occ. eigenvalues --   -0.80516  -0.78833  -0.78770  -0.77116  -0.76957
 Alpha  occ. eigenvalues --   -0.75738  -0.75234  -0.75038  -0.74754  -0.73162
 Alpha  occ. eigenvalues --   -0.72679  -0.72278  -0.71638  -0.71252  -0.70902
 Alpha  occ. eigenvalues --   -0.70217  -0.69221  -0.68915  -0.68511  -0.67828
 Alpha  occ. eigenvalues --   -0.67776  -0.67098  -0.66891  -0.65985  -0.65515
 Alpha  occ. eigenvalues --   -0.65006  -0.64680  -0.64240  -0.63892  -0.63359
 Alpha  occ. eigenvalues --   -0.63231  -0.62915  -0.62273  -0.62188  -0.61691
 Alpha  occ. eigenvalues --   -0.61336  -0.60927  -0.60838  -0.60274  -0.59530
 Alpha  occ. eigenvalues --   -0.58971  -0.58724  -0.58523  -0.58256  -0.57935
 Alpha  occ. eigenvalues --   -0.57677  -0.57178  -0.56953  -0.56544  -0.56065
 Alpha  occ. eigenvalues --   -0.55934  -0.55735  -0.55262  -0.55048  -0.54430
 Alpha  occ. eigenvalues --   -0.53987  -0.53839  -0.53554  -0.53081  -0.52835
 Alpha  occ. eigenvalues --   -0.52594  -0.52300  -0.52157  -0.52103  -0.51823
 Alpha  occ. eigenvalues --   -0.51700  -0.50989  -0.50576  -0.50285  -0.50150
 Alpha  occ. eigenvalues --   -0.49710  -0.49602  -0.49305  -0.49087  -0.48894
 Alpha  occ. eigenvalues --   -0.48329  -0.48087  -0.47919  -0.47862  -0.47586
 Alpha  occ. eigenvalues --   -0.47333  -0.46986  -0.46461  -0.46376  -0.46030
 Alpha  occ. eigenvalues --   -0.46006  -0.45574  -0.45414  -0.45334  -0.44787
 Alpha  occ. eigenvalues --   -0.44716  -0.44036  -0.43961  -0.43874  -0.43687
 Alpha  occ. eigenvalues --   -0.43391  -0.42634  -0.41970  -0.41828  -0.41787
 Alpha  occ. eigenvalues --   -0.41524  -0.40275  -0.39483  -0.39476  -0.38564
 Alpha  occ. eigenvalues --   -0.37720  -0.36773  -0.36328  -0.35262  -0.34428
 Alpha  occ. eigenvalues --   -0.33400  -0.32756  -0.32328  -0.30937  -0.26869
 Alpha  occ. eigenvalues --   -0.22301
 Alpha virt. eigenvalues --   -0.08519  -0.01548  -0.00477   0.00850   0.01623
 Alpha virt. eigenvalues --    0.02921   0.03392   0.03460   0.04205   0.04879
 Alpha virt. eigenvalues --    0.05838   0.06653   0.06934   0.07909   0.08304

 Mulliken charges:
               1
     1  Mg   0.424995
     2  C   -0.025925
     3  C   -0.081915
     4  C   -0.079429
     5  C   -0.060129
     6  N   -0.298774
     7  C    0.070763
     8  C    0.004162
     9  C    0.000139
    10  C    0.193561
    11  C   -0.044375
    12  C   -0.018134
    13  C    0.010179
    14  C    0.481373
    15  O   -0.517242
    16  O   -0.282084
    17  N   -0.340263
    18  C    0.140364
    19  C    0.042688
    20  C   -0.018771
    21  C    0.167863
    22  C   -0.048037
    23  C    0.335253
    24  O   -0.509416
    25  C   -0.035441
    26  N   -0.266304
    27  C    0.191511
    28  C    0.012158
    29  C   -0.001510
    30  C    0.073226
    31  C   -0.043223
    32  C   -0.030309
    33  C   -0.057944
    34  N   -0.303049
    35  C    0.053039
    36  C   -0.012701
    37  C   -0.085525
    38  C    0.101043
    39  C   -0.042731
    40  C    0.326506
    41  O   -0.539668
    42  C    0.074753
    43  C    0.491785
    44  O   -0.526571
    45  O   -0.267859
    46  C    0.074546
    47  C    0.108167
    48  C   -0.093486
    49  C    0.014919
    50  C   -0.052804
    51  C   -0.015149
    52  C   -0.029716
    53  C   -0.017934
    54  C    0.002669
    55  C   -0.067151
    56  C   -0.032770
    57  C   -0.037264
    58  C   -0.034892
    59  C   -0.020629
    60  C   -0.056514
    61  C   -0.035049
    62  C   -0.024067
    63  C   -0.042358
    64  C   -0.023116
    65  C   -0.046940
    66  C   -0.065389
    67  H    0.018481
    68  H    0.038506
    69  H    0.025762
    70  H    0.035279
    71  H    0.026137
    72  H    0.019991
    73  H    0.029562
    74  H    0.027570
    75  H    0.017611
    76  H    0.038410
    77  H    0.037513
    78  H    0.036533
    79  H    0.024161
    80  H    0.042281
    81  H    0.026200
    82  H    0.028994
    83  H    0.043589
    84  H    0.044141
    85  H    0.034753
    86  H    0.027430
    87  H    0.032796
    88  H    0.017709
    89  H    0.026853
    90  H    0.023050
    91  H    0.014073
    92  H    0.028255
    93  H    0.014220
    94  H    0.020942
    95  H    0.037771
    96  H    0.024528
    97  H    0.025535
    98  H    0.059310
    99  H    0.037986
   100  H    0.030971
   101  H    0.045819
   102  H    0.061451
   103  H    0.023870
   104  H    0.027376
   105  H    0.022650
   106  H    0.032461
   107  H    0.028426
   108  H    0.010972
   109  H    0.022556
   110  H    0.015532
   111  H    0.015333
   112  H    0.016454
   113  H    0.016600
   114  H    0.020087
   115  H    0.012943
   116  H    0.022950
   117  H    0.017289
   118  H    0.022222
   119  H    0.009927
   120  H    0.024578
   121  H    0.021607
   122  H    0.006648
   123  H    0.007088
   124  H    0.009833
   125  H    0.019291
   126  H    0.013962
   127  H    0.018997
   128  H    0.013411
   129  H    0.035037
   130  H    0.022238
   131  H    0.010056
   132  H    0.010236
   133  H    0.024501
   134  H    0.016359
   135  H    0.018621
   136  H    0.019382
   137  H    0.014153
   138  H    0.024893
   139  H    0.019704
   140  H    0.024477
 Sum of Mulliken charges =  -0.00000

 Dipole moment (field-independent basis, Debye):
    X=              4.1935    Y=             11.7484    Z=             -5.4452  Tot=             13.6111
 N-N= 4.345993149528D+03 E-N= 0.000000000000D+00  KE=-9.366903191573D+03
 Leave Link  601 at Wed Apr 27 01:58:39 2022, MaxMem=  6710886400 cpu:               0.8 elap:               0.0
 (Enter /sw/apps/gaussian-16.0/g16/l9999.exe)
 1\1\GINC-BP1-COMPUTE134\SP\RZINDO CIS\STO-3G\C55H74Mg1N4O6\OF15641\27-
 Apr-2022\0\\#p ZINDO=(nstates=5)\\step_101_chromophore_3 ZINDO\\0,1\Mg
 ,0,0.516,7.55,26.269\C,0,1.582,9.408,29.\C,0,0.853,4.69,28.254\C,0,0.0
 72,5.712,23.54\C,0,0.213,10.446,24.476\N,0,1.007,7.067,28.322\C,0,1.30
 4,8.071,29.29\C,0,1.242,7.423,30.671\C,0,1.398,5.854,30.411\C,0,1.041,
 5.844,28.878\C,0,2.725,5.146,30.701\C,0,0.019,7.917,31.499\C,0,0.392,8
 .292,33.009\C,0,1.127,7.268,33.791\O,0,2.324,7.211,34.138\O,0,0.281,6.

 Normal termination of Gaussian 16 at Wed Apr 27 01:58:40 2022.
