 Gaussian 16, Revision A.03,
 Gaussian 16:  ES64L-G16RevA.03 25-Dec-2016

 ------------------------------
 #p blyp/Def2SVP td=(nstates=5)
 ------------------------------

 --------------------------------------------------
 step_401_chromophore_15 TDDFT with blyp functional
 --------------------------------------------------
 Symbolic Z-matrix:
 Charge =  0 Multiplicity = 1

                         Standard orientation:
 ---------------------------------------------------------------------
 Center     Atomic      Atomic             Coordinates (Angstroms)
 Number     Number       Type             X           Y           Z
 ---------------------------------------------------------------------
      1         12           0       -4.715947    0.904780    0.216112
      2          6           0       -4.265396   -2.538964    0.651426
      3          6           0       -1.318610    1.334090    0.189429
      4          6           0       -5.143992    4.332658    0.137130
      5          6           0       -8.185966    0.468105    0.406018
      6          7           0       -3.006981   -0.502456    0.303267
      7          6           0       -3.057505   -1.872161    0.399301
      8          6           0       -1.653219   -2.482962    0.071563
      9          6           0       -0.738283   -1.222040    0.264298
     10          6           0       -1.732920   -0.052256    0.222123
     11          6           0        0.032408   -1.231680    1.627694
     12          6           0       -1.656873   -2.980202   -1.457498
     13          6           0       -0.634178   -4.030997   -1.919450
     14          6           0        0.638836   -4.145389   -1.041787
     15          8           0        0.686079   -4.615976    0.076869
     16          8           0        1.697805   -3.713756   -1.704136
     17          7           0       -3.390919    2.594752   -0.022061
     18          6           0       -2.012576    2.574930    0.083912
     19          6           0       -1.442561    3.886661   -0.090896
     20          6           0       -2.587866    4.785948   -0.112107
     21          6           0       -3.771248    3.918020   -0.013807
     22          6           0        0.025155    4.178976   -0.181992
     23          6           0       -2.692525    6.333428   -0.303286
     24          8           0       -3.785035    6.865065   -0.424933
     25          6           0       -1.392510    7.169547   -0.296602
     26          7           0       -6.388308    2.157758    0.308878
     27          6           0       -6.246725    3.484521    0.318045
     28          6           0       -7.669751    4.176026    0.442695
     29          6           0       -8.657890    2.947944    0.395853
     30          6           0       -7.722243    1.748314    0.313607
     31          6           0       -7.846156    5.230116    1.546749
     32          6           0       -9.753649    2.932177   -0.726941
     33          6           0      -11.236369    2.891148   -0.331145
     34          7           0       -6.029090   -0.678776    0.498785
     35          6           0       -7.403381   -0.693098    0.460101
     36          6           0       -7.890583   -2.045758    0.621949
     37          6           0       -6.686402   -2.884274    0.676604
     38          6           0       -5.586299   -1.978475    0.628498
     39          6           0       -9.358142   -2.524810    0.551610
     40          6           0       -6.114699   -4.202239    0.687886
     41          8           0       -6.719734   -5.273200    0.722609
     42          6           0       -4.564013   -4.024335    1.070294
     43          6           0       -3.807116   -5.074148    0.332286
     44          8           0       -3.886326   -5.374978   -0.820046
     45          8           0       -2.905524   -5.613437    1.196829
     46          6           0       -2.116175   -6.773551    0.695316
     47          6           0        3.034470   -4.081535   -1.215926
     48          6           0        4.063560   -3.130875   -1.795200
     49          6           0        5.277811   -2.823884   -1.194450
     50          6           0        5.830432   -3.501831   -0.015488
     51          6           0        6.242818   -1.949803   -1.997923
     52          6           0        6.002366   -0.451167   -1.904171
     53          6           0        6.254337    0.339157   -3.191775
     54          6           0        7.464085    1.329453   -3.153094
     55          6           0        7.321117    2.457844   -4.216506
     56          6           0        8.870308    0.705891   -3.117197
     57          6           0        9.298339    0.340066   -1.695280
     58          6           0       10.732806    0.871217   -1.371525
     59          6           0       10.651016    2.074055   -0.352634
     60          6           0       10.809633    3.392841   -1.178505
     61          6           0       11.692345    1.793126    0.714816
     62          6           0       11.086218    0.877548    1.833274
     63          6           0       12.181205    0.276092    2.766249
     64          6           0       12.140726    0.898784    4.253227
     65          6           0       13.396176    0.697177    5.070169
     66          6           0       10.935006    0.302716    5.005726
     67          1           0       -0.233321    1.450822    0.168666
     68          1           0       -5.380435    5.382897    0.322480
     69          1           0       -9.274976    0.394174    0.432882
     70          1           0       -1.411503   -3.339457    0.700422
     71          1           0        0.022598   -1.185107   -0.515037
     72          1           0        0.137034   -2.255264    1.987641
     73          1           0       -0.425268   -0.710149    2.468238
     74          1           0        1.079871   -0.937719    1.702602
     75          1           0       -1.789404   -2.170747   -2.176084
     76          1           0       -2.654369   -3.409458   -1.543108
     77          1           0       -0.368613   -3.642182   -2.901896
     78          1           0       -1.118572   -4.997227   -2.064652
     79          1           0        0.398923    4.695403    0.702060
     80          1           0        0.069610    4.658397   -1.159657
     81          1           0        0.522937    3.223820   -0.349010
     82          1           0       -0.680208    6.605692   -0.897982
     83          1           0       -0.979972    7.199154    0.712638
     84          1           0       -1.624093    8.184581   -0.619255
     85          1           0       -7.773765    4.744686   -0.481534
     86          1           0       -9.149591    2.749962    1.347257
     87          1           0       -8.098231    6.169181    1.053668
     88          1           0       -6.934964    5.388635    2.123239
     89          1           0       -8.640873    4.988970    2.253403
     90          1           0       -9.612967    2.188146   -1.510501
     91          1           0       -9.651887    3.840826   -1.320253
     92          1           0      -11.715282    3.765430   -0.770186
     93          1           0      -11.341021    2.862361    0.753947
     94          1           0      -11.815014    2.018243   -0.631271
     95          1           0      -10.070673   -1.829319    0.108495
     96          1           0       -9.769060   -2.775901    1.529367
     97          1           0       -9.289743   -3.435699   -0.042503
     98          1           0       -4.540822   -4.095326    2.158193
     99          1           0       -2.606687   -7.284440   -0.132914
    100          1           0       -1.725228   -7.435685    1.468340
    101          1           0       -1.106402   -6.507998    0.380363
    102          1           0        3.300372   -5.076712   -1.570953
    103          1           0        3.059154   -3.968106   -0.131447
    104          1           0        3.734015   -2.562816   -2.665580
    105          1           0        5.247025   -4.338570    0.369454
    106          1           0        5.896263   -2.750486    0.771741
    107          1           0        6.865541   -3.776856   -0.214618
    108          1           0        6.235880   -2.371501   -3.003348
    109          1           0        7.272097   -2.032815   -1.648091
    110          1           0        6.536698   -0.126733   -1.011265
    111          1           0        4.959173   -0.273348   -1.644159
    112          1           0        5.392948    0.980672   -3.378959
    113          1           0        6.392689   -0.267374   -4.086108
    114          1           0        7.419088    1.890805   -2.219407
    115          1           0        8.217547    2.474197   -4.836467
    116          1           0        7.254406    3.468502   -3.813025
    117          1           0        6.470356    2.200769   -4.847226
    118          1           0        9.499894    1.403639   -3.670517
    119          1           0        8.943800   -0.214532   -3.696882
    120          1           0        9.336558   -0.744858   -1.595426
    121          1           0        8.625509    0.666236   -0.901780
    122          1           0       11.201618    1.207541   -2.296278
    123          1           0       11.320945   -0.012415   -1.121384
    124          1           0        9.679229    2.220138    0.119659
    125          1           0       11.250804    4.137925   -0.515572
    126          1           0        9.843023    3.738970   -1.543005
    127          1           0       11.519613    3.312127   -2.001602
    128          1           0       12.025199    2.738334    1.145050
    129          1           0       12.585213    1.342042    0.280995
    130          1           0       10.494469    0.037567    1.470051
    131          1           0       10.384468    1.482661    2.407666
    132          1           0       13.175134    0.494054    2.377200
    133          1           0       11.984130   -0.788946    2.643546
    134          1           0       11.862341    1.951947    4.201847
    135          1           0       14.188722    0.335031    4.416211
    136          1           0       13.293076    0.069086    5.955878
    137          1           0       13.612943    1.696417    5.448170
    138          1           0       11.152299   -0.004066    6.028778
    139          1           0       10.479230   -0.526525    4.466169
    140          1           0       10.228728    1.129404    5.083687
 ---------------------------------------------------------------------

 SCF Done:  E(RB-LYP) =  -3007.39532041     A.U. after   21 cycles

 Excitation energies and oscillator strengths:

 Excited State   1:      Singlet-A      1.7456 eV  710.26 nm  f=0.0318  <S**2>=0.000
     244 -> 247       -0.47811
     245 -> 247        0.48217
     246 -> 247        0.15707
 This state for optimization and/or second-order correction.
 Total Energy, E(TD-HF/TD-DFT) =  -3007.33116984
 Copying the excited state density for this state as the 1-particle RhoCI density.

 Excited State   2:      Singlet-A      1.8007 eV  688.52 nm  f=0.3076  <S**2>=0.000
     244 -> 247        0.13023
     245 -> 248       -0.19120
     246 -> 247        0.67184
     246 <- 247       -0.14747

 Excited State   3:      Singlet-A      1.9965 eV  621.00 nm  f=0.0540  <S**2>=0.000
     243 -> 247       -0.25046
     244 -> 247        0.46933
     245 -> 247        0.41887
     246 -> 248        0.18279

 Excited State   4:      Singlet-A      2.0886 eV  593.63 nm  f=0.0131  <S**2>=0.000
     243 -> 247        0.65833
     244 -> 247        0.14634
     245 -> 247        0.17503
     246 -> 248        0.10101

 Excited State   5:      Singlet-A      2.3113 eV  536.43 nm  f=0.0000  <S**2>=0.000
     241 -> 247        0.70707

 The electronic state is 1-A.
 Alpha  occ. eigenvalues --  -46.26864 -18.83120 -18.81588 -18.77251 -18.76438
 Alpha  occ. eigenvalues --  -18.76137 -18.74944 -14.03538 -14.02743 -14.00915
 Alpha  occ. eigenvalues --  -14.00445 -10.04687 -10.03232 -10.00590  -9.98913
 Alpha  occ. eigenvalues --   -9.98881  -9.97181  -9.96772  -9.96545  -9.96129
 Alpha  occ. eigenvalues --   -9.95912  -9.95778  -9.95744  -9.95034  -9.94561
 Alpha  occ. eigenvalues --   -9.94323  -9.94295  -9.94248  -9.94034  -9.94020
 Alpha  occ. eigenvalues --   -9.93808  -9.93704  -9.93699  -9.93495  -9.93386
 Alpha  occ. eigenvalues --   -9.93312  -9.93266  -9.93113  -9.92914  -9.92594
 Alpha  occ. eigenvalues --   -9.92540  -9.92502  -9.92387  -9.92192  -9.92177
 Alpha  occ. eigenvalues --   -9.92164  -9.92133  -9.92124  -9.92000  -9.91817
 Alpha  occ. eigenvalues --   -9.91812  -9.91806  -9.91774  -9.91690  -9.91638
 Alpha  occ. eigenvalues --   -9.91629  -9.91507  -9.91340  -9.91155  -9.91138
 Alpha  occ. eigenvalues --   -9.91107  -9.91083  -9.91032  -9.90956  -9.90718
 Alpha  occ. eigenvalues --   -9.90562  -2.91406  -1.71857  -1.71248  -1.71137
 Alpha  occ. eigenvalues --   -1.00012  -0.97855  -0.91958  -0.90946  -0.90227
 Alpha  occ. eigenvalues --   -0.89797  -0.85966  -0.85333  -0.84604  -0.84040
 Alpha  occ. eigenvalues --   -0.74555  -0.74275  -0.73212  -0.72216  -0.71923
 Alpha  occ. eigenvalues --   -0.71704  -0.71071  -0.70987  -0.70362  -0.69956
 Alpha  occ. eigenvalues --   -0.69298  -0.68509  -0.68047  -0.67161  -0.67121
 Alpha  occ. eigenvalues --   -0.66388  -0.65897  -0.65547  -0.64930  -0.64826
 Alpha  occ. eigenvalues --   -0.64099  -0.62288  -0.61823  -0.61779  -0.60937
 Alpha  occ. eigenvalues --   -0.60344  -0.60206  -0.59720  -0.59472  -0.58942
 Alpha  occ. eigenvalues --   -0.58517  -0.57208  -0.56296  -0.55301  -0.54193
 Alpha  occ. eigenvalues --   -0.53642  -0.53370  -0.52750  -0.52113  -0.51660
 Alpha  occ. eigenvalues --   -0.51248  -0.51037  -0.50417  -0.50387  -0.50232
 Alpha  occ. eigenvalues --   -0.49948  -0.49251  -0.48973  -0.48126  -0.46811
 Alpha  occ. eigenvalues --   -0.45835  -0.45749  -0.45252  -0.44611  -0.44014
 Alpha  occ. eigenvalues --   -0.43928  -0.43559  -0.42738  -0.42403  -0.42143
 Alpha  occ. eigenvalues --   -0.41910  -0.41554  -0.41496  -0.41058  -0.40865
 Alpha  occ. eigenvalues --   -0.40598  -0.40549  -0.40346  -0.40113  -0.40022
 Alpha  occ. eigenvalues --   -0.39770  -0.39635  -0.39256  -0.39184  -0.39079
 Alpha  occ. eigenvalues --   -0.38906  -0.38869  -0.38500  -0.38313  -0.38187
 Alpha  occ. eigenvalues --   -0.38046  -0.37884  -0.37673  -0.37475  -0.37381
 Alpha  occ. eigenvalues --   -0.37050  -0.36840  -0.36742  -0.36537  -0.36523
 Alpha  occ. eigenvalues --   -0.36229  -0.36139  -0.35924  -0.35624  -0.35427
 Alpha  occ. eigenvalues --   -0.35289  -0.35082  -0.34953  -0.34856  -0.34616
 Alpha  occ. eigenvalues --   -0.34527  -0.34500  -0.34150  -0.34036  -0.33938
 Alpha  occ. eigenvalues --   -0.33624  -0.33517  -0.33433  -0.33256  -0.33175
 Alpha  occ. eigenvalues --   -0.32845  -0.32765  -0.32748  -0.32636  -0.32473
 Alpha  occ. eigenvalues --   -0.32190  -0.32017  -0.31903  -0.31615  -0.31470
 Alpha  occ. eigenvalues --   -0.31139  -0.31047  -0.30944  -0.30773  -0.30627
 Alpha  occ. eigenvalues --   -0.30256  -0.30096  -0.29975  -0.29816  -0.29712
 Alpha  occ. eigenvalues --   -0.29471  -0.29416  -0.29191  -0.29136  -0.29063
 Alpha  occ. eigenvalues --   -0.28858  -0.28750  -0.28345  -0.28313  -0.27674
 Alpha  occ. eigenvalues --   -0.27635  -0.27043  -0.26687  -0.26578  -0.26327
 Alpha  occ. eigenvalues --   -0.26301  -0.26059  -0.25975  -0.25937  -0.25251
 Alpha  occ. eigenvalues --   -0.25078  -0.24869  -0.24245  -0.23656  -0.23400
 Alpha  occ. eigenvalues --   -0.22872  -0.22486  -0.22044  -0.21583  -0.20405
 Alpha  occ. eigenvalues --   -0.20079  -0.19678  -0.19106  -0.18174  -0.16823
 Alpha  occ. eigenvalues --   -0.15820
 Alpha virt. eigenvalues --   -0.11585  -0.06441  -0.06096  -0.04387  -0.03375
 Alpha virt. eigenvalues --   -0.02923  -0.01895  -0.01389  -0.00863   0.00224
 Alpha virt. eigenvalues --    0.01017   0.01537   0.02042   0.02468   0.02797

 Mulliken charges:
               1
     1  Mg   0.681971
     2  C    0.043076
     3  C   -0.053780
     4  C   -0.040600
     5  C   -0.078561
     6  N   -0.205817
     7  C   -0.083659
     8  C    0.017500
     9  C    0.049862
    10  C    0.024481
    11  C    0.098406
    12  C    0.044923
    13  C    0.196283
    14  C    0.056481
    15  O   -0.196772
    16  O   -0.237814
    17  N   -0.275863
    18  C    0.139292
    19  C   -0.167422
    20  C   -0.003837
    21  C    0.095223
    22  C    0.190535
    23  C   -0.061959
    24  O   -0.155909
    25  C    0.129157
    26  N   -0.234945
    27  C    0.040802
    28  C   -0.011639
    29  C    0.064922
    30  C    0.009950
    31  C    0.130796
    32  C    0.089912
    33  C    0.051588
    34  N   -0.278449
    35  C    0.159704
    36  C   -0.174376
    37  C    0.105674
    38  C    0.037884
    39  C    0.157589
    40  C   -0.056887
    41  O   -0.153224
    42  C    0.039133
    43  C    0.115999
    44  O   -0.154665
    45  O   -0.266493
    46  C    0.203089
    47  C    0.310070
    48  C   -0.131654
    49  C   -0.160158
    50  C    0.169988
    51  C    0.108402
    52  C    0.106948
    53  C    0.139249
    54  C   -0.125142
    55  C    0.107682
    56  C    0.132758
    57  C    0.038190
    58  C    0.105652
    59  C   -0.065581
    60  C    0.103061
    61  C    0.118022
    62  C    0.039713
    63  C    0.106866
    64  C   -0.119752
    65  C    0.136123
    66  C    0.095438
    67  H   -0.071531
    68  H   -0.034783
    69  H   -0.067688
    70  H   -0.009093
    71  H   -0.023808
    72  H   -0.010601
    73  H   -0.010844
    74  H   -0.019238
    75  H   -0.031358
    76  H   -0.011167
    77  H   -0.020285
    78  H    0.015148
    79  H    0.028464
    80  H    0.016787
    81  H   -0.025812
    82  H   -0.008804
    83  H    0.010982
    84  H    0.003653
    85  H   -0.016100
    86  H   -0.020823
    87  H   -0.008145
    88  H   -0.001865
    89  H   -0.014046
    90  H   -0.019743
    91  H   -0.033540
    92  H   -0.004587
    93  H   -0.015651
    94  H   -0.008778
    95  H   -0.012814
    96  H    0.002306
    97  H    0.018505
    98  H    0.020131
    99  H    0.028613
   100  H   -0.000011
   101  H    0.004165
   102  H    0.014275
   103  H    0.018524
   104  H   -0.026328
   105  H   -0.005641
   106  H   -0.007714
   107  H   -0.001781
   108  H   -0.011959
   109  H   -0.044470
   110  H   -0.037801
   111  H   -0.039540
   112  H   -0.037931
   113  H   -0.031116
   114  H   -0.045955
   115  H   -0.029819
   116  H   -0.009550
   117  H   -0.022254
   118  H   -0.033616
   119  H   -0.043997
   120  H   -0.031830
   121  H   -0.014508
   122  H   -0.036550
   123  H   -0.038734
   124  H   -0.032338
   125  H   -0.028950
   126  H   -0.008331
   127  H   -0.018073
   128  H   -0.048656
   129  H   -0.028487
   130  H   -0.035850
   131  H   -0.033037
   132  H   -0.032365
   133  H   -0.026733
   134  H   -0.026735
   135  H   -0.017084
   136  H   -0.013239
   137  H   -0.019788
   138  H   -0.020081
   139  H   -0.014265
   140  H   -0.022763
 Sum of Mulliken charges =  -0.00000

 Dipole moment (field-independent basis, Debye):
    X=              6.1689    Y=              3.0233    Z=             -0.0031  Tot=              6.8699
 Quadrupole moment (field-independent basis, Debye-Ang):
   XX=           -388.8907   YY=           -433.7521   ZZ=           -404.7949
   XY=            -33.2712   XZ=             -3.8266   YZ=              7.4893

 Normal termination of Gaussian 16 at Wed May  4 20:48:35 2022.
