 Gaussian 16, Revision A.03,
 Gaussian 16:  ES64L-G16RevA.03 25-Dec-2016

 -----------------------------------
 #p cam-b3lyp/Def2SVP td=(nstates=5)
 -----------------------------------

 -------------------------------------------------------
 step_401_chromophore_15 TDDFT with cam-b3lyp functional
 -------------------------------------------------------
 Symbolic Z-matrix:
 Charge =  0 Multiplicity = 1

                         Standard orientation:
 ---------------------------------------------------------------------
 Center     Atomic      Atomic             Coordinates (Angstroms)
 Number     Number       Type             X           Y           Z
 ---------------------------------------------------------------------
      1         12           0       -4.715947    0.904780    0.216112
      2          6           0       -4.265396   -2.538964    0.651426
      3          6           0       -1.318610    1.334090    0.189429
      4          6           0       -5.143992    4.332658    0.137130
      5          6           0       -8.185966    0.468105    0.406018
      6          7           0       -3.006981   -0.502456    0.303267
      7          6           0       -3.057505   -1.872161    0.399301
      8          6           0       -1.653219   -2.482962    0.071563
      9          6           0       -0.738283   -1.222040    0.264298
     10          6           0       -1.732920   -0.052256    0.222123
     11          6           0        0.032408   -1.231680    1.627694
     12          6           0       -1.656873   -2.980202   -1.457498
     13          6           0       -0.634178   -4.030997   -1.919450
     14          6           0        0.638836   -4.145389   -1.041787
     15          8           0        0.686079   -4.615976    0.076869
     16          8           0        1.697805   -3.713756   -1.704136
     17          7           0       -3.390919    2.594752   -0.022061
     18          6           0       -2.012576    2.574930    0.083912
     19          6           0       -1.442561    3.886661   -0.090896
     20          6           0       -2.587866    4.785948   -0.112107
     21          6           0       -3.771248    3.918020   -0.013807
     22          6           0        0.025155    4.178976   -0.181992
     23          6           0       -2.692525    6.333428   -0.303286
     24          8           0       -3.785035    6.865065   -0.424933
     25          6           0       -1.392510    7.169547   -0.296602
     26          7           0       -6.388308    2.157758    0.308878
     27          6           0       -6.246725    3.484521    0.318045
     28          6           0       -7.669751    4.176026    0.442695
     29          6           0       -8.657890    2.947944    0.395853
     30          6           0       -7.722243    1.748314    0.313607
     31          6           0       -7.846156    5.230116    1.546749
     32          6           0       -9.753649    2.932177   -0.726941
     33          6           0      -11.236369    2.891148   -0.331145
     34          7           0       -6.029090   -0.678776    0.498785
     35          6           0       -7.403381   -0.693098    0.460101
     36          6           0       -7.890583   -2.045758    0.621949
     37          6           0       -6.686402   -2.884274    0.676604
     38          6           0       -5.586299   -1.978475    0.628498
     39          6           0       -9.358142   -2.524810    0.551610
     40          6           0       -6.114699   -4.202239    0.687886
     41          8           0       -6.719734   -5.273200    0.722609
     42          6           0       -4.564013   -4.024335    1.070294
     43          6           0       -3.807116   -5.074148    0.332286
     44          8           0       -3.886326   -5.374978   -0.820046
     45          8           0       -2.905524   -5.613437    1.196829
     46          6           0       -2.116175   -6.773551    0.695316
     47          6           0        3.034470   -4.081535   -1.215926
     48          6           0        4.063560   -3.130875   -1.795200
     49          6           0        5.277811   -2.823884   -1.194450
     50          6           0        5.830432   -3.501831   -0.015488
     51          6           0        6.242818   -1.949803   -1.997923
     52          6           0        6.002366   -0.451167   -1.904171
     53          6           0        6.254337    0.339157   -3.191775
     54          6           0        7.464085    1.329453   -3.153094
     55          6           0        7.321117    2.457844   -4.216506
     56          6           0        8.870308    0.705891   -3.117197
     57          6           0        9.298339    0.340066   -1.695280
     58          6           0       10.732806    0.871217   -1.371525
     59          6           0       10.651016    2.074055   -0.352634
     60          6           0       10.809633    3.392841   -1.178505
     61          6           0       11.692345    1.793126    0.714816
     62          6           0       11.086218    0.877548    1.833274
     63          6           0       12.181205    0.276092    2.766249
     64          6           0       12.140726    0.898784    4.253227
     65          6           0       13.396176    0.697177    5.070169
     66          6           0       10.935006    0.302716    5.005726
     67          1           0       -0.233321    1.450822    0.168666
     68          1           0       -5.380435    5.382897    0.322480
     69          1           0       -9.274976    0.394174    0.432882
     70          1           0       -1.411503   -3.339457    0.700422
     71          1           0        0.022598   -1.185107   -0.515037
     72          1           0        0.137034   -2.255264    1.987641
     73          1           0       -0.425268   -0.710149    2.468238
     74          1           0        1.079871   -0.937719    1.702602
     75          1           0       -1.789404   -2.170747   -2.176084
     76          1           0       -2.654369   -3.409458   -1.543108
     77          1           0       -0.368613   -3.642182   -2.901896
     78          1           0       -1.118572   -4.997227   -2.064652
     79          1           0        0.398923    4.695403    0.702060
     80          1           0        0.069610    4.658397   -1.159657
     81          1           0        0.522937    3.223820   -0.349010
     82          1           0       -0.680208    6.605692   -0.897982
     83          1           0       -0.979972    7.199154    0.712638
     84          1           0       -1.624093    8.184581   -0.619255
     85          1           0       -7.773765    4.744686   -0.481534
     86          1           0       -9.149591    2.749962    1.347257
     87          1           0       -8.098231    6.169181    1.053668
     88          1           0       -6.934964    5.388635    2.123239
     89          1           0       -8.640873    4.988970    2.253403
     90          1           0       -9.612967    2.188146   -1.510501
     91          1           0       -9.651887    3.840826   -1.320253
     92          1           0      -11.715282    3.765430   -0.770186
     93          1           0      -11.341021    2.862361    0.753947
     94          1           0      -11.815014    2.018243   -0.631271
     95          1           0      -10.070673   -1.829319    0.108495
     96          1           0       -9.769060   -2.775901    1.529367
     97          1           0       -9.289743   -3.435699   -0.042503
     98          1           0       -4.540822   -4.095326    2.158193
     99          1           0       -2.606687   -7.284440   -0.132914
    100          1           0       -1.725228   -7.435685    1.468340
    101          1           0       -1.106402   -6.507998    0.380363
    102          1           0        3.300372   -5.076712   -1.570953
    103          1           0        3.059154   -3.968106   -0.131447
    104          1           0        3.734015   -2.562816   -2.665580
    105          1           0        5.247025   -4.338570    0.369454
    106          1           0        5.896263   -2.750486    0.771741
    107          1           0        6.865541   -3.776856   -0.214618
    108          1           0        6.235880   -2.371501   -3.003348
    109          1           0        7.272097   -2.032815   -1.648091
    110          1           0        6.536698   -0.126733   -1.011265
    111          1           0        4.959173   -0.273348   -1.644159
    112          1           0        5.392948    0.980672   -3.378959
    113          1           0        6.392689   -0.267374   -4.086108
    114          1           0        7.419088    1.890805   -2.219407
    115          1           0        8.217547    2.474197   -4.836467
    116          1           0        7.254406    3.468502   -3.813025
    117          1           0        6.470356    2.200769   -4.847226
    118          1           0        9.499894    1.403639   -3.670517
    119          1           0        8.943800   -0.214532   -3.696882
    120          1           0        9.336558   -0.744858   -1.595426
    121          1           0        8.625509    0.666236   -0.901780
    122          1           0       11.201618    1.207541   -2.296278
    123          1           0       11.320945   -0.012415   -1.121384
    124          1           0        9.679229    2.220138    0.119659
    125          1           0       11.250804    4.137925   -0.515572
    126          1           0        9.843023    3.738970   -1.543005
    127          1           0       11.519613    3.312127   -2.001602
    128          1           0       12.025199    2.738334    1.145050
    129          1           0       12.585213    1.342042    0.280995
    130          1           0       10.494469    0.037567    1.470051
    131          1           0       10.384468    1.482661    2.407666
    132          1           0       13.175134    0.494054    2.377200
    133          1           0       11.984130   -0.788946    2.643546
    134          1           0       11.862341    1.951947    4.201847
    135          1           0       14.188722    0.335031    4.416211
    136          1           0       13.293076    0.069086    5.955878
    137          1           0       13.612943    1.696417    5.448170
    138          1           0       11.152299   -0.004066    6.028778
    139          1           0       10.479230   -0.526525    4.466169
    140          1           0       10.228728    1.129404    5.083687
 ---------------------------------------------------------------------

 SCF Done:  E(RCAM-B3LYP) =  -3007.18271362     A.U. after   17 cycles

 Excitation energies and oscillator strengths:

 Excited State   1:      Singlet-A      1.7207 eV  720.56 nm  f=0.3935  <S**2>=0.000
     245 -> 248        0.17714
     246 -> 247        0.68666
     245 <- 248        0.10616
 This state for optimization and/or second-order correction.
 Total Energy, E(TD-HF/TD-DFT) =  -3007.11948047
 Copying the excited state density for this state as the 1-particle RhoCI density.

 Excited State   2:      Singlet-A      2.1620 eV  573.48 nm  f=0.1525  <S**2>=0.000
     245 -> 247        0.65638
     246 -> 248       -0.24581

 Excited State   3:      Singlet-A      3.2319 eV  383.62 nm  f=0.0064  <S**2>=0.000
     241 -> 247       -0.22929
     243 -> 247        0.28106
     244 -> 247        0.59191

 Excited State   4:      Singlet-A      3.3280 eV  372.55 nm  f=0.0104  <S**2>=0.000
     240 -> 247       -0.16375
     241 -> 247       -0.31131
     243 -> 247        0.44579
     244 -> 247       -0.34254

 Excited State   5:      Singlet-A      3.4414 eV  360.27 nm  f=0.0326  <S**2>=0.000
     241 -> 247        0.45822
     243 -> 247        0.29937
     243 -> 249        0.18602
     243 -> 250        0.15759
     246 -> 248        0.28857

 The electronic state is 1-A.
 Alpha  occ. eigenvalues --  -46.88372 -19.25961 -19.24409 -19.20117 -19.19782
 Alpha  occ. eigenvalues --  -19.19434 -19.17697 -14.42618 -14.41395 -14.39575
 Alpha  occ. eigenvalues --  -14.38600 -10.39838 -10.38518 -10.36255 -10.33903
 Alpha  occ. eigenvalues --  -10.32961 -10.32092 -10.31056 -10.30888 -10.30858
 Alpha  occ. eigenvalues --  -10.30634 -10.30518 -10.29806 -10.29613 -10.28720
 Alpha  occ. eigenvalues --  -10.28655 -10.28461 -10.28370 -10.28277 -10.28118
 Alpha  occ. eigenvalues --  -10.28118 -10.28011 -10.27935 -10.27831 -10.27674
 Alpha  occ. eigenvalues --  -10.27268 -10.27244 -10.27231 -10.26979 -10.26566
 Alpha  occ. eigenvalues --  -10.26557 -10.26420 -10.26060 -10.25978 -10.25948
 Alpha  occ. eigenvalues --  -10.25940 -10.25935 -10.25820 -10.25582 -10.25558
 Alpha  occ. eigenvalues --  -10.25542 -10.25484 -10.25477 -10.25460 -10.25379
 Alpha  occ. eigenvalues --  -10.25267 -10.25127 -10.25052 -10.24875 -10.24848
 Alpha  occ. eigenvalues --  -10.24834 -10.24796 -10.24696 -10.24653 -10.24304
 Alpha  occ. eigenvalues --  -10.24178  -3.16818  -1.91749  -1.91244  -1.91136
 Alpha  occ. eigenvalues --   -1.18461  -1.16365  -1.10777  -1.08770  -1.08183
 Alpha  occ. eigenvalues --   -1.07653  -1.03774  -1.02953  -1.02325  -1.01280
 Alpha  occ. eigenvalues --   -0.91445  -0.91216  -0.90067  -0.88956  -0.88646
 Alpha  occ. eigenvalues --   -0.88390  -0.87855  -0.87605  -0.86974  -0.86666
 Alpha  occ. eigenvalues --   -0.85632  -0.84718  -0.84270  -0.83279  -0.83174
 Alpha  occ. eigenvalues --   -0.82501  -0.81998  -0.81774  -0.80833  -0.80702
 Alpha  occ. eigenvalues --   -0.79964  -0.78334  -0.77342  -0.77194  -0.76361
 Alpha  occ. eigenvalues --   -0.75652  -0.75598  -0.75070  -0.74733  -0.74222
 Alpha  occ. eigenvalues --   -0.73543  -0.72110  -0.71185  -0.70057  -0.68654
 Alpha  occ. eigenvalues --   -0.68210  -0.67887  -0.67169  -0.66678  -0.65992
 Alpha  occ. eigenvalues --   -0.65275  -0.65082  -0.64533  -0.64426  -0.64120
 Alpha  occ. eigenvalues --   -0.63922  -0.63236  -0.62919  -0.61683  -0.60343
 Alpha  occ. eigenvalues --   -0.59726  -0.59326  -0.58663  -0.58036  -0.57371
 Alpha  occ. eigenvalues --   -0.57240  -0.56866  -0.56022  -0.55587  -0.55500
 Alpha  occ. eigenvalues --   -0.55210  -0.54681  -0.54488  -0.53889  -0.53605
 Alpha  occ. eigenvalues --   -0.53549  -0.53193  -0.53055  -0.52952  -0.52814
 Alpha  occ. eigenvalues --   -0.52674  -0.52358  -0.51953  -0.51820  -0.51634
 Alpha  occ. eigenvalues --   -0.51342  -0.51268  -0.51081  -0.50801  -0.50718
 Alpha  occ. eigenvalues --   -0.50494  -0.50387  -0.49980  -0.49829  -0.49698
 Alpha  occ. eigenvalues --   -0.49644  -0.49500  -0.49103  -0.48938  -0.48686
 Alpha  occ. eigenvalues --   -0.48608  -0.48319  -0.47838  -0.47786  -0.47748
 Alpha  occ. eigenvalues --   -0.47560  -0.47365  -0.46961  -0.46777  -0.46593
 Alpha  occ. eigenvalues --   -0.46440  -0.46338  -0.45894  -0.45877  -0.45822
 Alpha  occ. eigenvalues --   -0.45500  -0.45294  -0.45190  -0.44905  -0.44868
 Alpha  occ. eigenvalues --   -0.44694  -0.44418  -0.44378  -0.44344  -0.44127
 Alpha  occ. eigenvalues --   -0.44072  -0.43727  -0.43533  -0.43180  -0.42838
 Alpha  occ. eigenvalues --   -0.42722  -0.42492  -0.42412  -0.42244  -0.42084
 Alpha  occ. eigenvalues --   -0.41769  -0.41605  -0.41215  -0.41190  -0.41054
 Alpha  occ. eigenvalues --   -0.40764  -0.40710  -0.40345  -0.40296  -0.40277
 Alpha  occ. eigenvalues --   -0.39938  -0.39828  -0.39440  -0.39267  -0.38666
 Alpha  occ. eigenvalues --   -0.38634  -0.38168  -0.37796  -0.37446  -0.37320
 Alpha  occ. eigenvalues --   -0.37276  -0.37087  -0.36758  -0.36554  -0.36121
 Alpha  occ. eigenvalues --   -0.35884  -0.35467  -0.35398  -0.34459  -0.34241
 Alpha  occ. eigenvalues --   -0.33810  -0.33652  -0.32768  -0.31646  -0.31086
 Alpha  occ. eigenvalues --   -0.30206  -0.29624  -0.29486  -0.28419  -0.23692
 Alpha  occ. eigenvalues --   -0.21219
 Alpha virt. eigenvalues --   -0.08833  -0.01215   0.00421   0.02658   0.03888
 Alpha virt. eigenvalues --    0.03965   0.05046   0.05344   0.06062   0.06560
 Alpha virt. eigenvalues --    0.08108   0.08132   0.08500   0.08753   0.08976

 Mulliken charges:
               1
     1  Mg   0.814528
     2  C    0.015971
     3  C   -0.069053
     4  C   -0.061525
     5  C   -0.082826
     6  N   -0.272664
     7  C   -0.044678
     8  C   -0.036465
     9  C   -0.007393
    10  C    0.046053
    11  C    0.040808
    12  C   -0.002355
    13  C    0.128033
    14  C    0.129425
    15  O   -0.240188
    16  O   -0.302577
    17  N   -0.362276
    18  C    0.147240
    19  C   -0.167845
    20  C   -0.064587
    21  C    0.120849
    22  C    0.130030
    23  C    0.016562
    24  O   -0.193835
    25  C    0.055207
    26  N   -0.315918
    27  C    0.070206
    28  C   -0.066076
    29  C    0.007077
    30  C    0.031681
    31  C    0.068286
    32  C    0.029121
    33  C   -0.007903
    34  N   -0.366332
    35  C    0.158142
    36  C   -0.171452
    37  C    0.026374
    38  C    0.068213
    39  C    0.109217
    40  C    0.042680
    41  O   -0.194397
    42  C   -0.036151
    43  C    0.199930
    44  O   -0.192881
    45  O   -0.330483
    46  C    0.166573
    47  C    0.278660
    48  C   -0.146875
    49  C   -0.181308
    50  C    0.100031
    51  C    0.052783
    52  C    0.046703
    53  C    0.084017
    54  C   -0.176674
    55  C    0.049700
    56  C    0.081637
    57  C   -0.017526
    58  C    0.053866
    59  C   -0.126813
    60  C    0.053786
    61  C    0.065394
    62  C   -0.010494
    63  C    0.051737
    64  C   -0.174609
    65  C    0.072661
    66  C    0.036600
    67  H   -0.036065
    68  H    0.003302
    69  H   -0.033322
    70  H    0.027847
    71  H    0.011651
    72  H    0.016280
    73  H    0.015759
    74  H    0.006466
    75  H   -0.000421
    76  H    0.022351
    77  H    0.015979
    78  H    0.046016
    79  H    0.056173
    80  H    0.043739
    81  H    0.005081
    82  H    0.015999
    83  H    0.039258
    84  H    0.038622
    85  H    0.018692
    86  H    0.013434
    87  H    0.016379
    88  H    0.022786
    89  H    0.012284
    90  H    0.011624
    91  H   -0.004546
    92  H    0.018442
    93  H    0.006704
    94  H    0.014429
    95  H    0.009306
    96  H    0.026355
    97  H    0.041652
    98  H    0.063469
    99  H    0.053455
   100  H    0.024665
   101  H    0.024475
   102  H    0.040789
   103  H    0.046643
   104  H    0.008192
   105  H    0.019189
   106  H    0.017190
   107  H    0.023549
   108  H    0.018444
   109  H   -0.016705
   110  H   -0.008973
   111  H   -0.008493
   112  H   -0.007276
   113  H   -0.002891
   114  H   -0.015224
   115  H   -0.005145
   116  H    0.014031
   117  H    0.002351
   118  H   -0.005853
   119  H   -0.014593
   120  H   -0.003782
   121  H    0.007915
   122  H   -0.008148
   123  H   -0.008769
   124  H   -0.001946
   125  H   -0.004211
   126  H    0.012907
   127  H    0.004967
   128  H   -0.019283
   129  H   -0.001085
   130  H   -0.008663
   131  H   -0.006241
   132  H   -0.004751
   133  H    0.001717
   134  H    0.003959
   135  H    0.006816
   136  H    0.011084
   137  H    0.004653
   138  H    0.004880
   139  H    0.008752
   140  H    0.000062
 Sum of Mulliken charges =  -0.00000

 Dipole moment (field-independent basis, Debye):
    X=              7.3352    Y=              4.1799    Z=             -0.1176  Tot=              8.4433
 Quadrupole moment (field-independent basis, Debye-Ang):
   XX=           -395.5600   YY=           -428.5346   ZZ=           -404.7433
   XY=            -36.5168   XZ=             -3.7256   YZ=              7.6394

 Normal termination of Gaussian 16 at Wed May  4 19:20:29 2022.
