 Gaussian 16, Revision A.03,
 Gaussian 16:  ES64L-G16RevA.03 25-Dec-2016

 ---------------------------------
 #p PBE1PBE/Def2SVP td=(nstates=5)
 ---------------------------------

 -----------------------------------------------------
 step_401_chromophore_15 TDDFT with PBE1PBE functional
 -----------------------------------------------------
 Symbolic Z-matrix:
 Charge =  0 Multiplicity = 1

                         Standard orientation:
 ---------------------------------------------------------------------
 Center     Atomic      Atomic             Coordinates (Angstroms)
 Number     Number       Type             X           Y           Z
 ---------------------------------------------------------------------
      1         12           0       -4.715947    0.904780    0.216112
      2          6           0       -4.265396   -2.538964    0.651426
      3          6           0       -1.318610    1.334090    0.189429
      4          6           0       -5.143992    4.332658    0.137130
      5          6           0       -8.185966    0.468105    0.406018
      6          7           0       -3.006981   -0.502456    0.303267
      7          6           0       -3.057505   -1.872161    0.399301
      8          6           0       -1.653219   -2.482962    0.071563
      9          6           0       -0.738283   -1.222040    0.264298
     10          6           0       -1.732920   -0.052256    0.222123
     11          6           0        0.032408   -1.231680    1.627694
     12          6           0       -1.656873   -2.980202   -1.457498
     13          6           0       -0.634178   -4.030997   -1.919450
     14          6           0        0.638836   -4.145389   -1.041787
     15          8           0        0.686079   -4.615976    0.076869
     16          8           0        1.697805   -3.713756   -1.704136
     17          7           0       -3.390919    2.594752   -0.022061
     18          6           0       -2.012576    2.574930    0.083912
     19          6           0       -1.442561    3.886661   -0.090896
     20          6           0       -2.587866    4.785948   -0.112107
     21          6           0       -3.771248    3.918020   -0.013807
     22          6           0        0.025155    4.178976   -0.181992
     23          6           0       -2.692525    6.333428   -0.303286
     24          8           0       -3.785035    6.865065   -0.424933
     25          6           0       -1.392510    7.169547   -0.296602
     26          7           0       -6.388308    2.157758    0.308878
     27          6           0       -6.246725    3.484521    0.318045
     28          6           0       -7.669751    4.176026    0.442695
     29          6           0       -8.657890    2.947944    0.395853
     30          6           0       -7.722243    1.748314    0.313607
     31          6           0       -7.846156    5.230116    1.546749
     32          6           0       -9.753649    2.932177   -0.726941
     33          6           0      -11.236369    2.891148   -0.331145
     34          7           0       -6.029090   -0.678776    0.498785
     35          6           0       -7.403381   -0.693098    0.460101
     36          6           0       -7.890583   -2.045758    0.621949
     37          6           0       -6.686402   -2.884274    0.676604
     38          6           0       -5.586299   -1.978475    0.628498
     39          6           0       -9.358142   -2.524810    0.551610
     40          6           0       -6.114699   -4.202239    0.687886
     41          8           0       -6.719734   -5.273200    0.722609
     42          6           0       -4.564013   -4.024335    1.070294
     43          6           0       -3.807116   -5.074148    0.332286
     44          8           0       -3.886326   -5.374978   -0.820046
     45          8           0       -2.905524   -5.613437    1.196829
     46          6           0       -2.116175   -6.773551    0.695316
     47          6           0        3.034470   -4.081535   -1.215926
     48          6           0        4.063560   -3.130875   -1.795200
     49          6           0        5.277811   -2.823884   -1.194450
     50          6           0        5.830432   -3.501831   -0.015488
     51          6           0        6.242818   -1.949803   -1.997923
     52          6           0        6.002366   -0.451167   -1.904171
     53          6           0        6.254337    0.339157   -3.191775
     54          6           0        7.464085    1.329453   -3.153094
     55          6           0        7.321117    2.457844   -4.216506
     56          6           0        8.870308    0.705891   -3.117197
     57          6           0        9.298339    0.340066   -1.695280
     58          6           0       10.732806    0.871217   -1.371525
     59          6           0       10.651016    2.074055   -0.352634
     60          6           0       10.809633    3.392841   -1.178505
     61          6           0       11.692345    1.793126    0.714816
     62          6           0       11.086218    0.877548    1.833274
     63          6           0       12.181205    0.276092    2.766249
     64          6           0       12.140726    0.898784    4.253227
     65          6           0       13.396176    0.697177    5.070169
     66          6           0       10.935006    0.302716    5.005726
     67          1           0       -0.233321    1.450822    0.168666
     68          1           0       -5.380435    5.382897    0.322480
     69          1           0       -9.274976    0.394174    0.432882
     70          1           0       -1.411503   -3.339457    0.700422
     71          1           0        0.022598   -1.185107   -0.515037
     72          1           0        0.137034   -2.255264    1.987641
     73          1           0       -0.425268   -0.710149    2.468238
     74          1           0        1.079871   -0.937719    1.702602
     75          1           0       -1.789404   -2.170747   -2.176084
     76          1           0       -2.654369   -3.409458   -1.543108
     77          1           0       -0.368613   -3.642182   -2.901896
     78          1           0       -1.118572   -4.997227   -2.064652
     79          1           0        0.398923    4.695403    0.702060
     80          1           0        0.069610    4.658397   -1.159657
     81          1           0        0.522937    3.223820   -0.349010
     82          1           0       -0.680208    6.605692   -0.897982
     83          1           0       -0.979972    7.199154    0.712638
     84          1           0       -1.624093    8.184581   -0.619255
     85          1           0       -7.773765    4.744686   -0.481534
     86          1           0       -9.149591    2.749962    1.347257
     87          1           0       -8.098231    6.169181    1.053668
     88          1           0       -6.934964    5.388635    2.123239
     89          1           0       -8.640873    4.988970    2.253403
     90          1           0       -9.612967    2.188146   -1.510501
     91          1           0       -9.651887    3.840826   -1.320253
     92          1           0      -11.715282    3.765430   -0.770186
     93          1           0      -11.341021    2.862361    0.753947
     94          1           0      -11.815014    2.018243   -0.631271
     95          1           0      -10.070673   -1.829319    0.108495
     96          1           0       -9.769060   -2.775901    1.529367
     97          1           0       -9.289743   -3.435699   -0.042503
     98          1           0       -4.540822   -4.095326    2.158193
     99          1           0       -2.606687   -7.284440   -0.132914
    100          1           0       -1.725228   -7.435685    1.468340
    101          1           0       -1.106402   -6.507998    0.380363
    102          1           0        3.300372   -5.076712   -1.570953
    103          1           0        3.059154   -3.968106   -0.131447
    104          1           0        3.734015   -2.562816   -2.665580
    105          1           0        5.247025   -4.338570    0.369454
    106          1           0        5.896263   -2.750486    0.771741
    107          1           0        6.865541   -3.776856   -0.214618
    108          1           0        6.235880   -2.371501   -3.003348
    109          1           0        7.272097   -2.032815   -1.648091
    110          1           0        6.536698   -0.126733   -1.011265
    111          1           0        4.959173   -0.273348   -1.644159
    112          1           0        5.392948    0.980672   -3.378959
    113          1           0        6.392689   -0.267374   -4.086108
    114          1           0        7.419088    1.890805   -2.219407
    115          1           0        8.217547    2.474197   -4.836467
    116          1           0        7.254406    3.468502   -3.813025
    117          1           0        6.470356    2.200769   -4.847226
    118          1           0        9.499894    1.403639   -3.670517
    119          1           0        8.943800   -0.214532   -3.696882
    120          1           0        9.336558   -0.744858   -1.595426
    121          1           0        8.625509    0.666236   -0.901780
    122          1           0       11.201618    1.207541   -2.296278
    123          1           0       11.320945   -0.012415   -1.121384
    124          1           0        9.679229    2.220138    0.119659
    125          1           0       11.250804    4.137925   -0.515572
    126          1           0        9.843023    3.738970   -1.543005
    127          1           0       11.519613    3.312127   -2.001602
    128          1           0       12.025199    2.738334    1.145050
    129          1           0       12.585213    1.342042    0.280995
    130          1           0       10.494469    0.037567    1.470051
    131          1           0       10.384468    1.482661    2.407666
    132          1           0       13.175134    0.494054    2.377200
    133          1           0       11.984130   -0.788946    2.643546
    134          1           0       11.862341    1.951947    4.201847
    135          1           0       14.188722    0.335031    4.416211
    136          1           0       13.293076    0.069086    5.955878
    137          1           0       13.612943    1.696417    5.448170
    138          1           0       11.152299   -0.004066    6.028778
    139          1           0       10.479230   -0.526525    4.466169
    140          1           0       10.228728    1.129404    5.083687
 ---------------------------------------------------------------------

 SCF Done:  E(RPBE1PBE) =  -3005.37038717     A.U. after   15 cycles

 Excitation energies and oscillator strengths:

 Excited State   1:      Singlet-A      1.8491 eV  670.50 nm  f=0.3765  <S**2>=0.000
     245 -> 248        0.17519
     246 -> 247        0.69324
     246 <- 247       -0.10753
 This state for optimization and/or second-order correction.
 Total Energy, E(TD-HF/TD-DFT) =  -3005.30243303
 Copying the excited state density for this state as the 1-particle RhoCI density.

 Excited State   2:      Singlet-A      2.1549 eV  575.36 nm  f=0.1426  <S**2>=0.000
     245 -> 247        0.66592
     246 -> 248       -0.22280

 Excited State   3:      Singlet-A      2.8254 eV  438.82 nm  f=0.0059  <S**2>=0.000
     243 -> 247       -0.24021
     244 -> 247        0.63741

 Excited State   4:      Singlet-A      2.8788 eV  430.68 nm  f=0.0016  <S**2>=0.000
     243 -> 247        0.64057
     244 -> 247        0.26361

 Excited State   5:      Singlet-A      3.0943 eV  400.69 nm  f=0.0047  <S**2>=0.000
     240 -> 247       -0.17513
     241 -> 247        0.64236
     246 -> 248        0.16879

 The electronic state is 1-A.
 Alpha  occ. eigenvalues --  -46.91773 -19.26627 -19.25124 -19.20397 -19.19745
 Alpha  occ. eigenvalues --  -19.19701 -19.18208 -14.42007 -14.41016 -14.39102
 Alpha  occ. eigenvalues --  -14.38457 -10.36874 -10.35562 -10.33170 -10.31312
 Alpha  occ. eigenvalues --  -10.30345 -10.29562 -10.28992 -10.28385 -10.28240
 Alpha  occ. eigenvalues --  -10.27953 -10.27819 -10.27782 -10.26858 -10.26794
 Alpha  occ. eigenvalues --  -10.26523 -10.26486 -10.26072 -10.26030 -10.25990
 Alpha  occ. eigenvalues --  -10.25854 -10.25575 -10.25524 -10.25285 -10.25188
 Alpha  occ. eigenvalues --  -10.25170 -10.25036 -10.24798 -10.24123 -10.24112
 Alpha  occ. eigenvalues --  -10.24050 -10.23924 -10.23742 -10.23689 -10.23672
 Alpha  occ. eigenvalues --  -10.23642 -10.23591 -10.23462 -10.23257 -10.23172
 Alpha  occ. eigenvalues --  -10.23085 -10.23048 -10.22928 -10.22907 -10.22871
 Alpha  occ. eigenvalues --  -10.22840 -10.22789 -10.22636 -10.22584 -10.22441
 Alpha  occ. eigenvalues --  -10.22418 -10.22315 -10.22210 -10.22035 -10.21665
 Alpha  occ. eigenvalues --  -10.21549  -3.13803  -1.86675  -1.86147  -1.86043
 Alpha  occ. eigenvalues --   -1.13295  -1.11184  -1.05274  -1.03632  -1.03150
 Alpha  occ. eigenvalues --   -1.02582  -0.98298  -0.97549  -0.96872  -0.96129
 Alpha  occ. eigenvalues --   -0.85936  -0.85315  -0.84132  -0.83045  -0.82900
 Alpha  occ. eigenvalues --   -0.82579  -0.82031  -0.81696  -0.81228  -0.80876
 Alpha  occ. eigenvalues --   -0.79834  -0.79175  -0.78518  -0.77538  -0.77464
 Alpha  occ. eigenvalues --   -0.76703  -0.76107  -0.75906  -0.75119  -0.74863
 Alpha  occ. eigenvalues --   -0.74285  -0.72442  -0.71627  -0.71580  -0.70527
 Alpha  occ. eigenvalues --   -0.70029  -0.69676  -0.69176  -0.69094  -0.68374
 Alpha  occ. eigenvalues --   -0.67840  -0.66644  -0.65577  -0.64386  -0.63050
 Alpha  occ. eigenvalues --   -0.62641  -0.62199  -0.61407  -0.61033  -0.60163
 Alpha  occ. eigenvalues --   -0.59716  -0.59553  -0.59000  -0.58632  -0.58579
 Alpha  occ. eigenvalues --   -0.58471  -0.57375  -0.57097  -0.56359  -0.54738
 Alpha  occ. eigenvalues --   -0.54101  -0.53791  -0.53291  -0.52604  -0.51918
 Alpha  occ. eigenvalues --   -0.51620  -0.51604  -0.50516  -0.50114  -0.50059
 Alpha  occ. eigenvalues --   -0.49799  -0.49328  -0.48868  -0.48377  -0.48128
 Alpha  occ. eigenvalues --   -0.47739  -0.47672  -0.47606  -0.47380  -0.47290
 Alpha  occ. eigenvalues --   -0.47215  -0.46818  -0.46603  -0.46473  -0.46122
 Alpha  occ. eigenvalues --   -0.45915  -0.45781  -0.45532  -0.45313  -0.45189
 Alpha  occ. eigenvalues --   -0.45064  -0.44913  -0.44489  -0.44318  -0.44296
 Alpha  occ. eigenvalues --   -0.44169  -0.44104  -0.43568  -0.43450  -0.43392
 Alpha  occ. eigenvalues --   -0.43156  -0.42991  -0.42566  -0.42552  -0.42349
 Alpha  occ. eigenvalues --   -0.42123  -0.42036  -0.41659  -0.41401  -0.41228
 Alpha  occ. eigenvalues --   -0.41098  -0.40954  -0.40720  -0.40566  -0.40428
 Alpha  occ. eigenvalues --   -0.40151  -0.40077  -0.39826  -0.39690  -0.39525
 Alpha  occ. eigenvalues --   -0.39371  -0.39289  -0.39151  -0.39025  -0.38841
 Alpha  occ. eigenvalues --   -0.38797  -0.38492  -0.38322  -0.37973  -0.37698
 Alpha  occ. eigenvalues --   -0.37472  -0.37433  -0.37171  -0.36992  -0.36844
 Alpha  occ. eigenvalues --   -0.36564  -0.36414  -0.36176  -0.35977  -0.35906
 Alpha  occ. eigenvalues --   -0.35651  -0.35536  -0.35214  -0.35156  -0.35025
 Alpha  occ. eigenvalues --   -0.34965  -0.34551  -0.34441  -0.33982  -0.33580
 Alpha  occ. eigenvalues --   -0.33376  -0.33089  -0.32717  -0.32334  -0.32237
 Alpha  occ. eigenvalues --   -0.32122  -0.31852  -0.31645  -0.31590  -0.31149
 Alpha  occ. eigenvalues --   -0.30763  -0.30476  -0.30307  -0.29383  -0.29141
 Alpha  occ. eigenvalues --   -0.28929  -0.28739  -0.28298  -0.26741  -0.26136
 Alpha  occ. eigenvalues --   -0.25545  -0.24928  -0.24814  -0.24298  -0.20598
 Alpha  occ. eigenvalues --   -0.18797
 Alpha virt. eigenvalues --   -0.11249  -0.04764  -0.03791  -0.01784  -0.00427
 Alpha virt. eigenvalues --    0.00369   0.01214   0.01299   0.01581   0.02866
 Alpha virt. eigenvalues --    0.03842   0.04681   0.04932   0.05385   0.05656

 Mulliken charges:
               1
     1  Mg   0.965382
     2  C   -0.001962
     3  C   -0.064056
     4  C   -0.042289
     5  C   -0.071095
     6  N   -0.377583
     7  C    0.030616
     8  C   -0.116780
     9  C   -0.086907
    10  C    0.084089
    11  C   -0.008611
    12  C   -0.043099
    13  C    0.051428
    14  C    0.197699
    15  O   -0.274769
    16  O   -0.336841
    17  N   -0.468984
    18  C    0.162702
    19  C   -0.197928
    20  C   -0.101010
    21  C    0.145320
    22  C    0.065855
    23  C    0.064544
    24  O   -0.232329
    25  C   -0.017575
    26  N   -0.428191
    27  C    0.098600
    28  C   -0.138797
    29  C   -0.072427
    30  C    0.070575
    31  C    0.008649
    32  C   -0.029535
    33  C   -0.077937
    34  N   -0.490228
    35  C    0.178211
    36  C   -0.180714
    37  C   -0.024615
    38  C    0.123191
    39  C    0.053986
    40  C    0.139411
    41  O   -0.233952
    42  C   -0.146446
    43  C    0.292647
    44  O   -0.231004
    45  O   -0.363571
    46  C    0.110682
    47  C    0.238633
    48  C   -0.152530
    49  C   -0.226081
    50  C    0.032626
    51  C   -0.013841
    52  C   -0.015563
    53  C    0.026775
    54  C   -0.264971
    55  C   -0.010224
    56  C    0.036667
    57  C   -0.085909
    58  C    0.006637
    59  C   -0.215468
    60  C   -0.003104
    61  C    0.007230
    62  C   -0.067556
    63  C   -0.005543
    64  C   -0.266290
    65  C    0.010631
    66  C   -0.019917
    67  H   -0.003334
    68  H    0.034172
    69  H    0.000996
    70  H    0.066128
    71  H    0.047396
    72  H    0.042546
    73  H    0.042817
    74  H    0.033318
    75  H    0.032072
    76  H    0.058442
    77  H    0.049774
    78  H    0.076721
    79  H    0.081284
    80  H    0.070450
    81  H    0.032799
    82  H    0.043423
    83  H    0.065732
    84  H    0.064172
    85  H    0.056317
    86  H    0.051254
    87  H    0.043328
    88  H    0.050249
    89  H    0.039530
    90  H    0.043399
    91  H    0.029626
    92  H    0.046178
    93  H    0.033960
    94  H    0.041191
    95  H    0.036813
    96  H    0.055984
    97  H    0.070044
    98  H    0.099906
    99  H    0.074047
   100  H    0.047078
   101  H    0.048404
   102  H    0.067877
   103  H    0.071507
   104  H    0.037521
   105  H    0.045300
   106  H    0.046765
   107  H    0.050823
   108  H    0.049544
   109  H    0.019702
   110  H    0.023959
   111  H    0.025532
   112  H    0.026209
   113  H    0.029156
   114  H    0.026324
   115  H    0.022311
   116  H    0.040893
   117  H    0.029826
   118  H    0.024684
   119  H    0.018141
   120  H    0.029958
   121  H    0.037937
   122  H    0.024017
   123  H    0.022428
   124  H    0.034059
   125  H    0.023750
   126  H    0.041209
   127  H    0.031416
   128  H    0.014089
   129  H    0.030888
   130  H    0.023593
   131  H    0.026421
   132  H    0.027764
   133  H    0.033256
   134  H    0.041285
   135  H    0.033926
   136  H    0.037473
   137  H    0.032643
   138  H    0.032050
   139  H    0.035967
   140  H    0.027030
 Sum of Mulliken charges =  -0.00000

 Dipole moment (field-independent basis, Debye):
    X=              6.7672    Y=              3.6831    Z=             -0.0853  Tot=              7.7051
 Quadrupole moment (field-independent basis, Debye-Ang):
   XX=           -384.7566   YY=           -426.8591   ZZ=           -402.2567
   XY=            -35.3657   XZ=             -3.9645   YZ=              7.5510

 Normal termination of Gaussian 16 at Wed May  4 19:49:10 2022.
