 Gaussian 16, Revision A.03,
 Gaussian 16:  ES64L-G16RevA.03 25-Dec-2016

 --------------------------------
 #p wB97XD/Def2SVP td=(nstates=5)
 --------------------------------

 ----------------------------------------------------
 step_401_chromophore_15 TDDFT with wB97XD functional
 ----------------------------------------------------
 Symbolic Z-matrix:
 Charge =  0 Multiplicity = 1

                         Standard orientation:
 ---------------------------------------------------------------------
 Center     Atomic      Atomic             Coordinates (Angstroms)
 Number     Number       Type             X           Y           Z
 ---------------------------------------------------------------------
      1         12           0       -4.715947    0.904780    0.216112
      2          6           0       -4.265396   -2.538964    0.651426
      3          6           0       -1.318610    1.334090    0.189429
      4          6           0       -5.143992    4.332658    0.137130
      5          6           0       -8.185966    0.468105    0.406018
      6          7           0       -3.006981   -0.502456    0.303267
      7          6           0       -3.057505   -1.872161    0.399301
      8          6           0       -1.653219   -2.482962    0.071563
      9          6           0       -0.738283   -1.222040    0.264298
     10          6           0       -1.732920   -0.052256    0.222123
     11          6           0        0.032408   -1.231680    1.627694
     12          6           0       -1.656873   -2.980202   -1.457498
     13          6           0       -0.634178   -4.030997   -1.919450
     14          6           0        0.638836   -4.145389   -1.041787
     15          8           0        0.686079   -4.615976    0.076869
     16          8           0        1.697805   -3.713756   -1.704136
     17          7           0       -3.390919    2.594752   -0.022061
     18          6           0       -2.012576    2.574930    0.083912
     19          6           0       -1.442561    3.886661   -0.090896
     20          6           0       -2.587866    4.785948   -0.112107
     21          6           0       -3.771248    3.918020   -0.013807
     22          6           0        0.025155    4.178976   -0.181992
     23          6           0       -2.692525    6.333428   -0.303286
     24          8           0       -3.785035    6.865065   -0.424933
     25          6           0       -1.392510    7.169547   -0.296602
     26          7           0       -6.388308    2.157758    0.308878
     27          6           0       -6.246725    3.484521    0.318045
     28          6           0       -7.669751    4.176026    0.442695
     29          6           0       -8.657890    2.947944    0.395853
     30          6           0       -7.722243    1.748314    0.313607
     31          6           0       -7.846156    5.230116    1.546749
     32          6           0       -9.753649    2.932177   -0.726941
     33          6           0      -11.236369    2.891148   -0.331145
     34          7           0       -6.029090   -0.678776    0.498785
     35          6           0       -7.403381   -0.693098    0.460101
     36          6           0       -7.890583   -2.045758    0.621949
     37          6           0       -6.686402   -2.884274    0.676604
     38          6           0       -5.586299   -1.978475    0.628498
     39          6           0       -9.358142   -2.524810    0.551610
     40          6           0       -6.114699   -4.202239    0.687886
     41          8           0       -6.719734   -5.273200    0.722609
     42          6           0       -4.564013   -4.024335    1.070294
     43          6           0       -3.807116   -5.074148    0.332286
     44          8           0       -3.886326   -5.374978   -0.820046
     45          8           0       -2.905524   -5.613437    1.196829
     46          6           0       -2.116175   -6.773551    0.695316
     47          6           0        3.034470   -4.081535   -1.215926
     48          6           0        4.063560   -3.130875   -1.795200
     49          6           0        5.277811   -2.823884   -1.194450
     50          6           0        5.830432   -3.501831   -0.015488
     51          6           0        6.242818   -1.949803   -1.997923
     52          6           0        6.002366   -0.451167   -1.904171
     53          6           0        6.254337    0.339157   -3.191775
     54          6           0        7.464085    1.329453   -3.153094
     55          6           0        7.321117    2.457844   -4.216506
     56          6           0        8.870308    0.705891   -3.117197
     57          6           0        9.298339    0.340066   -1.695280
     58          6           0       10.732806    0.871217   -1.371525
     59          6           0       10.651016    2.074055   -0.352634
     60          6           0       10.809633    3.392841   -1.178505
     61          6           0       11.692345    1.793126    0.714816
     62          6           0       11.086218    0.877548    1.833274
     63          6           0       12.181205    0.276092    2.766249
     64          6           0       12.140726    0.898784    4.253227
     65          6           0       13.396176    0.697177    5.070169
     66          6           0       10.935006    0.302716    5.005726
     67          1           0       -0.233321    1.450822    0.168666
     68          1           0       -5.380435    5.382897    0.322480
     69          1           0       -9.274976    0.394174    0.432882
     70          1           0       -1.411503   -3.339457    0.700422
     71          1           0        0.022598   -1.185107   -0.515037
     72          1           0        0.137034   -2.255264    1.987641
     73          1           0       -0.425268   -0.710149    2.468238
     74          1           0        1.079871   -0.937719    1.702602
     75          1           0       -1.789404   -2.170747   -2.176084
     76          1           0       -2.654369   -3.409458   -1.543108
     77          1           0       -0.368613   -3.642182   -2.901896
     78          1           0       -1.118572   -4.997227   -2.064652
     79          1           0        0.398923    4.695403    0.702060
     80          1           0        0.069610    4.658397   -1.159657
     81          1           0        0.522937    3.223820   -0.349010
     82          1           0       -0.680208    6.605692   -0.897982
     83          1           0       -0.979972    7.199154    0.712638
     84          1           0       -1.624093    8.184581   -0.619255
     85          1           0       -7.773765    4.744686   -0.481534
     86          1           0       -9.149591    2.749962    1.347257
     87          1           0       -8.098231    6.169181    1.053668
     88          1           0       -6.934964    5.388635    2.123239
     89          1           0       -8.640873    4.988970    2.253403
     90          1           0       -9.612967    2.188146   -1.510501
     91          1           0       -9.651887    3.840826   -1.320253
     92          1           0      -11.715282    3.765430   -0.770186
     93          1           0      -11.341021    2.862361    0.753947
     94          1           0      -11.815014    2.018243   -0.631271
     95          1           0      -10.070673   -1.829319    0.108495
     96          1           0       -9.769060   -2.775901    1.529367
     97          1           0       -9.289743   -3.435699   -0.042503
     98          1           0       -4.540822   -4.095326    2.158193
     99          1           0       -2.606687   -7.284440   -0.132914
    100          1           0       -1.725228   -7.435685    1.468340
    101          1           0       -1.106402   -6.507998    0.380363
    102          1           0        3.300372   -5.076712   -1.570953
    103          1           0        3.059154   -3.968106   -0.131447
    104          1           0        3.734015   -2.562816   -2.665580
    105          1           0        5.247025   -4.338570    0.369454
    106          1           0        5.896263   -2.750486    0.771741
    107          1           0        6.865541   -3.776856   -0.214618
    108          1           0        6.235880   -2.371501   -3.003348
    109          1           0        7.272097   -2.032815   -1.648091
    110          1           0        6.536698   -0.126733   -1.011265
    111          1           0        4.959173   -0.273348   -1.644159
    112          1           0        5.392948    0.980672   -3.378959
    113          1           0        6.392689   -0.267374   -4.086108
    114          1           0        7.419088    1.890805   -2.219407
    115          1           0        8.217547    2.474197   -4.836467
    116          1           0        7.254406    3.468502   -3.813025
    117          1           0        6.470356    2.200769   -4.847226
    118          1           0        9.499894    1.403639   -3.670517
    119          1           0        8.943800   -0.214532   -3.696882
    120          1           0        9.336558   -0.744858   -1.595426
    121          1           0        8.625509    0.666236   -0.901780
    122          1           0       11.201618    1.207541   -2.296278
    123          1           0       11.320945   -0.012415   -1.121384
    124          1           0        9.679229    2.220138    0.119659
    125          1           0       11.250804    4.137925   -0.515572
    126          1           0        9.843023    3.738970   -1.543005
    127          1           0       11.519613    3.312127   -2.001602
    128          1           0       12.025199    2.738334    1.145050
    129          1           0       12.585213    1.342042    0.280995
    130          1           0       10.494469    0.037567    1.470051
    131          1           0       10.384468    1.482661    2.407666
    132          1           0       13.175134    0.494054    2.377200
    133          1           0       11.984130   -0.788946    2.643546
    134          1           0       11.862341    1.951947    4.201847
    135          1           0       14.188722    0.335031    4.416211
    136          1           0       13.293076    0.069086    5.955878
    137          1           0       13.612943    1.696417    5.448170
    138          1           0       11.152299   -0.004066    6.028778
    139          1           0       10.479230   -0.526525    4.466169
    140          1           0       10.228728    1.129404    5.083687
 ---------------------------------------------------------------------

 SCF Done:  E(RwB97XD) =  -3007.88154489     A.U. after   19 cycles

 Excitation energies and oscillator strengths:

 Excited State   1:      Singlet-A      1.6795 eV  738.20 nm  f=0.3931  <S**2>=0.000
     245 -> 248        0.18077
     246 -> 247        0.68434
     245 <- 248        0.11365
 This state for optimization and/or second-order correction.
 Total Energy, E(TD-HF/TD-DFT) =  -3007.81982260
 Copying the excited state density for this state as the 1-particle RhoCI density.

 Excited State   2:      Singlet-A      2.1092 eV  587.81 nm  f=0.1474  <S**2>=0.000
     245 -> 247        0.65305
     246 -> 248       -0.24859

 Excited State   3:      Singlet-A      3.2690 eV  379.27 nm  f=0.0054  <S**2>=0.000
     241 -> 247       -0.39542
     243 -> 247        0.32787
     244 -> 247        0.44615
     246 -> 248       -0.10298

 Excited State   4:      Singlet-A      3.3703 eV  367.87 nm  f=0.0082  <S**2>=0.000
     240 -> 247        0.16866
     241 -> 247        0.30611
     243 -> 247       -0.23377
     244 -> 247        0.50663
     246 -> 248        0.12721

 Excited State   5:      Singlet-A      3.4871 eV  355.55 nm  f=0.0586  <S**2>=0.000
     241 -> 247        0.31207
     243 -> 247        0.40391
     243 -> 249        0.22510
     243 -> 250        0.19516
     246 -> 248        0.30223

 The electronic state is 1-A.
 Alpha  occ. eigenvalues --  -46.94712 -19.31177 -19.29610 -19.25035 -19.24881
 Alpha  occ. eigenvalues --  -19.24326 -19.22691 -14.47241 -14.45970 -14.44241
 Alpha  occ. eigenvalues --  -14.43169 -10.43631 -10.42314 -10.40312 -10.37874
 Alpha  occ. eigenvalues --  -10.36854 -10.36206 -10.35056 -10.35050 -10.34938
 Alpha  occ. eigenvalues --  -10.34797 -10.34282 -10.33885 -10.33749 -10.32802
 Alpha  occ. eigenvalues --  -10.32633 -10.32442 -10.32405 -10.32346 -10.32292
 Alpha  occ. eigenvalues --  -10.32220 -10.32023 -10.31978 -10.31950 -10.31720
 Alpha  occ. eigenvalues --  -10.31279 -10.31269 -10.31172 -10.30903 -10.30520
 Alpha  occ. eigenvalues --  -10.30408 -10.30392 -10.30150 -10.29978 -10.29891
 Alpha  occ. eigenvalues --  -10.29883 -10.29865 -10.29757 -10.29576 -10.29510
 Alpha  occ. eigenvalues --  -10.29489 -10.29355 -10.29342 -10.29305 -10.29271
 Alpha  occ. eigenvalues --  -10.29209 -10.28987 -10.28918 -10.28831 -10.28816
 Alpha  occ. eigenvalues --  -10.28734 -10.28688 -10.28676 -10.28497 -10.28106
 Alpha  occ. eigenvalues --  -10.27989  -3.20601  -1.94222  -1.93693  -1.93588
 Alpha  occ. eigenvalues --   -1.20643  -1.18492  -1.13066  -1.10942  -1.10357
 Alpha  occ. eigenvalues --   -1.09830  -1.05792  -1.04976  -1.04395  -1.03267
 Alpha  occ. eigenvalues --   -0.93381  -0.93029  -0.91840  -0.90741  -0.90593
 Alpha  occ. eigenvalues --   -0.90231  -0.89765  -0.89386  -0.88924  -0.88614
 Alpha  occ. eigenvalues --   -0.87524  -0.86620  -0.86124  -0.85148  -0.85037
 Alpha  occ. eigenvalues --   -0.84388  -0.83947  -0.83659  -0.82711  -0.82557
 Alpha  occ. eigenvalues --   -0.81944  -0.80376  -0.79225  -0.79089  -0.78219
 Alpha  occ. eigenvalues --   -0.77561  -0.77391  -0.76894  -0.76691  -0.76071
 Alpha  occ. eigenvalues --   -0.75469  -0.74084  -0.73153  -0.71994  -0.70539
 Alpha  occ. eigenvalues --   -0.70167  -0.69809  -0.69052  -0.68712  -0.67846
 Alpha  occ. eigenvalues --   -0.67234  -0.66999  -0.66455  -0.66345  -0.66073
 Alpha  occ. eigenvalues --   -0.65920  -0.65066  -0.64761  -0.63659  -0.62269
 Alpha  occ. eigenvalues --   -0.61802  -0.61287  -0.60648  -0.59982  -0.59319
 Alpha  occ. eigenvalues --   -0.59097  -0.58873  -0.57973  -0.57566  -0.57461
 Alpha  occ. eigenvalues --   -0.57131  -0.56661  -0.56370  -0.55789  -0.55550
 Alpha  occ. eigenvalues --   -0.55494  -0.55068  -0.54992  -0.54818  -0.54782
 Alpha  occ. eigenvalues --   -0.54633  -0.54246  -0.53866  -0.53764  -0.53509
 Alpha  occ. eigenvalues --   -0.53292  -0.53145  -0.53008  -0.52721  -0.52613
 Alpha  occ. eigenvalues --   -0.52391  -0.52264  -0.51952  -0.51744  -0.51599
 Alpha  occ. eigenvalues --   -0.51544  -0.51396  -0.51083  -0.50841  -0.50551
 Alpha  occ. eigenvalues --   -0.50470  -0.50227  -0.49803  -0.49767  -0.49659
 Alpha  occ. eigenvalues --   -0.49484  -0.49275  -0.48878  -0.48671  -0.48504
 Alpha  occ. eigenvalues --   -0.48324  -0.48210  -0.47798  -0.47765  -0.47696
 Alpha  occ. eigenvalues --   -0.47464  -0.47194  -0.47069  -0.46790  -0.46743
 Alpha  occ. eigenvalues --   -0.46661  -0.46329  -0.46307  -0.46221  -0.46058
 Alpha  occ. eigenvalues --   -0.45963  -0.45692  -0.45465  -0.45129  -0.44798
 Alpha  occ. eigenvalues --   -0.44685  -0.44413  -0.44323  -0.44154  -0.43969
 Alpha  occ. eigenvalues --   -0.43649  -0.43503  -0.43151  -0.43050  -0.42978
 Alpha  occ. eigenvalues --   -0.42641  -0.42610  -0.42259  -0.42197  -0.42151
 Alpha  occ. eigenvalues --   -0.41850  -0.41671  -0.41339  -0.41107  -0.40548
 Alpha  occ. eigenvalues --   -0.40494  -0.40110  -0.39784  -0.39290  -0.39224
 Alpha  occ. eigenvalues --   -0.39141  -0.38923  -0.38726  -0.38605  -0.38042
 Alpha  occ. eigenvalues --   -0.37747  -0.37421  -0.37243  -0.36425  -0.36149
 Alpha  occ. eigenvalues --   -0.35658  -0.35630  -0.34984  -0.33686  -0.33274
 Alpha  occ. eigenvalues --   -0.32396  -0.31686  -0.31516  -0.30525  -0.25627
 Alpha  occ. eigenvalues --   -0.23032
 Alpha virt. eigenvalues --   -0.07187   0.00699   0.02454   0.04758   0.06216
 Alpha virt. eigenvalues --    0.06902   0.07445   0.07944   0.08290   0.09112
 Alpha virt. eigenvalues --    0.10508   0.11524   0.11649   0.12110   0.12245

 Mulliken charges:
               1
     1  Mg   0.954825
     2  C   -0.002951
     3  C   -0.079235
     4  C   -0.068615
     5  C   -0.089777
     6  N   -0.342447
     7  C   -0.003930
     8  C   -0.082504
     9  C   -0.062365
    10  C    0.071274
    11  C   -0.003261
    12  C   -0.034060
    13  C    0.067439
    14  C    0.181824
    15  O   -0.269582
    16  O   -0.334286
    17  N   -0.440897
    18  C    0.161010
    19  C   -0.184430
    20  C   -0.099942
    21  C    0.143793
    22  C    0.078868
    23  C    0.061147
    24  O   -0.224427
    25  C   -0.003504
    26  N   -0.395176
    27  C    0.093486
    28  C   -0.113885
    29  C   -0.043815
    30  C    0.058660
    31  C    0.017828
    32  C   -0.017534
    33  C   -0.061797
    34  N   -0.453195
    35  C    0.169597
    36  C   -0.184548
    37  C   -0.018270
    38  C    0.102201
    39  C    0.066878
    40  C    0.118423
    41  O   -0.228594
    42  C   -0.104744
    43  C    0.264794
    44  O   -0.223213
    45  O   -0.361002
    46  C    0.129706
    47  C    0.251688
    48  C   -0.164885
    49  C   -0.210240
    50  C    0.046335
    51  C    0.009779
    52  C    0.000287
    53  C    0.040610
    54  C   -0.229480
    55  C    0.002784
    56  C    0.045717
    57  C   -0.061920
    58  C    0.019703
    59  C   -0.186345
    60  C    0.009580
    61  C    0.026369
    62  C   -0.054387
    63  C    0.009668
    64  C   -0.235491
    65  C    0.022566
    66  C   -0.010112
    67  H   -0.010773
    68  H    0.028823
    69  H   -0.007568
    70  H    0.049592
    71  H    0.039771
    72  H    0.038427
    73  H    0.037363
    74  H    0.028513
    75  H    0.024826
    76  H    0.046259
    77  H    0.044363
    78  H    0.072375
    79  H    0.079964
    80  H    0.065828
    81  H    0.029564
    82  H    0.035274
    83  H    0.062017
    84  H    0.064491
    85  H    0.044775
    86  H    0.038148
    87  H    0.038495
    88  H    0.043489
    89  H    0.035228
    90  H    0.036004
    91  H    0.020079
    92  H    0.040417
    93  H    0.026661
    94  H    0.035683
    95  H    0.029967
    96  H    0.049287
    97  H    0.063957
    98  H    0.094026
    99  H    0.070519
   100  H    0.043738
   101  H    0.039671
   102  H    0.063736
   103  H    0.065487
   104  H    0.035185
   105  H    0.040949
   106  H    0.040292
   107  H    0.045634
   108  H    0.041920
   109  H    0.005101
   110  H    0.014949
   111  H    0.016496
   112  H    0.017791
   113  H    0.020160
   114  H    0.009310
   115  H    0.015771
   116  H    0.036075
   117  H    0.023378
   118  H    0.013059
   119  H    0.010639
   120  H    0.020975
   121  H    0.021503
   122  H    0.012850
   123  H    0.014917
   124  H    0.021971
   125  H    0.017407
   126  H    0.035139
   127  H    0.025041
   128  H    0.005051
   129  H    0.020881
   130  H    0.014932
   131  H    0.015979
   132  H    0.017568
   133  H    0.026009
   134  H    0.029465
   135  H    0.028071
   136  H    0.031626
   137  H    0.026971
   138  H    0.026153
   139  H    0.029270
   140  H    0.021039
 Sum of Mulliken charges =  -0.00000

 Dipole moment (field-independent basis, Debye):
    X=              7.5620    Y=              4.4234    Z=             -0.1435  Tot=              8.7619
 Quadrupole moment (field-independent basis, Debye-Ang):
   XX=           -392.0296   YY=           -423.9850   ZZ=           -401.8831
   XY=            -37.1240   XZ=             -3.5768   YZ=              7.5308

 Normal termination of Gaussian 16 at Wed May  4 20:31:06 2022.
