 Gaussian 16, Revision A.03,
 Gaussian 16:  ES64L-G16RevA.03 25-Dec-2016

 --------------------
 #p ZINDO=(nstates=5)
 --------------------

 -----------------------------
 step_401_chromophore_15 ZINDO
 -----------------------------
 Symbolic Z-matrix:
 Charge =  0 Multiplicity = 1

                         Standard orientation:
 ---------------------------------------------------------------------
 Center     Atomic      Atomic             Coordinates (Angstroms)
 Number     Number       Type             X           Y           Z
 ---------------------------------------------------------------------
      1         12           0       -4.715947    0.904780    0.216112
      2          6           0       -4.265396   -2.538964    0.651426
      3          6           0       -1.318610    1.334090    0.189429
      4          6           0       -5.143992    4.332658    0.137130
      5          6           0       -8.185966    0.468105    0.406018
      6          7           0       -3.006981   -0.502456    0.303267
      7          6           0       -3.057505   -1.872161    0.399301
      8          6           0       -1.653219   -2.482962    0.071563
      9          6           0       -0.738283   -1.222040    0.264298
     10          6           0       -1.732920   -0.052256    0.222123
     11          6           0        0.032408   -1.231680    1.627694
     12          6           0       -1.656873   -2.980202   -1.457498
     13          6           0       -0.634178   -4.030997   -1.919450
     14          6           0        0.638836   -4.145389   -1.041787
     15          8           0        0.686079   -4.615976    0.076869
     16          8           0        1.697805   -3.713756   -1.704136
     17          7           0       -3.390919    2.594752   -0.022061
     18          6           0       -2.012576    2.574930    0.083912
     19          6           0       -1.442561    3.886661   -0.090896
     20          6           0       -2.587866    4.785948   -0.112107
     21          6           0       -3.771248    3.918020   -0.013807
     22          6           0        0.025155    4.178976   -0.181992
     23          6           0       -2.692525    6.333428   -0.303286
     24          8           0       -3.785035    6.865065   -0.424933
     25          6           0       -1.392510    7.169547   -0.296602
     26          7           0       -6.388308    2.157758    0.308878
     27          6           0       -6.246725    3.484521    0.318045
     28          6           0       -7.669751    4.176026    0.442695
     29          6           0       -8.657890    2.947944    0.395853
     30          6           0       -7.722243    1.748314    0.313607
     31          6           0       -7.846156    5.230116    1.546749
     32          6           0       -9.753649    2.932177   -0.726941
     33          6           0      -11.236369    2.891148   -0.331145
     34          7           0       -6.029090   -0.678776    0.498785
     35          6           0       -7.403381   -0.693098    0.460101
     36          6           0       -7.890583   -2.045758    0.621949
     37          6           0       -6.686402   -2.884274    0.676604
     38          6           0       -5.586299   -1.978475    0.628498
     39          6           0       -9.358142   -2.524810    0.551610
     40          6           0       -6.114699   -4.202239    0.687886
     41          8           0       -6.719734   -5.273200    0.722609
     42          6           0       -4.564013   -4.024335    1.070294
     43          6           0       -3.807116   -5.074148    0.332286
     44          8           0       -3.886326   -5.374978   -0.820046
     45          8           0       -2.905524   -5.613437    1.196829
     46          6           0       -2.116175   -6.773551    0.695316
     47          6           0        3.034470   -4.081535   -1.215926
     48          6           0        4.063560   -3.130875   -1.795200
     49          6           0        5.277811   -2.823884   -1.194450
     50          6           0        5.830432   -3.501831   -0.015488
     51          6           0        6.242818   -1.949803   -1.997923
     52          6           0        6.002366   -0.451167   -1.904171
     53          6           0        6.254337    0.339157   -3.191775
     54          6           0        7.464085    1.329453   -3.153094
     55          6           0        7.321117    2.457844   -4.216506
     56          6           0        8.870308    0.705891   -3.117197
     57          6           0        9.298339    0.340066   -1.695280
     58          6           0       10.732806    0.871217   -1.371525
     59          6           0       10.651016    2.074055   -0.352634
     60          6           0       10.809633    3.392841   -1.178505
     61          6           0       11.692345    1.793126    0.714816
     62          6           0       11.086218    0.877548    1.833274
     63          6           0       12.181205    0.276092    2.766249
     64          6           0       12.140726    0.898784    4.253227
     65          6           0       13.396176    0.697177    5.070169
     66          6           0       10.935006    0.302716    5.005726
     67          1           0       -0.233321    1.450822    0.168666
     68          1           0       -5.380435    5.382897    0.322480
     69          1           0       -9.274976    0.394174    0.432882
     70          1           0       -1.411503   -3.339457    0.700422
     71          1           0        0.022598   -1.185107   -0.515037
     72          1           0        0.137034   -2.255264    1.987641
     73          1           0       -0.425268   -0.710149    2.468238
     74          1           0        1.079871   -0.937719    1.702602
     75          1           0       -1.789404   -2.170747   -2.176084
     76          1           0       -2.654369   -3.409458   -1.543108
     77          1           0       -0.368613   -3.642182   -2.901896
     78          1           0       -1.118572   -4.997227   -2.064652
     79          1           0        0.398923    4.695403    0.702060
     80          1           0        0.069610    4.658397   -1.159657
     81          1           0        0.522937    3.223820   -0.349010
     82          1           0       -0.680208    6.605692   -0.897982
     83          1           0       -0.979972    7.199154    0.712638
     84          1           0       -1.624093    8.184581   -0.619255
     85          1           0       -7.773765    4.744686   -0.481534
     86          1           0       -9.149591    2.749962    1.347257
     87          1           0       -8.098231    6.169181    1.053668
     88          1           0       -6.934964    5.388635    2.123239
     89          1           0       -8.640873    4.988970    2.253403
     90          1           0       -9.612967    2.188146   -1.510501
     91          1           0       -9.651887    3.840826   -1.320253
     92          1           0      -11.715282    3.765430   -0.770186
     93          1           0      -11.341021    2.862361    0.753947
     94          1           0      -11.815014    2.018243   -0.631271
     95          1           0      -10.070673   -1.829319    0.108495
     96          1           0       -9.769060   -2.775901    1.529367
     97          1           0       -9.289743   -3.435699   -0.042503
     98          1           0       -4.540822   -4.095326    2.158193
     99          1           0       -2.606687   -7.284440   -0.132914
    100          1           0       -1.725228   -7.435685    1.468340
    101          1           0       -1.106402   -6.507998    0.380363
    102          1           0        3.300372   -5.076712   -1.570953
    103          1           0        3.059154   -3.968106   -0.131447
    104          1           0        3.734015   -2.562816   -2.665580
    105          1           0        5.247025   -4.338570    0.369454
    106          1           0        5.896263   -2.750486    0.771741
    107          1           0        6.865541   -3.776856   -0.214618
    108          1           0        6.235880   -2.371501   -3.003348
    109          1           0        7.272097   -2.032815   -1.648091
    110          1           0        6.536698   -0.126733   -1.011265
    111          1           0        4.959173   -0.273348   -1.644159
    112          1           0        5.392948    0.980672   -3.378959
    113          1           0        6.392689   -0.267374   -4.086108
    114          1           0        7.419088    1.890805   -2.219407
    115          1           0        8.217547    2.474197   -4.836467
    116          1           0        7.254406    3.468502   -3.813025
    117          1           0        6.470356    2.200769   -4.847226
    118          1           0        9.499894    1.403639   -3.670517
    119          1           0        8.943800   -0.214532   -3.696882
    120          1           0        9.336558   -0.744858   -1.595426
    121          1           0        8.625509    0.666236   -0.901780
    122          1           0       11.201618    1.207541   -2.296278
    123          1           0       11.320945   -0.012415   -1.121384
    124          1           0        9.679229    2.220138    0.119659
    125          1           0       11.250804    4.137925   -0.515572
    126          1           0        9.843023    3.738970   -1.543005
    127          1           0       11.519613    3.312127   -2.001602
    128          1           0       12.025199    2.738334    1.145050
    129          1           0       12.585213    1.342042    0.280995
    130          1           0       10.494469    0.037567    1.470051
    131          1           0       10.384468    1.482661    2.407666
    132          1           0       13.175134    0.494054    2.377200
    133          1           0       11.984130   -0.788946    2.643546
    134          1           0       11.862341    1.951947    4.201847
    135          1           0       14.188722    0.335031    4.416211
    136          1           0       13.293076    0.069086    5.955878
    137          1           0       13.612943    1.696417    5.448170
    138          1           0       11.152299   -0.004066    6.028778
    139          1           0       10.479230   -0.526525    4.466169
    140          1           0       10.228728    1.129404    5.083687
 ---------------------------------------------------------------------

 SCF Done:  E(RZINDO/S) =  -474.044620682     A.U. after   18 cycles

 Excitation energies and oscillator strengths:

 Excited State   1:      Singlet-A      1.2877 eV  962.81 nm  f=0.5895  <S**2>=0.000
     175 ->178         0.17230
     176 ->177         0.66902
 This state for optimization and/or second-order correction.
 Total Energy, E(CIS/TDA) =  -473.997297286
 Copying the excited state density for this state as the 1-particle RhoCI density.

 Excited State   2:      Singlet-A      1.9176 eV  646.54 nm  f=0.0979  <S**2>=0.000
     175 ->177         0.57454
     176 ->178        -0.37425

 Excited State   3:      Singlet-A      2.9310 eV  423.01 nm  f=0.0530  <S**2>=0.000
     170 ->177         0.25358
     170 ->178        -0.16187
     170 ->179         0.21899
     170 ->180         0.37347
     170 ->186         0.17037
     170 ->188         0.11161
     170 ->189        -0.10826
     170 ->203        -0.11301
     171 ->180        -0.11747
     174 ->177         0.16256
     176 ->178        -0.11811

 Excited State   4:      Singlet-A      2.9996 eV  413.34 nm  f=0.7430  <S**2>=0.000
     171 ->177        -0.20197
     175 ->177         0.29510
     176 ->178         0.50322
     176 ->179        -0.16288
     176 ->180        -0.18875

 Excited State   5:      Singlet-A      3.0385 eV  408.05 nm  f=0.0126  <S**2>=0.000
     167 ->177        -0.21128
     167 ->179         0.31756
     167 ->180        -0.16666
     167 ->186         0.15748
     168 ->177        -0.24347
     168 ->179         0.32906
     168 ->180        -0.17167
     168 ->186         0.16235
     176 ->179         0.11064

 The electronic state is 1-A.
 Alpha  occ. eigenvalues --   -1.81056  -1.79064  -1.78672  -1.74698  -1.71749
 Alpha  occ. eigenvalues --   -1.69000  -1.66167  -1.60707  -1.58507  -1.56514
 Alpha  occ. eigenvalues --   -1.55361  -1.51853  -1.48320  -1.46009  -1.45308
 Alpha  occ. eigenvalues --   -1.44189  -1.41357  -1.40535  -1.38691  -1.38384
 Alpha  occ. eigenvalues --   -1.35576  -1.33988  -1.31651  -1.30223  -1.30059
 Alpha  occ. eigenvalues --   -1.28438  -1.24637  -1.23205  -1.21860  -1.18253
 Alpha  occ. eigenvalues --   -1.16474  -1.15858  -1.14717  -1.14311  -1.13454
 Alpha  occ. eigenvalues --   -1.13022  -1.10506  -1.10373  -1.04309  -1.03740
 Alpha  occ. eigenvalues --   -1.02937  -1.00234  -0.98066  -0.97400  -0.96709
 Alpha  occ. eigenvalues --   -0.96107  -0.94751  -0.93483  -0.92584  -0.92478
 Alpha  occ. eigenvalues --   -0.92176  -0.90157  -0.89662  -0.88309  -0.87322
 Alpha  occ. eigenvalues --   -0.85574  -0.84982  -0.82940  -0.82288  -0.80153
 Alpha  occ. eigenvalues --   -0.79285  -0.78980  -0.77554  -0.76026  -0.75496
 Alpha  occ. eigenvalues --   -0.74773  -0.74178  -0.73774  -0.73195  -0.73002
 Alpha  occ. eigenvalues --   -0.72570  -0.72169  -0.71042  -0.70549  -0.70060
 Alpha  occ. eigenvalues --   -0.69737  -0.69316  -0.69015  -0.68733  -0.68289
 Alpha  occ. eigenvalues --   -0.68155  -0.67902  -0.67075  -0.66836  -0.66021
 Alpha  occ. eigenvalues --   -0.65357  -0.65217  -0.64307  -0.63679  -0.63562
 Alpha  occ. eigenvalues --   -0.63350  -0.62571  -0.62534  -0.62202  -0.62020
 Alpha  occ. eigenvalues --   -0.61095  -0.60667  -0.60342  -0.60306  -0.59825
 Alpha  occ. eigenvalues --   -0.59563  -0.59310  -0.59161  -0.58562  -0.58540
 Alpha  occ. eigenvalues --   -0.58260  -0.58113  -0.57575  -0.57281  -0.57208
 Alpha  occ. eigenvalues --   -0.56490  -0.56367  -0.55236  -0.55034  -0.54773
 Alpha  occ. eigenvalues --   -0.54461  -0.53934  -0.53303  -0.52937  -0.52437
 Alpha  occ. eigenvalues --   -0.52352  -0.52248  -0.52060  -0.51866  -0.51814
 Alpha  occ. eigenvalues --   -0.51575  -0.51037  -0.50816  -0.50572  -0.50486
 Alpha  occ. eigenvalues --   -0.50094  -0.49741  -0.49466  -0.49206  -0.48896
 Alpha  occ. eigenvalues --   -0.48818  -0.48374  -0.48209  -0.47932  -0.47882
 Alpha  occ. eigenvalues --   -0.47798  -0.47323  -0.46799  -0.46715  -0.46458
 Alpha  occ. eigenvalues --   -0.46321  -0.46107  -0.45861  -0.45632  -0.45325
 Alpha  occ. eigenvalues --   -0.45221  -0.44695  -0.44457  -0.44190  -0.44112
 Alpha  occ. eigenvalues --   -0.44069  -0.43394  -0.42932  -0.42559  -0.42140
 Alpha  occ. eigenvalues --   -0.41882  -0.41293  -0.40555  -0.38844  -0.38470
 Alpha  occ. eigenvalues --   -0.37609  -0.36826  -0.36245  -0.34532  -0.33916
 Alpha  occ. eigenvalues --   -0.33638  -0.32202  -0.31686  -0.30780  -0.26509
 Alpha  occ. eigenvalues --   -0.21958
 Alpha virt. eigenvalues --   -0.08697  -0.01760  -0.00448   0.01544   0.02312
 Alpha virt. eigenvalues --    0.03006   0.03334   0.03614   0.03738   0.04665
 Alpha virt. eigenvalues --    0.05822   0.06321   0.06569   0.07773   0.07842

 Mulliken charges:
               1
     1  Mg   0.421505
     2  C   -0.026721
     3  C   -0.088585
     4  C   -0.086025
     5  C   -0.055978
     6  N   -0.266504
     7  C    0.094898
     8  C    0.006047
     9  C    0.019576
    10  C    0.166431
    11  C   -0.059093
    12  C   -0.033257
    13  C    0.008038
    14  C    0.476885
    15  O   -0.534326
    16  O   -0.265776
    17  N   -0.344834
    18  C    0.132275
    19  C    0.028854
    20  C   -0.055778
    21  C    0.162276
    22  C   -0.042082
    23  C    0.324686
    24  O   -0.504594
    25  C   -0.031878
    26  N   -0.270002
    27  C    0.170933
    28  C   -0.002586
    29  C    0.002375
    30  C    0.092921
    31  C   -0.046772
    32  C   -0.029909
    33  C   -0.057865
    34  N   -0.327580
    35  C    0.087349
    36  C   -0.009328
    37  C   -0.065886
    38  C    0.089989
    39  C   -0.041247
    40  C    0.326318
    41  O   -0.526149
    42  C    0.053607
    43  C    0.496892
    44  O   -0.512830
    45  O   -0.273346
    46  C    0.058582
    47  C    0.106016
    48  C   -0.104479
    49  C   -0.010233
    50  C   -0.035368
    51  C   -0.021929
    52  C   -0.025035
    53  C   -0.026410
    54  C   -0.019415
    55  C   -0.064171
    56  C   -0.027916
    57  C   -0.040494
    58  C   -0.042340
    59  C   -0.010702
    60  C   -0.061768
    61  C   -0.026505
    62  C   -0.040843
    63  C   -0.043623
    64  C   -0.012848
    65  C   -0.054416
    66  C   -0.061452
    67  H    0.017258
    68  H    0.053431
    69  H    0.027969
    70  H    0.052698
    71  H    0.033714
    72  H    0.019418
    73  H    0.021105
    74  H    0.021212
    75  H    0.027150
    76  H    0.028134
    77  H    0.026518
    78  H    0.057832
    79  H    0.047824
    80  H    0.039346
    81  H    0.025556
    82  H    0.036184
    83  H    0.038441
    84  H    0.046422
    85  H    0.029734
    86  H    0.033074
    87  H    0.021096
    88  H    0.024517
    89  H    0.021028
    90  H    0.024654
    91  H    0.010640
    92  H    0.020169
    93  H    0.016425
    94  H    0.020475
    95  H    0.022424
    96  H    0.030255
    97  H    0.033827
    98  H    0.065074
    99  H    0.055742
   100  H    0.037695
   101  H    0.036915
   102  H    0.053707
   103  H    0.057482
   104  H    0.035863
   105  H    0.027214
   106  H    0.026947
   107  H    0.027560
   108  H    0.026042
   109  H    0.013659
   110  H    0.023968
   111  H    0.010587
   112  H    0.012736
   113  H    0.024892
   114  H    0.010535
   115  H    0.014172
   116  H    0.022372
   117  H    0.018956
   118  H    0.023576
   119  H    0.013599
   120  H    0.010363
   121  H    0.023976
   122  H    0.017697
   123  H    0.019247
   124  H    0.025679
   125  H    0.010750
   126  H    0.021327
   127  H    0.020195
   128  H    0.012740
   129  H    0.021240
   130  H    0.019243
   131  H    0.017221
   132  H    0.015297
   133  H    0.026024
   134  H    0.025301
   135  H    0.020350
   136  H    0.024644
   137  H    0.014233
   138  H    0.018617
   139  H    0.020131
   140  H    0.010322
 Sum of Mulliken charges =  -0.00000

 Dipole moment (field-independent basis, Debye):
    X=             10.5000    Y=              7.4249    Z=              0.2003  Tot=             12.8615
 N-N= 4.366478277771D+03 E-N= 0.000000000000D+00  KE=-9.407227639618D+03
 Leave Link  601 at Wed May  4 20:48:42 2022, MaxMem=  6710886400 cpu:               0.9 elap:               0.1
 (Enter /sw/apps/gaussian-16.0/g16/l9999.exe)
 1\1\GINC-BP1-COMPUTE167\SP\RZINDO CIS\STO-3G\C55H74Mg1N4O6\OF15641\04-
 May-2022\0\\#p ZINDO=(nstates=5)\\step_401_chromophore_15 ZINDO\\0,1\M
 g,0,46.033,34.827,28.22\C,0,44.433,32.806,30.588\C,0,46.072,37.41,30.4
 68\C,0,47.292,36.933,25.787\C,0,45.841,32.227,25.881\N,0,45.405,35.007
 ,30.337\C,0,44.85,34.031,31.129\C,0,44.895,34.472,32.631\C,0,45.108,36
 .019,32.471\C,0,45.585,36.163,31.018\C,0,43.794,36.841,32.696\C,0,46.1
 62,33.772,33.331\C,0,46.198,33.616,34.86\C,0,45.285,34.592,35.646\O,0,

 Normal termination of Gaussian 16 at Wed May  4 20:48:42 2022.
