 Gaussian 16, Revision A.03,
 Gaussian 16:  ES64L-G16RevA.03 25-Dec-2016

 ------------------------------
 #p blyp/Def2SVP td=(nstates=5)
 ------------------------------

 -------------------------------------------------
 step_101_chromophore_1 TDDFT with blyp functional
 -------------------------------------------------
 Symbolic Z-matrix:
 Charge =  0 Multiplicity = 1

                         Standard orientation:
 ---------------------------------------------------------------------
 Center     Atomic      Atomic             Coordinates (Angstroms)
 Number     Number       Type             X           Y           Z
 ---------------------------------------------------------------------
      1         12           0        6.046158    0.590351    0.227501
      2          6           0        3.886732   -2.204215   -0.301795
      3          6           0        3.611688    2.594337   -1.096142
      4          6           0        8.347584    3.133212    0.233215
      5          6           0        8.789405   -1.729641    0.596197
      6          7           0        3.930481    0.177246   -0.448018
      7          6           0        3.286226   -0.970832   -0.661720
      8          6           0        1.939866   -0.764282   -1.330357
      9          6           0        2.097290    0.701700   -1.949926
     10          6           0        3.261438    1.203996   -1.088405
     11          6           0        2.265108    0.738345   -3.524296
     12          6           0        0.696825   -0.792603   -0.402304
     13          6           0       -0.736781   -0.968634   -1.064534
     14          6           0       -1.815508   -1.628348   -0.280965
     15          8           0       -1.890234   -1.589560    0.951611
     16          8           0       -2.730979   -2.243278   -1.130673
     17          7           0        5.939687    2.665877   -0.061381
     18          6           0        4.800493    3.229267   -0.595534
     19          6           0        5.072239    4.657103   -0.645571
     20          6           0        6.428459    4.879936   -0.224030
     21          6           0        6.992338    3.521972   -0.017956
     22          6           0        4.016289    5.612094   -1.098014
     23          6           0        7.175930    6.125018   -0.077272
     24          8           0        8.398850    6.142408    0.041486
     25          6           0        6.428359    7.439252   -0.088170
     26          7           0        8.165804    0.681673    0.384860
     27          6           0        8.877321    1.880971    0.360573
     28          6           0       10.373491    1.557619    0.292771
     29          6           0       10.430665    0.106605    0.906276
     30          6           0        9.040013   -0.349707    0.626263
     31          6           0       10.957346    1.809361   -1.109571
     32          6           0       10.820195    0.003128    2.460911
     33          6           0       11.712481   -1.191731    2.957212
     34          7           0        6.348234   -1.536416    0.252551
     35          6           0        7.536959   -2.311621    0.374680
     36          6           0        7.144784   -3.743132    0.162547
     37          6           0        5.723918   -3.761608    0.002862
     38          6           0        5.301686   -2.376507    0.108226
     39          6           0        8.046433   -4.960834    0.044387
     40          6           0        4.590582   -4.657266   -0.192463
     41          8           0        4.472878   -5.871231   -0.223507
     42          6           0        3.381544   -3.679098   -0.409159
     43          6           0        2.240094   -3.953883    0.442922
     44          8           0        2.216106   -3.761003    1.664049
     45          8           0        1.267866   -4.491437   -0.297568
     46          6           0        0.034212   -4.806390    0.435913
     47          6           0       -3.926024   -2.827384   -0.444853
     48          6           0       -5.212818   -2.197126   -0.739515
     49          6           0       -6.534731   -2.725284   -0.703879
     50          6           0       -6.748471   -4.197103   -0.287287
     51          6           0       -7.740236   -1.927144   -1.057848
     52          6           0       -8.240865   -0.887667   -0.056657
     53          6           0       -8.328369    0.523150   -0.665439
     54          6           0       -8.742954    1.628078    0.384152
     55          6           0       -7.479489    2.087954    1.031005
     56          6           0       -9.759053    1.172164    1.454106
     57          6           0      -10.752246    2.324643    1.736285
     58          6           0      -11.879984    1.942190    2.765142
     59          6           0      -13.273086    1.860964    2.097476
     60          6           0      -14.229638    2.497809    3.193599
     61          6           0      -13.869168    0.486869    1.765821
     62          6           0      -13.584484   -0.032841    0.314614
     63          6           0      -14.803102   -0.146261   -0.627657
     64          6           0      -14.887237    0.989739   -1.698969
     65          6           0      -15.573779    2.286879   -1.141210
     66          6           0      -15.488327    0.456311   -3.001495
     67          1           0        2.779226    3.192270   -1.471792
     68          1           0        9.038156    3.977537    0.176312
     69          1           0        9.640878   -2.399092    0.733405
     70          1           0        1.741530   -1.523118   -2.087761
     71          1           0        1.266375    1.390932   -1.800540
     72          1           0        3.293099    0.913331   -3.842166
     73          1           0        1.627117    1.569847   -3.825426
     74          1           0        2.039163   -0.204869   -4.021244
     75          1           0        0.551024    0.208572    0.004852
     76          1           0        0.793590   -1.460894    0.452966
     77          1           0       -0.491453   -1.446165   -2.013795
     78          1           0       -1.161011    0.017574   -1.254914
     79          1           0        2.987415    5.251125   -1.088779
     80          1           0        4.257162    6.049835   -2.066320
     81          1           0        4.109382    6.527580   -0.513835
     82          1           0        5.787250    7.638338    0.770141
     83          1           0        5.920126    7.623130   -1.034401
     84          1           0        7.169481    8.233470   -0.001954
     85          1           0       10.926604    2.239974    0.939440
     86          1           0       11.177040   -0.486998    0.378100
     87          1           0       10.172568    2.256163   -1.719126
     88          1           0       11.333010    0.867036   -1.506501
     89          1           0       11.734342    2.572627   -1.159734
     90          1           0        9.897388   -0.057767    3.037355
     91          1           0       11.253084    0.984611    2.655284
     92          1           0       12.339641   -0.947143    3.814326
     93          1           0       12.446913   -1.498913    2.212039
     94          1           0       11.130800   -2.074643    3.222789
     95          1           0        8.933346   -4.722020    0.631378
     96          1           0        8.457176   -5.118345   -0.953395
     97          1           0        7.497764   -5.828617    0.409555
     98          1           0        3.015961   -3.815516   -1.427241
     99          1           0       -0.571222   -5.448289   -0.203916
    100          1           0       -0.587318   -3.964524    0.741344
    101          1           0        0.404319   -5.424907    1.253311
    102          1           0       -3.882353   -2.741611    0.640918
    103          1           0       -3.907015   -3.861957   -0.785758
    104          1           0       -5.262277   -1.147100   -1.026868
    105          1           0       -7.338911   -4.343508    0.617405
    106          1           0       -5.800287   -4.727744   -0.204700
    107          1           0       -7.303821   -4.746231   -1.048402
    108          1           0       -8.494892   -2.710593   -1.128099
    109          1           0       -7.640148   -1.455531   -2.035560
    110          1           0       -7.478117   -0.755779    0.710929
    111          1           0       -9.239260   -1.144430    0.296870
    112          1           0       -9.145706    0.472910   -1.385111
    113          1           0       -7.476394    0.723285   -1.314995
    114          1           0       -9.196845    2.482188   -0.119484
    115          1           0       -6.484659    1.750219    0.740120
    116          1           0       -7.595911    1.976261    2.108497
    117          1           0       -7.468682    3.176533    0.992553
    118          1           0       -9.336652    0.915018    2.425228
    119          1           0      -10.418740    0.355788    1.159596
    120          1           0      -11.161885    2.733785    0.812759
    121          1           0      -10.231911    3.238937    2.021366
    122          1           0      -11.808783    2.301159    3.791561
    123          1           0      -11.674922    0.903290    3.022561
    124          1           0      -13.328924    2.469272    1.194404
    125          1           0      -15.195639    2.693334    2.728014
    126          1           0      -13.928747    3.487977    3.535679
    127          1           0      -14.281128    1.719538    3.954775
    128          1           0      -14.941051    0.572754    1.947548
    129          1           0      -13.592443   -0.307130    2.460191
    130          1           0      -12.929545   -0.900608    0.235761
    131          1           0      -12.948758    0.724699   -0.142230
    132          1           0      -15.665260   -0.090348    0.036604
    133          1           0      -14.844303   -1.112904   -1.130012
    134          1           0      -13.906680    1.296986   -2.064715
    135          1           0      -15.070925    3.208485   -1.434823
    136          1           0      -15.784103    2.207978   -0.074493
    137          1           0      -16.545386    2.197605   -1.628205
    138          1           0      -15.206989   -0.588799   -3.129867
    139          1           0      -15.144377    1.075195   -3.830344
    140          1           0      -16.576580    0.411736   -3.043684
 ---------------------------------------------------------------------

 SCF Done:  E(RB-LYP) =  -3007.38497243     A.U. after   21 cycles

 Excitation energies and oscillator strengths:

 Excited State   1:      Singlet-A      1.7419 eV  711.77 nm  f=0.2856  <S**2>=0.000
     245 -> 248        0.18313
     246 -> 247        0.69081
     246 <- 247       -0.15841
 This state for optimization and/or second-order correction.
 Total Energy, E(TD-HF/TD-DFT) =  -3007.32095783
 Copying the excited state density for this state as the 1-particle RhoCI density.

 Excited State   2:      Singlet-A      1.8829 eV  658.47 nm  f=0.0060  <S**2>=0.000
     244 -> 247        0.70008

 Excited State   3:      Singlet-A      1.9906 eV  622.83 nm  f=0.0790  <S**2>=0.000
     240 -> 247        0.11616
     243 -> 247        0.11244
     245 -> 247        0.63644
     246 -> 248       -0.24566

 Excited State   4:      Singlet-A      2.0411 eV  607.45 nm  f=0.0002  <S**2>=0.000
     242 -> 247        0.70589

 Excited State   5:      Singlet-A      2.0545 eV  603.47 nm  f=0.0032  <S**2>=0.000
     243 -> 247        0.69641

 The electronic state is 1-A.
 Alpha  occ. eigenvalues --  -46.27966 -18.82980 -18.82325 -18.77771 -18.76169
 Alpha  occ. eigenvalues --  -18.75408 -18.75193 -14.03975 -14.03143 -14.01421
 Alpha  occ. eigenvalues --  -14.01356 -10.05081 -10.02784 -10.00023  -9.99315
 Alpha  occ. eigenvalues --   -9.98437  -9.97214  -9.97185  -9.97100  -9.96387
 Alpha  occ. eigenvalues --   -9.96215  -9.96186  -9.96077  -9.96058  -9.95482
 Alpha  occ. eigenvalues --   -9.94960  -9.94924  -9.94592  -9.94387  -9.94371
 Alpha  occ. eigenvalues --   -9.94018  -9.93981  -9.93801  -9.93694  -9.93519
 Alpha  occ. eigenvalues --   -9.93303  -9.93290  -9.93162  -9.93153  -9.92995
 Alpha  occ. eigenvalues --   -9.92882  -9.92569  -9.92464  -9.92463  -9.92423
 Alpha  occ. eigenvalues --   -9.92379  -9.92183  -9.92113  -9.92076  -9.92071
 Alpha  occ. eigenvalues --   -9.91992  -9.91986  -9.91612  -9.91609  -9.91527
 Alpha  occ. eigenvalues --   -9.91467  -9.91364  -9.91345  -9.91332  -9.91204
 Alpha  occ. eigenvalues --   -9.91167  -9.91162  -9.91110  -9.90814  -9.90758
 Alpha  occ. eigenvalues --   -9.90330  -2.92393  -1.72837  -1.72259  -1.72109
 Alpha  occ. eigenvalues --   -0.98249  -0.97426  -0.91617  -0.91118  -0.90114
 Alpha  occ. eigenvalues --   -0.88650  -0.86857  -0.85626  -0.84996  -0.84081
 Alpha  occ. eigenvalues --   -0.74329  -0.73901  -0.73054  -0.72762  -0.72161
 Alpha  occ. eigenvalues --   -0.71946  -0.71158  -0.70949  -0.70826  -0.70267
 Alpha  occ. eigenvalues --   -0.69552  -0.69290  -0.68332  -0.67615  -0.67129
 Alpha  occ. eigenvalues --   -0.66645  -0.65836  -0.65380  -0.65294  -0.64487
 Alpha  occ. eigenvalues --   -0.64217  -0.62944  -0.62492  -0.61993  -0.60651
 Alpha  occ. eigenvalues --   -0.60552  -0.60337  -0.59884  -0.59250  -0.58840
 Alpha  occ. eigenvalues --   -0.58506  -0.57458  -0.56714  -0.55655  -0.54715
 Alpha  occ. eigenvalues --   -0.54125  -0.53451  -0.53094  -0.52955  -0.52296
 Alpha  occ. eigenvalues --   -0.51930  -0.50967  -0.50726  -0.50158  -0.50141
 Alpha  occ. eigenvalues --   -0.49529  -0.49172  -0.48509  -0.48128  -0.46738
 Alpha  occ. eigenvalues --   -0.46533  -0.46381  -0.45862  -0.45266  -0.44643
 Alpha  occ. eigenvalues --   -0.44169  -0.43667  -0.43404  -0.42785  -0.42463
 Alpha  occ. eigenvalues --   -0.42276  -0.42095  -0.41763  -0.41416  -0.41172
 Alpha  occ. eigenvalues --   -0.40788  -0.40528  -0.40420  -0.40325  -0.40142
 Alpha  occ. eigenvalues --   -0.39863  -0.39791  -0.39714  -0.39634  -0.39223
 Alpha  occ. eigenvalues --   -0.38965  -0.38836  -0.38640  -0.38513  -0.38474
 Alpha  occ. eigenvalues --   -0.38317  -0.38038  -0.37555  -0.37468  -0.37240
 Alpha  occ. eigenvalues --   -0.36943  -0.36687  -0.36601  -0.36362  -0.36260
 Alpha  occ. eigenvalues --   -0.36101  -0.35951  -0.35842  -0.35770  -0.35625
 Alpha  occ. eigenvalues --   -0.35506  -0.35094  -0.34931  -0.34902  -0.34830
 Alpha  occ. eigenvalues --   -0.34544  -0.34358  -0.34188  -0.34003  -0.33969
 Alpha  occ. eigenvalues --   -0.33793  -0.33772  -0.33535  -0.33327  -0.33132
 Alpha  occ. eigenvalues --   -0.32693  -0.32598  -0.32502  -0.32338  -0.32230
 Alpha  occ. eigenvalues --   -0.32123  -0.31974  -0.31890  -0.31651  -0.31415
 Alpha  occ. eigenvalues --   -0.31190  -0.31052  -0.30762  -0.30671  -0.30588
 Alpha  occ. eigenvalues --   -0.30375  -0.30135  -0.30099  -0.29910  -0.29683
 Alpha  occ. eigenvalues --   -0.29640  -0.29351  -0.29148  -0.29130  -0.29102
 Alpha  occ. eigenvalues --   -0.28976  -0.28956  -0.28649  -0.28410  -0.28219
 Alpha  occ. eigenvalues --   -0.28108  -0.28056  -0.27141  -0.26751  -0.26501
 Alpha  occ. eigenvalues --   -0.26094  -0.25864  -0.25691  -0.25655  -0.25599
 Alpha  occ. eigenvalues --   -0.24993  -0.24921  -0.24827  -0.23870  -0.23773
 Alpha  occ. eigenvalues --   -0.23383  -0.22943  -0.21951  -0.20757  -0.20526
 Alpha  occ. eigenvalues --   -0.20210  -0.19310  -0.19241  -0.18630  -0.17500
 Alpha  occ. eigenvalues --   -0.15822
 Alpha virt. eigenvalues --   -0.11809  -0.07003  -0.06394  -0.04997  -0.03840
 Alpha virt. eigenvalues --   -0.02917  -0.02498  -0.02006  -0.01621   0.00048
 Alpha virt. eigenvalues --    0.00747   0.01217   0.01931   0.02110   0.02685

 Mulliken charges:
               1
     1  Mg   0.689504
     2  C    0.004252
     3  C   -0.057550
     4  C   -0.030172
     5  C   -0.094901
     6  N   -0.189926
     7  C   -0.034135
     8  C    0.038460
     9  C   -0.035852
    10  C    0.014321
    11  C    0.127677
    12  C    0.082805
    13  C    0.119641
    14  C    0.097057
    15  O   -0.200724
    16  O   -0.286367
    17  N   -0.298287
    18  C    0.165211
    19  C   -0.138250
    20  C    0.082197
    21  C    0.051209
    22  C    0.175152
    23  C   -0.101781
    24  O   -0.168663
    25  C    0.112448
    26  N   -0.238678
    27  C    0.066858
    28  C   -0.000796
    29  C   -0.001601
    30  C    0.077273
    31  C    0.145859
    32  C    0.103604
    33  C    0.056326
    34  N   -0.270929
    35  C    0.139584
    36  C   -0.166040
    37  C    0.006600
    38  C    0.072108
    39  C    0.163468
    40  C    0.026286
    41  O   -0.119618
    42  C    0.071237
    43  C    0.086309
    44  O   -0.208799
    45  O   -0.247515
    46  C    0.200252
    47  C    0.329737
    48  C   -0.098252
    49  C   -0.200006
    50  C    0.122526
    51  C    0.197310
    52  C    0.092764
    53  C    0.041370
    54  C   -0.023466
    55  C    0.132260
    56  C    0.073166
    57  C    0.032888
    58  C    0.166955
    59  C   -0.087325
    60  C    0.073021
    61  C    0.111426
    62  C    0.063804
    63  C    0.116476
    64  C   -0.104840
    65  C    0.110841
    66  C    0.089633
    67  H   -0.059457
    68  H   -0.042201
    69  H   -0.056625
    70  H   -0.031546
    71  H   -0.026209
    72  H   -0.006994
    73  H   -0.002944
    74  H   -0.002942
    75  H   -0.023679
    76  H    0.014850
    77  H   -0.006948
    78  H    0.012743
    79  H   -0.000763
    80  H   -0.005826
    81  H   -0.020191
    82  H    0.018628
    83  H    0.003371
    84  H   -0.024120
    85  H   -0.034822
    86  H   -0.039636
    87  H   -0.005443
    88  H   -0.008396
    89  H   -0.006997
    90  H   -0.012636
    91  H   -0.019192
    92  H   -0.005425
    93  H   -0.016219
    94  H    0.004518
    95  H   -0.019853
    96  H    0.009015
    97  H    0.023862
    98  H   -0.013562
    99  H    0.003134
   100  H    0.038203
   101  H    0.019798
   102  H    0.025467
   103  H    0.012359
   104  H   -0.042341
   105  H    0.003031
   106  H   -0.024986
   107  H   -0.008787
   108  H   -0.051580
   109  H   -0.019079
   110  H   -0.024215
   111  H   -0.019908
   112  H   -0.050194
   113  H   -0.029652
   114  H   -0.036206
   115  H   -0.004805
   116  H   -0.037957
   117  H   -0.036884
   118  H   -0.017571
   119  H   -0.017130
   120  H   -0.037621
   121  H   -0.049109
   122  H   -0.030976
   123  H   -0.063202
   124  H   -0.028608
   125  H   -0.023924
   126  H   -0.013904
   127  H   -0.006324
   128  H   -0.040127
   129  H   -0.036901
   130  H   -0.031110
   131  H   -0.033068
   132  H   -0.036360
   133  H   -0.043792
   134  H   -0.033460
   135  H   -0.003125
   136  H   -0.005846
   137  H   -0.026094
   138  H   -0.020921
   139  H   -0.014144
   140  H   -0.021846
 Sum of Mulliken charges =  -0.00000

 Dipole moment (field-independent basis, Debye):
    X=             -2.8728    Y=              2.3107    Z=             -3.2900  Tot=              4.9414
 Quadrupole moment (field-independent basis, Debye-Ang):
   XX=           -370.2173   YY=           -426.7619   ZZ=           -409.3300
   XY=             -1.8244   XZ=              1.7764   YZ=             -0.1593

 Normal termination of Gaussian 16 at Wed Apr 27 00:14:34 2022.
