 Gaussian 16, Revision A.03,
 Gaussian 16:  ES64L-G16RevA.03 25-Dec-2016

 -----------------------------------
 #p cam-b3lyp/Def2SVP td=(nstates=5)
 -----------------------------------

 ------------------------------------------------------
 step_101_chromophore_1 TDDFT with cam-b3lyp functional
 ------------------------------------------------------
 Symbolic Z-matrix:
 Charge =  0 Multiplicity = 1

                         Standard orientation:
 ---------------------------------------------------------------------
 Center     Atomic      Atomic             Coordinates (Angstroms)
 Number     Number       Type             X           Y           Z
 ---------------------------------------------------------------------
      1         12           0        6.046158    0.590351    0.227501
      2          6           0        3.886732   -2.204215   -0.301795
      3          6           0        3.611688    2.594337   -1.096142
      4          6           0        8.347584    3.133212    0.233215
      5          6           0        8.789405   -1.729641    0.596197
      6          7           0        3.930481    0.177246   -0.448018
      7          6           0        3.286226   -0.970832   -0.661720
      8          6           0        1.939866   -0.764282   -1.330357
      9          6           0        2.097290    0.701700   -1.949926
     10          6           0        3.261438    1.203996   -1.088405
     11          6           0        2.265108    0.738345   -3.524296
     12          6           0        0.696825   -0.792603   -0.402304
     13          6           0       -0.736781   -0.968634   -1.064534
     14          6           0       -1.815508   -1.628348   -0.280965
     15          8           0       -1.890234   -1.589560    0.951611
     16          8           0       -2.730979   -2.243278   -1.130673
     17          7           0        5.939687    2.665877   -0.061381
     18          6           0        4.800493    3.229267   -0.595534
     19          6           0        5.072239    4.657103   -0.645571
     20          6           0        6.428459    4.879936   -0.224030
     21          6           0        6.992338    3.521972   -0.017956
     22          6           0        4.016289    5.612094   -1.098014
     23          6           0        7.175930    6.125018   -0.077272
     24          8           0        8.398850    6.142408    0.041486
     25          6           0        6.428359    7.439252   -0.088170
     26          7           0        8.165804    0.681673    0.384860
     27          6           0        8.877321    1.880971    0.360573
     28          6           0       10.373491    1.557619    0.292771
     29          6           0       10.430665    0.106605    0.906276
     30          6           0        9.040013   -0.349707    0.626263
     31          6           0       10.957346    1.809361   -1.109571
     32          6           0       10.820195    0.003128    2.460911
     33          6           0       11.712481   -1.191731    2.957212
     34          7           0        6.348234   -1.536416    0.252551
     35          6           0        7.536959   -2.311621    0.374680
     36          6           0        7.144784   -3.743132    0.162547
     37          6           0        5.723918   -3.761608    0.002862
     38          6           0        5.301686   -2.376507    0.108226
     39          6           0        8.046433   -4.960834    0.044387
     40          6           0        4.590582   -4.657266   -0.192463
     41          8           0        4.472878   -5.871231   -0.223507
     42          6           0        3.381544   -3.679098   -0.409159
     43          6           0        2.240094   -3.953883    0.442922
     44          8           0        2.216106   -3.761003    1.664049
     45          8           0        1.267866   -4.491437   -0.297568
     46          6           0        0.034212   -4.806390    0.435913
     47          6           0       -3.926024   -2.827384   -0.444853
     48          6           0       -5.212818   -2.197126   -0.739515
     49          6           0       -6.534731   -2.725284   -0.703879
     50          6           0       -6.748471   -4.197103   -0.287287
     51          6           0       -7.740236   -1.927144   -1.057848
     52          6           0       -8.240865   -0.887667   -0.056657
     53          6           0       -8.328369    0.523150   -0.665439
     54          6           0       -8.742954    1.628078    0.384152
     55          6           0       -7.479489    2.087954    1.031005
     56          6           0       -9.759053    1.172164    1.454106
     57          6           0      -10.752246    2.324643    1.736285
     58          6           0      -11.879984    1.942190    2.765142
     59          6           0      -13.273086    1.860964    2.097476
     60          6           0      -14.229638    2.497809    3.193599
     61          6           0      -13.869168    0.486869    1.765821
     62          6           0      -13.584484   -0.032841    0.314614
     63          6           0      -14.803102   -0.146261   -0.627657
     64          6           0      -14.887237    0.989739   -1.698969
     65          6           0      -15.573779    2.286879   -1.141210
     66          6           0      -15.488327    0.456311   -3.001495
     67          1           0        2.779226    3.192270   -1.471792
     68          1           0        9.038156    3.977537    0.176312
     69          1           0        9.640878   -2.399092    0.733405
     70          1           0        1.741530   -1.523118   -2.087761
     71          1           0        1.266375    1.390932   -1.800540
     72          1           0        3.293099    0.913331   -3.842166
     73          1           0        1.627117    1.569847   -3.825426
     74          1           0        2.039163   -0.204869   -4.021244
     75          1           0        0.551024    0.208572    0.004852
     76          1           0        0.793590   -1.460894    0.452966
     77          1           0       -0.491453   -1.446165   -2.013795
     78          1           0       -1.161011    0.017574   -1.254914
     79          1           0        2.987415    5.251125   -1.088779
     80          1           0        4.257162    6.049835   -2.066320
     81          1           0        4.109382    6.527580   -0.513835
     82          1           0        5.787250    7.638338    0.770141
     83          1           0        5.920126    7.623130   -1.034401
     84          1           0        7.169481    8.233470   -0.001954
     85          1           0       10.926604    2.239974    0.939440
     86          1           0       11.177040   -0.486998    0.378100
     87          1           0       10.172568    2.256163   -1.719126
     88          1           0       11.333010    0.867036   -1.506501
     89          1           0       11.734342    2.572627   -1.159734
     90          1           0        9.897388   -0.057767    3.037355
     91          1           0       11.253084    0.984611    2.655284
     92          1           0       12.339641   -0.947143    3.814326
     93          1           0       12.446913   -1.498913    2.212039
     94          1           0       11.130800   -2.074643    3.222789
     95          1           0        8.933346   -4.722020    0.631378
     96          1           0        8.457176   -5.118345   -0.953395
     97          1           0        7.497764   -5.828617    0.409555
     98          1           0        3.015961   -3.815516   -1.427241
     99          1           0       -0.571222   -5.448289   -0.203916
    100          1           0       -0.587318   -3.964524    0.741344
    101          1           0        0.404319   -5.424907    1.253311
    102          1           0       -3.882353   -2.741611    0.640918
    103          1           0       -3.907015   -3.861957   -0.785758
    104          1           0       -5.262277   -1.147100   -1.026868
    105          1           0       -7.338911   -4.343508    0.617405
    106          1           0       -5.800287   -4.727744   -0.204700
    107          1           0       -7.303821   -4.746231   -1.048402
    108          1           0       -8.494892   -2.710593   -1.128099
    109          1           0       -7.640148   -1.455531   -2.035560
    110          1           0       -7.478117   -0.755779    0.710929
    111          1           0       -9.239260   -1.144430    0.296870
    112          1           0       -9.145706    0.472910   -1.385111
    113          1           0       -7.476394    0.723285   -1.314995
    114          1           0       -9.196845    2.482188   -0.119484
    115          1           0       -6.484659    1.750219    0.740120
    116          1           0       -7.595911    1.976261    2.108497
    117          1           0       -7.468682    3.176533    0.992553
    118          1           0       -9.336652    0.915018    2.425228
    119          1           0      -10.418740    0.355788    1.159596
    120          1           0      -11.161885    2.733785    0.812759
    121          1           0      -10.231911    3.238937    2.021366
    122          1           0      -11.808783    2.301159    3.791561
    123          1           0      -11.674922    0.903290    3.022561
    124          1           0      -13.328924    2.469272    1.194404
    125          1           0      -15.195639    2.693334    2.728014
    126          1           0      -13.928747    3.487977    3.535679
    127          1           0      -14.281128    1.719538    3.954775
    128          1           0      -14.941051    0.572754    1.947548
    129          1           0      -13.592443   -0.307130    2.460191
    130          1           0      -12.929545   -0.900608    0.235761
    131          1           0      -12.948758    0.724699   -0.142230
    132          1           0      -15.665260   -0.090348    0.036604
    133          1           0      -14.844303   -1.112904   -1.130012
    134          1           0      -13.906680    1.296986   -2.064715
    135          1           0      -15.070925    3.208485   -1.434823
    136          1           0      -15.784103    2.207978   -0.074493
    137          1           0      -16.545386    2.197605   -1.628205
    138          1           0      -15.206989   -0.588799   -3.129867
    139          1           0      -15.144377    1.075195   -3.830344
    140          1           0      -16.576580    0.411736   -3.043684
 ---------------------------------------------------------------------

 SCF Done:  E(RCAM-B3LYP) =  -3007.16300002     A.U. after   19 cycles

 Excitation energies and oscillator strengths:

 Excited State   1:      Singlet-A      1.6181 eV  766.25 nm  f=0.3691  <S**2>=0.000
     245 -> 248        0.17410
     246 -> 247        0.68804
     245 <- 248        0.11117
 This state for optimization and/or second-order correction.
 Total Energy, E(TD-HF/TD-DFT) =  -3007.10353745
 Copying the excited state density for this state as the 1-particle RhoCI density.

 Excited State   2:      Singlet-A      2.2013 eV  563.22 nm  f=0.1091  <S**2>=0.000
     245 -> 247        0.63395
     246 -> 248       -0.30340

 Excited State   3:      Singlet-A      3.3055 eV  375.08 nm  f=0.0017  <S**2>=0.000
     242 -> 247       -0.34718
     243 -> 247        0.59960

 Excited State   4:      Singlet-A      3.3958 eV  365.11 nm  f=0.1169  <S**2>=0.000
     242 -> 247        0.48776
     243 -> 247        0.28576
     245 -> 247        0.12233
     246 -> 248        0.38743

 Excited State   5:      Singlet-A      3.5290 eV  351.33 nm  f=0.7617  <S**2>=0.000
     242 -> 247       -0.34797
     243 -> 247       -0.18622
     245 -> 247        0.28932
     246 -> 248        0.49157

 The electronic state is 1-A.
 Alpha  occ. eigenvalues --  -46.89526 -19.25929 -19.25414 -19.20762 -19.19565
 Alpha  occ. eigenvalues --  -19.18555 -19.18261 -14.42871 -14.41969 -14.39873
 Alpha  occ. eigenvalues --  -14.39767 -10.40486 -10.38247 -10.35583 -10.34381
 Alpha  occ. eigenvalues --  -10.32556 -10.31755 -10.31488 -10.31338 -10.30903
 Alpha  occ. eigenvalues --  -10.30761 -10.30460 -10.30352 -10.30166 -10.30074
 Alpha  occ. eigenvalues --  -10.29155 -10.29047 -10.29012 -10.28951 -10.28430
 Alpha  occ. eigenvalues --  -10.28350 -10.28210 -10.28103 -10.27601 -10.27587
 Alpha  occ. eigenvalues --  -10.27347 -10.27251 -10.27094 -10.27045 -10.26838
 Alpha  occ. eigenvalues --  -10.26673 -10.26664 -10.26448 -10.26322 -10.26194
 Alpha  occ. eigenvalues --  -10.26047 -10.25969 -10.25900 -10.25880 -10.25839
 Alpha  occ. eigenvalues --  -10.25818 -10.25702 -10.25623 -10.25608 -10.25202
 Alpha  occ. eigenvalues --  -10.25144 -10.25071 -10.25046 -10.25034 -10.24889
 Alpha  occ. eigenvalues --  -10.24846 -10.24793 -10.24774 -10.24448 -10.24370
 Alpha  occ. eigenvalues --  -10.23871  -3.17849  -1.92773  -1.92286  -1.92150
 Alpha  occ. eigenvalues --   -1.16904  -1.15894  -1.10213  -1.09387  -1.07976
 Alpha  occ. eigenvalues --   -1.06716  -1.04584  -1.03212  -1.02452  -1.01634
 Alpha  occ. eigenvalues --   -0.91508  -0.90804  -0.89861  -0.89533  -0.88882
 Alpha  occ. eigenvalues --   -0.88623  -0.87655  -0.87524  -0.87362  -0.86844
 Alpha  occ. eigenvalues --   -0.85905  -0.85891  -0.84616  -0.83824  -0.83244
 Alpha  occ. eigenvalues --   -0.82700  -0.81863  -0.81342  -0.81184  -0.80357
 Alpha  occ. eigenvalues --   -0.80078  -0.78607  -0.78193  -0.77502  -0.76144
 Alpha  occ. eigenvalues --   -0.75939  -0.75704  -0.75135  -0.74509  -0.74066
 Alpha  occ. eigenvalues --   -0.73549  -0.72456  -0.71559  -0.70441  -0.69286
 Alpha  occ. eigenvalues --   -0.68831  -0.67949  -0.67554  -0.67384  -0.66656
 Alpha  occ. eigenvalues --   -0.66100  -0.64962  -0.64665  -0.64199  -0.64146
 Alpha  occ. eigenvalues --   -0.63296  -0.63102  -0.62333  -0.61957  -0.60382
 Alpha  occ. eigenvalues --   -0.60074  -0.59896  -0.59389  -0.58698  -0.58144
 Alpha  occ. eigenvalues --   -0.57569  -0.57246  -0.56706  -0.55978  -0.55689
 Alpha  occ. eigenvalues --   -0.55297  -0.55130  -0.54724  -0.54614  -0.54065
 Alpha  occ. eigenvalues --   -0.53591  -0.53451  -0.53206  -0.53097  -0.52867
 Alpha  occ. eigenvalues --   -0.52612  -0.52338  -0.52205  -0.52141  -0.51751
 Alpha  occ. eigenvalues --   -0.51465  -0.51383  -0.51040  -0.50906  -0.50788
 Alpha  occ. eigenvalues --   -0.50702  -0.50503  -0.50188  -0.49954  -0.49754
 Alpha  occ. eigenvalues --   -0.49505  -0.49137  -0.48793  -0.48700  -0.48409
 Alpha  occ. eigenvalues --   -0.48388  -0.48266  -0.48233  -0.47953  -0.47665
 Alpha  occ. eigenvalues --   -0.47478  -0.47094  -0.46974  -0.46706  -0.46695
 Alpha  occ. eigenvalues --   -0.46514  -0.46063  -0.46024  -0.45879  -0.45672
 Alpha  occ. eigenvalues --   -0.45610  -0.45471  -0.45379  -0.45096  -0.44870
 Alpha  occ. eigenvalues --   -0.44561  -0.44274  -0.44192  -0.44070  -0.43949
 Alpha  occ. eigenvalues --   -0.43696  -0.43622  -0.43440  -0.43200  -0.43123
 Alpha  occ. eigenvalues --   -0.42751  -0.42605  -0.42318  -0.42200  -0.41974
 Alpha  occ. eigenvalues --   -0.41867  -0.41400  -0.41323  -0.41301  -0.41225
 Alpha  occ. eigenvalues --   -0.40824  -0.40718  -0.40434  -0.40304  -0.40170
 Alpha  occ. eigenvalues --   -0.40000  -0.39917  -0.39707  -0.39361  -0.39106
 Alpha  occ. eigenvalues --   -0.39082  -0.39026  -0.37934  -0.37517  -0.37485
 Alpha  occ. eigenvalues --   -0.37300  -0.36879  -0.36610  -0.36535  -0.36292
 Alpha  occ. eigenvalues --   -0.36111  -0.35576  -0.35473  -0.35160  -0.34363
 Alpha  occ. eigenvalues --   -0.34256  -0.33476  -0.32917  -0.31428  -0.30951
 Alpha  occ. eigenvalues --   -0.30879  -0.29952  -0.29382  -0.28761  -0.24268
 Alpha  occ. eigenvalues --   -0.21015
 Alpha virt. eigenvalues --   -0.08988  -0.01846   0.00037   0.01902   0.03114
 Alpha virt. eigenvalues --    0.03793   0.04610   0.04890   0.05526   0.05997
 Alpha virt. eigenvalues --    0.07926   0.07988   0.08328   0.08886   0.08934

 Mulliken charges:
               1
     1  Mg   0.819023
     2  C   -0.025322
     3  C   -0.066355
     4  C   -0.050429
     5  C   -0.100293
     6  N   -0.258024
     7  C    0.004527
     8  C   -0.010248
     9  C   -0.090358
    10  C    0.029203
    11  C    0.073230
    12  C    0.032515
    13  C    0.053910
    14  C    0.178225
    15  O   -0.242977
    16  O   -0.350164
    17  N   -0.384988
    18  C    0.169101
    19  C   -0.142840
    20  C    0.005818
    21  C    0.082474
    22  C    0.113640
    23  C   -0.022158
    24  O   -0.212892
    25  C    0.028638
    26  N   -0.310544
    27  C    0.080370
    28  C   -0.052755
    29  C   -0.062622
    30  C    0.095628
    31  C    0.086784
    32  C    0.052710
    33  C   -0.005052
    34  N   -0.356669
    35  C    0.142355
    36  C   -0.159566
    37  C   -0.073802
    38  C    0.120996
    39  C    0.116693
    40  C    0.124862
    41  O   -0.157495
    42  C   -0.009794
    43  C    0.176249
    44  O   -0.245506
    45  O   -0.310133
    46  C    0.164252
    47  C    0.291370
    48  C   -0.115392
    49  C   -0.220987
    50  C    0.062945
    51  C    0.132832
    52  C    0.036993
    53  C   -0.005253
    54  C   -0.082354
    55  C    0.067589
    56  C    0.019914
    57  C   -0.013924
    58  C    0.104462
    59  C   -0.139856
    60  C    0.016439
    61  C    0.055135
    62  C    0.011989
    63  C    0.060266
    64  C   -0.162580
    65  C    0.052623
    66  C    0.032157
    67  H   -0.025083
    68  H   -0.000265
    69  H   -0.021244
    70  H    0.001815
    71  H    0.006328
    72  H    0.019297
    73  H    0.019372
    74  H    0.020111
    75  H    0.007692
    76  H    0.043674
    77  H    0.025574
    78  H    0.041776
    79  H    0.025681
    80  H    0.021604
    81  H    0.007036
    82  H    0.047036
    83  H    0.030334
    84  H    0.012767
    85  H    0.001518
    86  H   -0.003638
    87  H    0.021139
    88  H    0.014918
    89  H    0.017889
    90  H    0.015975
    91  H    0.008838
    92  H    0.019570
    93  H    0.006013
    94  H    0.025527
    95  H    0.003506
    96  H    0.036047
    97  H    0.049923
    98  H    0.032078
    99  H    0.027846
   100  H    0.054675
   101  H    0.046340
   102  H    0.059446
   103  H    0.038094
   104  H   -0.010852
   105  H    0.027450
   106  H   -0.001163
   107  H    0.015784
   108  H   -0.018634
   109  H    0.012678
   110  H    0.003759
   111  H    0.007920
   112  H   -0.021398
   113  H   -0.002589
   114  H   -0.002358
   115  H    0.019515
   116  H   -0.011569
   117  H   -0.010454
   118  H    0.010350
   119  H    0.005404
   120  H   -0.010444
   121  H   -0.019657
   122  H    0.001154
   123  H   -0.032080
   124  H    0.000441
   125  H   -0.000646
   126  H    0.011821
   127  H    0.015923
   128  H   -0.010071
   129  H   -0.006805
   130  H   -0.002600
   131  H   -0.008069
   132  H   -0.008330
   133  H   -0.012695
   134  H   -0.002527
   135  H    0.020649
   136  H    0.013020
   137  H   -0.001793
   138  H    0.003209
   139  H    0.010286
   140  H    0.001578
 Sum of Mulliken charges =  -0.00000

 Dipole moment (field-independent basis, Debye):
    X=             -3.0931    Y=              2.3597    Z=             -3.4919  Tot=              5.2277
 Quadrupole moment (field-independent basis, Debye-Ang):
   XX=           -368.5629   YY=           -421.9524   ZZ=           -409.7617
   XY=             -1.8891   XZ=              1.9100   YZ=             -0.3860

 Normal termination of Gaussian 16 at Tue Apr 26 23:13:52 2022.
