 Gaussian 16, Revision A.03,
 Gaussian 16:  ES64L-G16RevA.03 25-Dec-2016

 ---------------------------------
 #p PBE1PBE/Def2SVP td=(nstates=5)
 ---------------------------------

 ----------------------------------------------------
 step_101_chromophore_1 TDDFT with PBE1PBE functional
 ----------------------------------------------------
 Symbolic Z-matrix:
 Charge =  0 Multiplicity = 1

                         Standard orientation:
 ---------------------------------------------------------------------
 Center     Atomic      Atomic             Coordinates (Angstroms)
 Number     Number       Type             X           Y           Z
 ---------------------------------------------------------------------
      1         12           0        6.046158    0.590351    0.227501
      2          6           0        3.886732   -2.204215   -0.301795
      3          6           0        3.611688    2.594337   -1.096142
      4          6           0        8.347584    3.133212    0.233215
      5          6           0        8.789405   -1.729641    0.596197
      6          7           0        3.930481    0.177246   -0.448018
      7          6           0        3.286226   -0.970832   -0.661720
      8          6           0        1.939866   -0.764282   -1.330357
      9          6           0        2.097290    0.701700   -1.949926
     10          6           0        3.261438    1.203996   -1.088405
     11          6           0        2.265108    0.738345   -3.524296
     12          6           0        0.696825   -0.792603   -0.402304
     13          6           0       -0.736781   -0.968634   -1.064534
     14          6           0       -1.815508   -1.628348   -0.280965
     15          8           0       -1.890234   -1.589560    0.951611
     16          8           0       -2.730979   -2.243278   -1.130673
     17          7           0        5.939687    2.665877   -0.061381
     18          6           0        4.800493    3.229267   -0.595534
     19          6           0        5.072239    4.657103   -0.645571
     20          6           0        6.428459    4.879936   -0.224030
     21          6           0        6.992338    3.521972   -0.017956
     22          6           0        4.016289    5.612094   -1.098014
     23          6           0        7.175930    6.125018   -0.077272
     24          8           0        8.398850    6.142408    0.041486
     25          6           0        6.428359    7.439252   -0.088170
     26          7           0        8.165804    0.681673    0.384860
     27          6           0        8.877321    1.880971    0.360573
     28          6           0       10.373491    1.557619    0.292771
     29          6           0       10.430665    0.106605    0.906276
     30          6           0        9.040013   -0.349707    0.626263
     31          6           0       10.957346    1.809361   -1.109571
     32          6           0       10.820195    0.003128    2.460911
     33          6           0       11.712481   -1.191731    2.957212
     34          7           0        6.348234   -1.536416    0.252551
     35          6           0        7.536959   -2.311621    0.374680
     36          6           0        7.144784   -3.743132    0.162547
     37          6           0        5.723918   -3.761608    0.002862
     38          6           0        5.301686   -2.376507    0.108226
     39          6           0        8.046433   -4.960834    0.044387
     40          6           0        4.590582   -4.657266   -0.192463
     41          8           0        4.472878   -5.871231   -0.223507
     42          6           0        3.381544   -3.679098   -0.409159
     43          6           0        2.240094   -3.953883    0.442922
     44          8           0        2.216106   -3.761003    1.664049
     45          8           0        1.267866   -4.491437   -0.297568
     46          6           0        0.034212   -4.806390    0.435913
     47          6           0       -3.926024   -2.827384   -0.444853
     48          6           0       -5.212818   -2.197126   -0.739515
     49          6           0       -6.534731   -2.725284   -0.703879
     50          6           0       -6.748471   -4.197103   -0.287287
     51          6           0       -7.740236   -1.927144   -1.057848
     52          6           0       -8.240865   -0.887667   -0.056657
     53          6           0       -8.328369    0.523150   -0.665439
     54          6           0       -8.742954    1.628078    0.384152
     55          6           0       -7.479489    2.087954    1.031005
     56          6           0       -9.759053    1.172164    1.454106
     57          6           0      -10.752246    2.324643    1.736285
     58          6           0      -11.879984    1.942190    2.765142
     59          6           0      -13.273086    1.860964    2.097476
     60          6           0      -14.229638    2.497809    3.193599
     61          6           0      -13.869168    0.486869    1.765821
     62          6           0      -13.584484   -0.032841    0.314614
     63          6           0      -14.803102   -0.146261   -0.627657
     64          6           0      -14.887237    0.989739   -1.698969
     65          6           0      -15.573779    2.286879   -1.141210
     66          6           0      -15.488327    0.456311   -3.001495
     67          1           0        2.779226    3.192270   -1.471792
     68          1           0        9.038156    3.977537    0.176312
     69          1           0        9.640878   -2.399092    0.733405
     70          1           0        1.741530   -1.523118   -2.087761
     71          1           0        1.266375    1.390932   -1.800540
     72          1           0        3.293099    0.913331   -3.842166
     73          1           0        1.627117    1.569847   -3.825426
     74          1           0        2.039163   -0.204869   -4.021244
     75          1           0        0.551024    0.208572    0.004852
     76          1           0        0.793590   -1.460894    0.452966
     77          1           0       -0.491453   -1.446165   -2.013795
     78          1           0       -1.161011    0.017574   -1.254914
     79          1           0        2.987415    5.251125   -1.088779
     80          1           0        4.257162    6.049835   -2.066320
     81          1           0        4.109382    6.527580   -0.513835
     82          1           0        5.787250    7.638338    0.770141
     83          1           0        5.920126    7.623130   -1.034401
     84          1           0        7.169481    8.233470   -0.001954
     85          1           0       10.926604    2.239974    0.939440
     86          1           0       11.177040   -0.486998    0.378100
     87          1           0       10.172568    2.256163   -1.719126
     88          1           0       11.333010    0.867036   -1.506501
     89          1           0       11.734342    2.572627   -1.159734
     90          1           0        9.897388   -0.057767    3.037355
     91          1           0       11.253084    0.984611    2.655284
     92          1           0       12.339641   -0.947143    3.814326
     93          1           0       12.446913   -1.498913    2.212039
     94          1           0       11.130800   -2.074643    3.222789
     95          1           0        8.933346   -4.722020    0.631378
     96          1           0        8.457176   -5.118345   -0.953395
     97          1           0        7.497764   -5.828617    0.409555
     98          1           0        3.015961   -3.815516   -1.427241
     99          1           0       -0.571222   -5.448289   -0.203916
    100          1           0       -0.587318   -3.964524    0.741344
    101          1           0        0.404319   -5.424907    1.253311
    102          1           0       -3.882353   -2.741611    0.640918
    103          1           0       -3.907015   -3.861957   -0.785758
    104          1           0       -5.262277   -1.147100   -1.026868
    105          1           0       -7.338911   -4.343508    0.617405
    106          1           0       -5.800287   -4.727744   -0.204700
    107          1           0       -7.303821   -4.746231   -1.048402
    108          1           0       -8.494892   -2.710593   -1.128099
    109          1           0       -7.640148   -1.455531   -2.035560
    110          1           0       -7.478117   -0.755779    0.710929
    111          1           0       -9.239260   -1.144430    0.296870
    112          1           0       -9.145706    0.472910   -1.385111
    113          1           0       -7.476394    0.723285   -1.314995
    114          1           0       -9.196845    2.482188   -0.119484
    115          1           0       -6.484659    1.750219    0.740120
    116          1           0       -7.595911    1.976261    2.108497
    117          1           0       -7.468682    3.176533    0.992553
    118          1           0       -9.336652    0.915018    2.425228
    119          1           0      -10.418740    0.355788    1.159596
    120          1           0      -11.161885    2.733785    0.812759
    121          1           0      -10.231911    3.238937    2.021366
    122          1           0      -11.808783    2.301159    3.791561
    123          1           0      -11.674922    0.903290    3.022561
    124          1           0      -13.328924    2.469272    1.194404
    125          1           0      -15.195639    2.693334    2.728014
    126          1           0      -13.928747    3.487977    3.535679
    127          1           0      -14.281128    1.719538    3.954775
    128          1           0      -14.941051    0.572754    1.947548
    129          1           0      -13.592443   -0.307130    2.460191
    130          1           0      -12.929545   -0.900608    0.235761
    131          1           0      -12.948758    0.724699   -0.142230
    132          1           0      -15.665260   -0.090348    0.036604
    133          1           0      -14.844303   -1.112904   -1.130012
    134          1           0      -13.906680    1.296986   -2.064715
    135          1           0      -15.070925    3.208485   -1.434823
    136          1           0      -15.784103    2.207978   -0.074493
    137          1           0      -16.545386    2.197605   -1.628205
    138          1           0      -15.206989   -0.588799   -3.129867
    139          1           0      -15.144377    1.075195   -3.830344
    140          1           0      -16.576580    0.411736   -3.043684
 ---------------------------------------------------------------------

 SCF Done:  E(RPBE1PBE) =  -3005.35417784     A.U. after   15 cycles

 Excitation energies and oscillator strengths:

 Excited State   1:      Singlet-A      1.7820 eV  695.76 nm  f=0.3557  <S**2>=0.000
     245 -> 248        0.16692
     246 -> 247        0.69629
     246 <- 247       -0.11633
 This state for optimization and/or second-order correction.
 Total Energy, E(TD-HF/TD-DFT) =  -3005.28869079
 Copying the excited state density for this state as the 1-particle RhoCI density.

 Excited State   2:      Singlet-A      2.2104 eV  560.91 nm  f=0.1086  <S**2>=0.000
     245 -> 247        0.64594
     246 -> 248       -0.27669

 Excited State   3:      Singlet-A      2.9466 eV  420.76 nm  f=0.0027  <S**2>=0.000
     242 -> 247       -0.11134
     243 -> 247        0.68654

 Excited State   4:      Singlet-A      3.0522 eV  406.21 nm  f=0.0012  <S**2>=0.000
     240 -> 247        0.14821
     241 -> 247       -0.35831
     242 -> 247        0.56071

 Excited State   5:      Singlet-A      3.0870 eV  401.63 nm  f=0.0001  <S**2>=0.000
     239 -> 247        0.11192
     240 -> 247        0.64564
     240 -> 249       -0.15648
     241 -> 247        0.13165

 The electronic state is 1-A.
 Alpha  occ. eigenvalues --  -46.92928 -19.26632 -19.25988 -19.21054 -19.19667
 Alpha  occ. eigenvalues --  -19.18738 -19.18572 -14.42357 -14.41523 -14.39512
 Alpha  occ. eigenvalues --  -14.39489 -10.37500 -10.35166 -10.32604 -10.31553
 Alpha  occ. eigenvalues --  -10.29948 -10.29398 -10.29325 -10.28545 -10.28495
 Alpha  occ. eigenvalues --  -10.28379 -10.28263 -10.28160 -10.28037 -10.27704
 Alpha  occ. eigenvalues --  -10.26860 -10.26854 -10.26816 -10.26744 -10.26215
 Alpha  occ. eigenvalues --  -10.25889 -10.25851 -10.25769 -10.25450 -10.25213
 Alpha  occ. eigenvalues --  -10.25152 -10.24871 -10.24698 -10.24683 -10.24347
 Alpha  occ. eigenvalues --  -10.24312 -10.24195 -10.24170 -10.23668 -10.23610
 Alpha  occ. eigenvalues --  -10.23604 -10.23596 -10.23570 -10.23538 -10.23521
 Alpha  occ. eigenvalues --  -10.23486 -10.23229 -10.23124 -10.22955 -10.22731
 Alpha  occ. eigenvalues --  -10.22720 -10.22642 -10.22614 -10.22611 -10.22457
 Alpha  occ. eigenvalues --  -10.22393 -10.22387 -10.22158 -10.21890 -10.21762
 Alpha  occ. eigenvalues --  -10.21251  -3.14838  -1.87702  -1.87193  -1.87060
 Alpha  occ. eigenvalues --   -1.11626  -1.10681  -1.04849  -1.04188  -1.02837
 Alpha  occ. eigenvalues --   -1.01450  -0.99189  -0.97845  -0.97166  -0.96245
 Alpha  occ. eigenvalues --   -0.85767  -0.84892  -0.83997  -0.83692  -0.83012
 Alpha  occ. eigenvalues --   -0.82941  -0.81978  -0.81728  -0.81611  -0.81150
 Alpha  occ. eigenvalues --   -0.80164  -0.80122  -0.78843  -0.78091  -0.77489
 Alpha  occ. eigenvalues --   -0.76895  -0.76098  -0.75605  -0.75404  -0.74583
 Alpha  occ. eigenvalues --   -0.74295  -0.72863  -0.72517  -0.71815  -0.70432
 Alpha  occ. eigenvalues --   -0.70083  -0.69787  -0.69508  -0.68686  -0.68217
 Alpha  occ. eigenvalues --   -0.67896  -0.66871  -0.65989  -0.64777  -0.63618
 Alpha  occ. eigenvalues --   -0.63250  -0.62253  -0.61927  -0.61643  -0.60840
 Alpha  occ. eigenvalues --   -0.60584  -0.59387  -0.59283  -0.58725  -0.58331
 Alpha  occ. eigenvalues --   -0.57797  -0.57319  -0.56571  -0.56473  -0.54835
 Alpha  occ. eigenvalues --   -0.54657  -0.54225  -0.53962  -0.53297  -0.52707
 Alpha  occ. eigenvalues --   -0.51999  -0.51688  -0.51128  -0.50557  -0.50205
 Alpha  occ. eigenvalues --   -0.49827  -0.49651  -0.49200  -0.49095  -0.48531
 Alpha  occ. eigenvalues --   -0.48137  -0.47968  -0.47727  -0.47570  -0.47462
 Alpha  occ. eigenvalues --   -0.47157  -0.47012  -0.46734  -0.46601  -0.46302
 Alpha  occ. eigenvalues --   -0.45968  -0.45916  -0.45593  -0.45506  -0.45367
 Alpha  occ. eigenvalues --   -0.45313  -0.45038  -0.44644  -0.44492  -0.44371
 Alpha  occ. eigenvalues --   -0.44069  -0.43732  -0.43462  -0.43348  -0.43011
 Alpha  occ. eigenvalues --   -0.42934  -0.42890  -0.42846  -0.42597  -0.42287
 Alpha  occ. eigenvalues --   -0.42128  -0.41739  -0.41700  -0.41462  -0.41276
 Alpha  occ. eigenvalues --   -0.41221  -0.40721  -0.40670  -0.40589  -0.40364
 Alpha  occ. eigenvalues --   -0.40275  -0.40153  -0.40112  -0.39829  -0.39602
 Alpha  occ. eigenvalues --   -0.39242  -0.39003  -0.38876  -0.38855  -0.38689
 Alpha  occ. eigenvalues --   -0.38619  -0.38324  -0.38298  -0.38024  -0.37880
 Alpha  occ. eigenvalues --   -0.37599  -0.37403  -0.37149  -0.37014  -0.36749
 Alpha  occ. eigenvalues --   -0.36680  -0.36160  -0.36156  -0.36054  -0.36032
 Alpha  occ. eigenvalues --   -0.35684  -0.35555  -0.35234  -0.35208  -0.34945
 Alpha  occ. eigenvalues --   -0.34866  -0.34784  -0.34644  -0.34109  -0.33982
 Alpha  occ. eigenvalues --   -0.33945  -0.33900  -0.32746  -0.32527  -0.32317
 Alpha  occ. eigenvalues --   -0.32247  -0.31920  -0.31543  -0.31382  -0.31164
 Alpha  occ. eigenvalues --   -0.31156  -0.30459  -0.30330  -0.29942  -0.29602
 Alpha  occ. eigenvalues --   -0.29230  -0.28726  -0.27998  -0.26651  -0.26148
 Alpha  occ. eigenvalues --   -0.25769  -0.25514  -0.25064  -0.24110  -0.21194
 Alpha  occ. eigenvalues --   -0.18702
 Alpha virt. eigenvalues --   -0.11421  -0.05353  -0.04153  -0.02479  -0.00729
 Alpha virt. eigenvalues --    0.00063   0.00162   0.00797   0.01058   0.02641
 Alpha virt. eigenvalues --    0.03700   0.04225   0.04765   0.05038   0.05601

 Mulliken charges:
               1
     1  Mg   0.962451
     2  C   -0.039113
     3  C   -0.056512
     4  C   -0.046468
     5  C   -0.084528
     6  N   -0.360276
     7  C    0.067514
     8  C   -0.082239
     9  C   -0.166179
    10  C    0.065074
    11  C    0.019562
    12  C   -0.011974
    13  C   -0.021632
    14  C    0.243167
    15  O   -0.275273
    16  O   -0.379688
    17  N   -0.501093
    18  C    0.196362
    19  C   -0.176540
    20  C   -0.047123
    21  C    0.125810
    22  C    0.054640
    23  C    0.028256
    24  O   -0.250525
    25  C   -0.044211
    26  N   -0.411337
    27  C    0.106756
    28  C   -0.127171
    29  C   -0.139068
    30  C    0.124917
    31  C    0.031219
    32  C   -0.001354
    33  C   -0.078390
    34  N   -0.471389
    35  C    0.156039
    36  C   -0.172283
    37  C   -0.122042
    38  C    0.186073
    39  C    0.063971
    40  C    0.209150
    41  O   -0.206375
    42  C   -0.116811
    43  C    0.272460
    44  O   -0.281013
    45  O   -0.345156
    46  C    0.106810
    47  C    0.244166
    48  C   -0.123432
    49  C   -0.261570
    50  C   -0.000109
    51  C    0.066903
    52  C   -0.029435
    53  C   -0.062331
    54  C   -0.171525
    55  C    0.012727
    56  C   -0.044888
    57  C   -0.067893
    58  C    0.052537
    59  C   -0.226800
    60  C   -0.052098
    61  C    0.005041
    62  C   -0.050555
    63  C    0.002469
    64  C   -0.252324
    65  C   -0.010502
    66  C   -0.029270
    67  H    0.005798
    68  H    0.031461
    69  H    0.010074
    70  H    0.038410
    71  H    0.041769
    72  H    0.047031
    73  H    0.045577
    74  H    0.047239
    75  H    0.041089
    76  H    0.077188
    77  H    0.056648
    78  H    0.073250
    79  H    0.052299
    80  H    0.050940
    81  H    0.037140
    82  H    0.072992
    83  H    0.056901
    84  H    0.041568
    85  H    0.038461
    86  H    0.032760
    87  H    0.049663
    88  H    0.042861
    89  H    0.044864
    90  H    0.048793
    91  H    0.041191
    92  H    0.047593
    93  H    0.033342
    94  H    0.052499
    95  H    0.031408
    96  H    0.063208
    97  H    0.075972
    98  H    0.070954
    99  H    0.049468
   100  H    0.080715
   101  H    0.067868
   102  H    0.086449
   103  H    0.063608
   104  H    0.020931
   105  H    0.055240
   106  H    0.026188
   107  H    0.043467
   108  H    0.015746
   109  H    0.044216
   110  H    0.039368
   111  H    0.039703
   112  H    0.014059
   113  H    0.029317
   114  H    0.035143
   115  H    0.045438
   116  H    0.016448
   117  H    0.018067
   118  H    0.042380
   119  H    0.042924
   120  H    0.019984
   121  H    0.014329
   122  H    0.031094
   123  H    0.001967
   124  H    0.039657
   125  H    0.028759
   126  H    0.040666
   127  H    0.044870
   128  H    0.021275
   129  H    0.024811
   130  H    0.028661
   131  H    0.027112
   132  H    0.025125
   133  H    0.019515
   134  H    0.035197
   135  H    0.047100
   136  H    0.042240
   137  H    0.026557
   138  H    0.030897
   139  H    0.038057
   140  H    0.028862
 Sum of Mulliken charges =  -0.00000

 Dipole moment (field-independent basis, Debye):
    X=             -3.0067    Y=              2.5890    Z=             -3.5344  Tot=              5.3137
 Quadrupole moment (field-independent basis, Debye-Ang):
   XX=           -361.8186   YY=           -419.1913   ZZ=           -407.0522
   XY=             -1.1358   XZ=              2.1822   YZ=             -0.6455

 Normal termination of Gaussian 16 at Tue Apr 26 23:34:02 2022.
