 Gaussian 16, Revision A.03,
 Gaussian 16:  ES64L-G16RevA.03 25-Dec-2016

 --------------------------------
 #p wB97XD/Def2SVP td=(nstates=5)
 --------------------------------

 ---------------------------------------------------
 step_101_chromophore_1 TDDFT with wB97XD functional
 ---------------------------------------------------
 Symbolic Z-matrix:
 Charge =  0 Multiplicity = 1

                         Standard orientation:
 ---------------------------------------------------------------------
 Center     Atomic      Atomic             Coordinates (Angstroms)
 Number     Number       Type             X           Y           Z
 ---------------------------------------------------------------------
      1         12           0        6.046158    0.590351    0.227501
      2          6           0        3.886732   -2.204215   -0.301795
      3          6           0        3.611688    2.594337   -1.096142
      4          6           0        8.347584    3.133212    0.233215
      5          6           0        8.789405   -1.729641    0.596197
      6          7           0        3.930481    0.177246   -0.448018
      7          6           0        3.286226   -0.970832   -0.661720
      8          6           0        1.939866   -0.764282   -1.330357
      9          6           0        2.097290    0.701700   -1.949926
     10          6           0        3.261438    1.203996   -1.088405
     11          6           0        2.265108    0.738345   -3.524296
     12          6           0        0.696825   -0.792603   -0.402304
     13          6           0       -0.736781   -0.968634   -1.064534
     14          6           0       -1.815508   -1.628348   -0.280965
     15          8           0       -1.890234   -1.589560    0.951611
     16          8           0       -2.730979   -2.243278   -1.130673
     17          7           0        5.939687    2.665877   -0.061381
     18          6           0        4.800493    3.229267   -0.595534
     19          6           0        5.072239    4.657103   -0.645571
     20          6           0        6.428459    4.879936   -0.224030
     21          6           0        6.992338    3.521972   -0.017956
     22          6           0        4.016289    5.612094   -1.098014
     23          6           0        7.175930    6.125018   -0.077272
     24          8           0        8.398850    6.142408    0.041486
     25          6           0        6.428359    7.439252   -0.088170
     26          7           0        8.165804    0.681673    0.384860
     27          6           0        8.877321    1.880971    0.360573
     28          6           0       10.373491    1.557619    0.292771
     29          6           0       10.430665    0.106605    0.906276
     30          6           0        9.040013   -0.349707    0.626263
     31          6           0       10.957346    1.809361   -1.109571
     32          6           0       10.820195    0.003128    2.460911
     33          6           0       11.712481   -1.191731    2.957212
     34          7           0        6.348234   -1.536416    0.252551
     35          6           0        7.536959   -2.311621    0.374680
     36          6           0        7.144784   -3.743132    0.162547
     37          6           0        5.723918   -3.761608    0.002862
     38          6           0        5.301686   -2.376507    0.108226
     39          6           0        8.046433   -4.960834    0.044387
     40          6           0        4.590582   -4.657266   -0.192463
     41          8           0        4.472878   -5.871231   -0.223507
     42          6           0        3.381544   -3.679098   -0.409159
     43          6           0        2.240094   -3.953883    0.442922
     44          8           0        2.216106   -3.761003    1.664049
     45          8           0        1.267866   -4.491437   -0.297568
     46          6           0        0.034212   -4.806390    0.435913
     47          6           0       -3.926024   -2.827384   -0.444853
     48          6           0       -5.212818   -2.197126   -0.739515
     49          6           0       -6.534731   -2.725284   -0.703879
     50          6           0       -6.748471   -4.197103   -0.287287
     51          6           0       -7.740236   -1.927144   -1.057848
     52          6           0       -8.240865   -0.887667   -0.056657
     53          6           0       -8.328369    0.523150   -0.665439
     54          6           0       -8.742954    1.628078    0.384152
     55          6           0       -7.479489    2.087954    1.031005
     56          6           0       -9.759053    1.172164    1.454106
     57          6           0      -10.752246    2.324643    1.736285
     58          6           0      -11.879984    1.942190    2.765142
     59          6           0      -13.273086    1.860964    2.097476
     60          6           0      -14.229638    2.497809    3.193599
     61          6           0      -13.869168    0.486869    1.765821
     62          6           0      -13.584484   -0.032841    0.314614
     63          6           0      -14.803102   -0.146261   -0.627657
     64          6           0      -14.887237    0.989739   -1.698969
     65          6           0      -15.573779    2.286879   -1.141210
     66          6           0      -15.488327    0.456311   -3.001495
     67          1           0        2.779226    3.192270   -1.471792
     68          1           0        9.038156    3.977537    0.176312
     69          1           0        9.640878   -2.399092    0.733405
     70          1           0        1.741530   -1.523118   -2.087761
     71          1           0        1.266375    1.390932   -1.800540
     72          1           0        3.293099    0.913331   -3.842166
     73          1           0        1.627117    1.569847   -3.825426
     74          1           0        2.039163   -0.204869   -4.021244
     75          1           0        0.551024    0.208572    0.004852
     76          1           0        0.793590   -1.460894    0.452966
     77          1           0       -0.491453   -1.446165   -2.013795
     78          1           0       -1.161011    0.017574   -1.254914
     79          1           0        2.987415    5.251125   -1.088779
     80          1           0        4.257162    6.049835   -2.066320
     81          1           0        4.109382    6.527580   -0.513835
     82          1           0        5.787250    7.638338    0.770141
     83          1           0        5.920126    7.623130   -1.034401
     84          1           0        7.169481    8.233470   -0.001954
     85          1           0       10.926604    2.239974    0.939440
     86          1           0       11.177040   -0.486998    0.378100
     87          1           0       10.172568    2.256163   -1.719126
     88          1           0       11.333010    0.867036   -1.506501
     89          1           0       11.734342    2.572627   -1.159734
     90          1           0        9.897388   -0.057767    3.037355
     91          1           0       11.253084    0.984611    2.655284
     92          1           0       12.339641   -0.947143    3.814326
     93          1           0       12.446913   -1.498913    2.212039
     94          1           0       11.130800   -2.074643    3.222789
     95          1           0        8.933346   -4.722020    0.631378
     96          1           0        8.457176   -5.118345   -0.953395
     97          1           0        7.497764   -5.828617    0.409555
     98          1           0        3.015961   -3.815516   -1.427241
     99          1           0       -0.571222   -5.448289   -0.203916
    100          1           0       -0.587318   -3.964524    0.741344
    101          1           0        0.404319   -5.424907    1.253311
    102          1           0       -3.882353   -2.741611    0.640918
    103          1           0       -3.907015   -3.861957   -0.785758
    104          1           0       -5.262277   -1.147100   -1.026868
    105          1           0       -7.338911   -4.343508    0.617405
    106          1           0       -5.800287   -4.727744   -0.204700
    107          1           0       -7.303821   -4.746231   -1.048402
    108          1           0       -8.494892   -2.710593   -1.128099
    109          1           0       -7.640148   -1.455531   -2.035560
    110          1           0       -7.478117   -0.755779    0.710929
    111          1           0       -9.239260   -1.144430    0.296870
    112          1           0       -9.145706    0.472910   -1.385111
    113          1           0       -7.476394    0.723285   -1.314995
    114          1           0       -9.196845    2.482188   -0.119484
    115          1           0       -6.484659    1.750219    0.740120
    116          1           0       -7.595911    1.976261    2.108497
    117          1           0       -7.468682    3.176533    0.992553
    118          1           0       -9.336652    0.915018    2.425228
    119          1           0      -10.418740    0.355788    1.159596
    120          1           0      -11.161885    2.733785    0.812759
    121          1           0      -10.231911    3.238937    2.021366
    122          1           0      -11.808783    2.301159    3.791561
    123          1           0      -11.674922    0.903290    3.022561
    124          1           0      -13.328924    2.469272    1.194404
    125          1           0      -15.195639    2.693334    2.728014
    126          1           0      -13.928747    3.487977    3.535679
    127          1           0      -14.281128    1.719538    3.954775
    128          1           0      -14.941051    0.572754    1.947548
    129          1           0      -13.592443   -0.307130    2.460191
    130          1           0      -12.929545   -0.900608    0.235761
    131          1           0      -12.948758    0.724699   -0.142230
    132          1           0      -15.665260   -0.090348    0.036604
    133          1           0      -14.844303   -1.112904   -1.130012
    134          1           0      -13.906680    1.296986   -2.064715
    135          1           0      -15.070925    3.208485   -1.434823
    136          1           0      -15.784103    2.207978   -0.074493
    137          1           0      -16.545386    2.197605   -1.628205
    138          1           0      -15.206989   -0.588799   -3.129867
    139          1           0      -15.144377    1.075195   -3.830344
    140          1           0      -16.576580    0.411736   -3.043684
 ---------------------------------------------------------------------

 SCF Done:  E(RwB97XD) =  -3007.86156118     A.U. after   19 cycles

 Excitation energies and oscillator strengths:

 Excited State   1:      Singlet-A      1.5576 eV  795.98 nm  f=0.3673  <S**2>=0.000
     245 -> 248        0.18026
     246 -> 247        0.68562
     245 <- 248        0.12104
 This state for optimization and/or second-order correction.
 Total Energy, E(TD-HF/TD-DFT) =  -3007.80431924
 Copying the excited state density for this state as the 1-particle RhoCI density.

 Excited State   2:      Singlet-A      2.1439 eV  578.32 nm  f=0.1056  <S**2>=0.000
     245 -> 247        0.63194
     246 -> 248       -0.30637

 Excited State   3:      Singlet-A      3.3311 eV  372.20 nm  f=0.0063  <S**2>=0.000
     242 -> 247       -0.43500
     243 -> 247        0.52844

 Excited State   4:      Singlet-A      3.4146 eV  363.10 nm  f=0.1894  <S**2>=0.000
     242 -> 247        0.37299
     243 -> 247        0.35688
     245 -> 247        0.15127
     246 -> 248        0.43885

 Excited State   5:      Singlet-A      3.5650 eV  347.79 nm  f=0.7186  <S**2>=0.000
     240 -> 247       -0.10786
     242 -> 247       -0.37937
     243 -> 247       -0.23548
     245 -> 247        0.27870
     246 -> 248        0.43781

 The electronic state is 1-A.
 Alpha  occ. eigenvalues --  -46.95853 -19.31202 -19.30650 -19.25722 -19.24665
 Alpha  occ. eigenvalues --  -19.23540 -19.23248 -14.47460 -14.46587 -14.44502
 Alpha  occ. eigenvalues --  -14.44334 -10.44315 -10.42102 -10.39647 -10.38292
 Alpha  occ. eigenvalues --  -10.36466 -10.35804 -10.35500 -10.35096 -10.34932
 Alpha  occ. eigenvalues --  -10.34862 -10.34463 -10.34361 -10.34170 -10.34150
 Alpha  occ. eigenvalues --  -10.33363 -10.33210 -10.33132 -10.33012 -10.32541
 Alpha  occ. eigenvalues --  -10.32284 -10.32265 -10.32143 -10.31659 -10.31654
 Alpha  occ. eigenvalues --  -10.31385 -10.31245 -10.31130 -10.30999 -10.30688
 Alpha  occ. eigenvalues --  -10.30613 -10.30584 -10.30496 -10.30235 -10.30092
 Alpha  occ. eigenvalues --  -10.30041 -10.29905 -10.29883 -10.29882 -10.29812
 Alpha  occ. eigenvalues --  -10.29786 -10.29634 -10.29458 -10.29443 -10.29131
 Alpha  occ. eigenvalues --  -10.29089 -10.29006 -10.28984 -10.28980 -10.28809
 Alpha  occ. eigenvalues --  -10.28756 -10.28737 -10.28583 -10.28307 -10.28186
 Alpha  occ. eigenvalues --  -10.27684  -3.21643  -1.95251  -1.94744  -1.94608
 Alpha  occ. eigenvalues --   -1.19109  -1.18084  -1.12501  -1.11553  -1.10197
 Alpha  occ. eigenvalues --   -1.08923  -1.06586  -1.05206  -1.04469  -1.03689
 Alpha  occ. eigenvalues --   -0.93503  -0.92582  -0.91664  -0.91348  -0.90670
 Alpha  occ. eigenvalues --   -0.90538  -0.89540  -0.89328  -0.89247  -0.88760
 Alpha  occ. eigenvalues --   -0.87867  -0.87791  -0.86495  -0.85756  -0.85112
 Alpha  occ. eigenvalues --   -0.84543  -0.83761  -0.83258  -0.83071  -0.82228
 Alpha  occ. eigenvalues --   -0.81962  -0.80519  -0.80140  -0.79416  -0.78109
 Alpha  occ. eigenvalues --   -0.77776  -0.77485  -0.77076  -0.76344  -0.75895
 Alpha  occ. eigenvalues --   -0.75497  -0.74451  -0.73523  -0.72376  -0.71209
 Alpha  occ. eigenvalues --   -0.70829  -0.69857  -0.69456  -0.69289  -0.68492
 Alpha  occ. eigenvalues --   -0.68064  -0.66898  -0.66681  -0.66167  -0.66004
 Alpha  occ. eigenvalues --   -0.65274  -0.64947  -0.64188  -0.63961  -0.62327
 Alpha  occ. eigenvalues --   -0.62043  -0.61787  -0.61380  -0.60697  -0.60140
 Alpha  occ. eigenvalues --   -0.59473  -0.59230  -0.58623  -0.57958  -0.57644
 Alpha  occ. eigenvalues --   -0.57238  -0.57067  -0.56672  -0.56536  -0.55962
 Alpha  occ. eigenvalues --   -0.55511  -0.55389  -0.55121  -0.54981  -0.54800
 Alpha  occ. eigenvalues --   -0.54538  -0.54262  -0.54103  -0.53995  -0.53680
 Alpha  occ. eigenvalues --   -0.53380  -0.53264  -0.52942  -0.52822  -0.52675
 Alpha  occ. eigenvalues --   -0.52616  -0.52384  -0.52167  -0.51915  -0.51673
 Alpha  occ. eigenvalues --   -0.51437  -0.51053  -0.50725  -0.50638  -0.50312
 Alpha  occ. eigenvalues --   -0.50293  -0.50192  -0.50149  -0.49850  -0.49553
 Alpha  occ. eigenvalues --   -0.49383  -0.48987  -0.48870  -0.48633  -0.48538
 Alpha  occ. eigenvalues --   -0.48423  -0.47987  -0.47904  -0.47816  -0.47594
 Alpha  occ. eigenvalues --   -0.47502  -0.47327  -0.47309  -0.47039  -0.46783
 Alpha  occ. eigenvalues --   -0.46485  -0.46241  -0.46104  -0.46000  -0.45879
 Alpha  occ. eigenvalues --   -0.45623  -0.45499  -0.45364  -0.45122  -0.45015
 Alpha  occ. eigenvalues --   -0.44708  -0.44501  -0.44294  -0.44106  -0.43891
 Alpha  occ. eigenvalues --   -0.43800  -0.43292  -0.43262  -0.43175  -0.43137
 Alpha  occ. eigenvalues --   -0.42688  -0.42596  -0.42294  -0.42207  -0.42019
 Alpha  occ. eigenvalues --   -0.41867  -0.41839  -0.41617  -0.41203  -0.41001
 Alpha  occ. eigenvalues --   -0.40964  -0.40912  -0.39769  -0.39499  -0.39307
 Alpha  occ. eigenvalues --   -0.39271  -0.38818  -0.38629  -0.38430  -0.38207
 Alpha  occ. eigenvalues --   -0.38131  -0.37409  -0.37321  -0.37079  -0.36367
 Alpha  occ. eigenvalues --   -0.36101  -0.35525  -0.35087  -0.33478  -0.33117
 Alpha  occ. eigenvalues --   -0.32811  -0.32161  -0.31521  -0.30819  -0.26185
 Alpha  occ. eigenvalues --   -0.22811
 Alpha virt. eigenvalues --   -0.07349   0.00057   0.02086   0.04009   0.05999
 Alpha virt. eigenvalues --    0.06283   0.06862   0.07295   0.07711   0.08824
 Alpha virt. eigenvalues --    0.10442   0.11072   0.11446   0.11843   0.12240

 Mulliken charges:
               1
     1  Mg   0.953662
     2  C   -0.040551
     3  C   -0.070995
     4  C   -0.062115
     5  C   -0.105674
     6  N   -0.326502
     7  C    0.039499
     8  C   -0.055164
     9  C   -0.137559
    10  C    0.046889
    11  C    0.027041
    12  C   -0.000858
    13  C   -0.004132
    14  C    0.230176
    15  O   -0.271569
    16  O   -0.379133
    17  N   -0.467468
    18  C    0.184021
    19  C   -0.162955
    20  C   -0.040647
    21  C    0.111396
    22  C    0.065972
    23  C    0.024620
    24  O   -0.245783
    25  C   -0.034099
    26  N   -0.381241
    27  C    0.097013
    28  C   -0.101002
    29  C   -0.111612
    30  C    0.116129
    31  C    0.039561
    32  C    0.007486
    33  C   -0.061184
    34  N   -0.438696
    35  C    0.153270
    36  C   -0.171289
    37  C   -0.115829
    38  C    0.163314
    39  C    0.075711
    40  C    0.194493
    41  O   -0.194794
    42  C   -0.075526
    43  C    0.242819
    44  O   -0.273802
    45  O   -0.342134
    46  C    0.126271
    47  C    0.260339
    48  C   -0.133733
    49  C   -0.249121
    50  C    0.014766
    51  C    0.083875
    52  C   -0.008689
    53  C   -0.044638
    54  C   -0.140324
    55  C    0.018867
    56  C   -0.019322
    57  C   -0.052997
    58  C    0.065694
    59  C   -0.194740
    60  C   -0.031830
    61  C    0.015967
    62  C   -0.028789
    63  C    0.020082
    64  C   -0.224643
    65  C    0.004274
    66  C   -0.015842
    67  H   -0.000794
    68  H    0.027674
    69  H    0.005028
    70  H    0.025689
    71  H    0.030557
    72  H    0.041322
    73  H    0.040722
    74  H    0.041365
    75  H    0.032368
    76  H    0.066504
    77  H    0.050179
    78  H    0.067549
    79  H    0.048396
    80  H    0.045565
    81  H    0.029184
    82  H    0.069044
    83  H    0.051110
    84  H    0.039336
    85  H    0.028512
    86  H    0.021521
    87  H    0.042603
    88  H    0.036628
    89  H    0.040278
    90  H    0.040920
    91  H    0.033302
    92  H    0.042596
    93  H    0.026527
    94  H    0.046195
    95  H    0.024857
    96  H    0.059449
    97  H    0.073178
    98  H    0.063480
    99  H    0.046644
   100  H    0.072114
   101  H    0.063965
   102  H    0.081656
   103  H    0.058681
   104  H    0.016166
   105  H    0.050014
   106  H    0.019679
   107  H    0.037451
   108  H    0.008150
   109  H    0.037167
   110  H    0.025552
   111  H    0.031767
   112  H    0.004087
   113  H    0.020104
   114  H    0.024077
   115  H    0.040795
   116  H    0.009124
   117  H    0.012676
   118  H    0.032415
   119  H    0.023729
   120  H    0.009504
   121  H    0.005693
   122  H    0.025555
   123  H   -0.010890
   124  H    0.022984
   125  H    0.021343
   126  H    0.034892
   127  H    0.036371
   128  H    0.009263
   129  H    0.017878
   130  H    0.022997
   131  H    0.008976
   132  H    0.014139
   133  H    0.011973
   134  H    0.023449
   135  H    0.043221
   136  H    0.031649
   137  H    0.019016
   138  H    0.023819
   139  H    0.032971
   140  H    0.022112
 Sum of Mulliken charges =  -0.00000

 Dipole moment (field-independent basis, Debye):
    X=             -3.1058    Y=              2.3197    Z=             -3.5341  Tot=              5.2457
 Quadrupole moment (field-independent basis, Debye-Ang):
   XX=           -363.1088   YY=           -417.4303   ZZ=           -406.8783
   XY=             -2.5766   XZ=              2.1804   YZ=             -0.4997

 Normal termination of Gaussian 16 at Wed Apr 27 00:01:07 2022.
