 Gaussian 16, Revision A.03,
 Gaussian 16:  ES64L-G16RevA.03 25-Dec-2016

 --------------------
 #p ZINDO=(nstates=5)
 --------------------

 ----------------------------
 step_101_chromophore_1 ZINDO
 ----------------------------
 Symbolic Z-matrix:
 Charge =  0 Multiplicity = 1

                         Standard orientation:
 ---------------------------------------------------------------------
 Center     Atomic      Atomic             Coordinates (Angstroms)
 Number     Number       Type             X           Y           Z
 ---------------------------------------------------------------------
      1         12           0        6.046158    0.590351    0.227501
      2          6           0        3.886732   -2.204215   -0.301795
      3          6           0        3.611688    2.594337   -1.096142
      4          6           0        8.347584    3.133212    0.233215
      5          6           0        8.789405   -1.729641    0.596197
      6          7           0        3.930481    0.177246   -0.448018
      7          6           0        3.286226   -0.970832   -0.661720
      8          6           0        1.939866   -0.764282   -1.330357
      9          6           0        2.097290    0.701700   -1.949926
     10          6           0        3.261438    1.203996   -1.088405
     11          6           0        2.265108    0.738345   -3.524296
     12          6           0        0.696825   -0.792603   -0.402304
     13          6           0       -0.736781   -0.968634   -1.064534
     14          6           0       -1.815508   -1.628348   -0.280965
     15          8           0       -1.890234   -1.589560    0.951611
     16          8           0       -2.730979   -2.243278   -1.130673
     17          7           0        5.939687    2.665877   -0.061381
     18          6           0        4.800493    3.229267   -0.595534
     19          6           0        5.072239    4.657103   -0.645571
     20          6           0        6.428459    4.879936   -0.224030
     21          6           0        6.992338    3.521972   -0.017956
     22          6           0        4.016289    5.612094   -1.098014
     23          6           0        7.175930    6.125018   -0.077272
     24          8           0        8.398850    6.142408    0.041486
     25          6           0        6.428359    7.439252   -0.088170
     26          7           0        8.165804    0.681673    0.384860
     27          6           0        8.877321    1.880971    0.360573
     28          6           0       10.373491    1.557619    0.292771
     29          6           0       10.430665    0.106605    0.906276
     30          6           0        9.040013   -0.349707    0.626263
     31          6           0       10.957346    1.809361   -1.109571
     32          6           0       10.820195    0.003128    2.460911
     33          6           0       11.712481   -1.191731    2.957212
     34          7           0        6.348234   -1.536416    0.252551
     35          6           0        7.536959   -2.311621    0.374680
     36          6           0        7.144784   -3.743132    0.162547
     37          6           0        5.723918   -3.761608    0.002862
     38          6           0        5.301686   -2.376507    0.108226
     39          6           0        8.046433   -4.960834    0.044387
     40          6           0        4.590582   -4.657266   -0.192463
     41          8           0        4.472878   -5.871231   -0.223507
     42          6           0        3.381544   -3.679098   -0.409159
     43          6           0        2.240094   -3.953883    0.442922
     44          8           0        2.216106   -3.761003    1.664049
     45          8           0        1.267866   -4.491437   -0.297568
     46          6           0        0.034212   -4.806390    0.435913
     47          6           0       -3.926024   -2.827384   -0.444853
     48          6           0       -5.212818   -2.197126   -0.739515
     49          6           0       -6.534731   -2.725284   -0.703879
     50          6           0       -6.748471   -4.197103   -0.287287
     51          6           0       -7.740236   -1.927144   -1.057848
     52          6           0       -8.240865   -0.887667   -0.056657
     53          6           0       -8.328369    0.523150   -0.665439
     54          6           0       -8.742954    1.628078    0.384152
     55          6           0       -7.479489    2.087954    1.031005
     56          6           0       -9.759053    1.172164    1.454106
     57          6           0      -10.752246    2.324643    1.736285
     58          6           0      -11.879984    1.942190    2.765142
     59          6           0      -13.273086    1.860964    2.097476
     60          6           0      -14.229638    2.497809    3.193599
     61          6           0      -13.869168    0.486869    1.765821
     62          6           0      -13.584484   -0.032841    0.314614
     63          6           0      -14.803102   -0.146261   -0.627657
     64          6           0      -14.887237    0.989739   -1.698969
     65          6           0      -15.573779    2.286879   -1.141210
     66          6           0      -15.488327    0.456311   -3.001495
     67          1           0        2.779226    3.192270   -1.471792
     68          1           0        9.038156    3.977537    0.176312
     69          1           0        9.640878   -2.399092    0.733405
     70          1           0        1.741530   -1.523118   -2.087761
     71          1           0        1.266375    1.390932   -1.800540
     72          1           0        3.293099    0.913331   -3.842166
     73          1           0        1.627117    1.569847   -3.825426
     74          1           0        2.039163   -0.204869   -4.021244
     75          1           0        0.551024    0.208572    0.004852
     76          1           0        0.793590   -1.460894    0.452966
     77          1           0       -0.491453   -1.446165   -2.013795
     78          1           0       -1.161011    0.017574   -1.254914
     79          1           0        2.987415    5.251125   -1.088779
     80          1           0        4.257162    6.049835   -2.066320
     81          1           0        4.109382    6.527580   -0.513835
     82          1           0        5.787250    7.638338    0.770141
     83          1           0        5.920126    7.623130   -1.034401
     84          1           0        7.169481    8.233470   -0.001954
     85          1           0       10.926604    2.239974    0.939440
     86          1           0       11.177040   -0.486998    0.378100
     87          1           0       10.172568    2.256163   -1.719126
     88          1           0       11.333010    0.867036   -1.506501
     89          1           0       11.734342    2.572627   -1.159734
     90          1           0        9.897388   -0.057767    3.037355
     91          1           0       11.253084    0.984611    2.655284
     92          1           0       12.339641   -0.947143    3.814326
     93          1           0       12.446913   -1.498913    2.212039
     94          1           0       11.130800   -2.074643    3.222789
     95          1           0        8.933346   -4.722020    0.631378
     96          1           0        8.457176   -5.118345   -0.953395
     97          1           0        7.497764   -5.828617    0.409555
     98          1           0        3.015961   -3.815516   -1.427241
     99          1           0       -0.571222   -5.448289   -0.203916
    100          1           0       -0.587318   -3.964524    0.741344
    101          1           0        0.404319   -5.424907    1.253311
    102          1           0       -3.882353   -2.741611    0.640918
    103          1           0       -3.907015   -3.861957   -0.785758
    104          1           0       -5.262277   -1.147100   -1.026868
    105          1           0       -7.338911   -4.343508    0.617405
    106          1           0       -5.800287   -4.727744   -0.204700
    107          1           0       -7.303821   -4.746231   -1.048402
    108          1           0       -8.494892   -2.710593   -1.128099
    109          1           0       -7.640148   -1.455531   -2.035560
    110          1           0       -7.478117   -0.755779    0.710929
    111          1           0       -9.239260   -1.144430    0.296870
    112          1           0       -9.145706    0.472910   -1.385111
    113          1           0       -7.476394    0.723285   -1.314995
    114          1           0       -9.196845    2.482188   -0.119484
    115          1           0       -6.484659    1.750219    0.740120
    116          1           0       -7.595911    1.976261    2.108497
    117          1           0       -7.468682    3.176533    0.992553
    118          1           0       -9.336652    0.915018    2.425228
    119          1           0      -10.418740    0.355788    1.159596
    120          1           0      -11.161885    2.733785    0.812759
    121          1           0      -10.231911    3.238937    2.021366
    122          1           0      -11.808783    2.301159    3.791561
    123          1           0      -11.674922    0.903290    3.022561
    124          1           0      -13.328924    2.469272    1.194404
    125          1           0      -15.195639    2.693334    2.728014
    126          1           0      -13.928747    3.487977    3.535679
    127          1           0      -14.281128    1.719538    3.954775
    128          1           0      -14.941051    0.572754    1.947548
    129          1           0      -13.592443   -0.307130    2.460191
    130          1           0      -12.929545   -0.900608    0.235761
    131          1           0      -12.948758    0.724699   -0.142230
    132          1           0      -15.665260   -0.090348    0.036604
    133          1           0      -14.844303   -1.112904   -1.130012
    134          1           0      -13.906680    1.296986   -2.064715
    135          1           0      -15.070925    3.208485   -1.434823
    136          1           0      -15.784103    2.207978   -0.074493
    137          1           0      -16.545386    2.197605   -1.628205
    138          1           0      -15.206989   -0.588799   -3.129867
    139          1           0      -15.144377    1.075195   -3.830344
    140          1           0      -16.576580    0.411736   -3.043684
 ---------------------------------------------------------------------

 SCF Done:  E(RZINDO/S) =  -473.978711815     A.U. after   19 cycles

 Excitation energies and oscillator strengths:

 Excited State   1:      Singlet-A      1.1972 eV 1035.58 nm  f=0.6090  <S**2>=0.000
     175 ->178        -0.18803
     176 ->177         0.66419
 This state for optimization and/or second-order correction.
 Total Energy, E(CIS/TDA) =  -473.934713748
 Copying the excited state density for this state as the 1-particle RhoCI density.

 Excited State   2:      Singlet-A      1.9088 eV  649.53 nm  f=0.0340  <S**2>=0.000
     175 ->177         0.53619
     176 ->178         0.43601

 Excited State   3:      Singlet-A      2.9370 eV  422.15 nm  f=0.6602  <S**2>=0.000
     171 ->177         0.10623
     175 ->177        -0.30057
     176 ->178         0.42233
     176 ->179         0.41965

 Excited State   4:      Singlet-A      2.9820 eV  415.78 nm  f=0.1528  <S**2>=0.000
     169 ->180         0.12038
     170 ->177         0.21637
     170 ->179         0.23985
     170 ->180         0.32372
     170 ->186        -0.14842
     170 ->187        -0.11023
     170 ->188        -0.11187
     173 ->177        -0.15551
     175 ->177        -0.15585
     176 ->178         0.18552
     176 ->179        -0.20333
     176 ->180        -0.13058

 Excited State   5:      Singlet-A      3.0354 eV  408.47 nm  f=0.3861  <S**2>=0.000
     169 ->180         0.13695
     170 ->177         0.13959
     170 ->179         0.14252
     170 ->180         0.17190
     175 ->177         0.22234
     176 ->178        -0.23847
     176 ->179         0.45164
     176 ->180         0.16813

 The electronic state is 1-A.
 Alpha  occ. eigenvalues --   -1.81304  -1.80180  -1.78331  -1.74344  -1.71302
 Alpha  occ. eigenvalues --   -1.69512  -1.65998  -1.61399  -1.58403  -1.57883
 Alpha  occ. eigenvalues --   -1.54563  -1.51430  -1.48729  -1.47504  -1.44327
 Alpha  occ. eigenvalues --   -1.43478  -1.41982  -1.39075  -1.38495  -1.38103
 Alpha  occ. eigenvalues --   -1.35533  -1.33155  -1.32865  -1.30581  -1.29044
 Alpha  occ. eigenvalues --   -1.28584  -1.25115  -1.22138  -1.20712  -1.19055
 Alpha  occ. eigenvalues --   -1.17122  -1.15748  -1.15665  -1.13865  -1.13449
 Alpha  occ. eigenvalues --   -1.10722  -1.10622  -1.10022  -1.04885  -1.03702
 Alpha  occ. eigenvalues --   -1.03055  -1.00591  -0.99636  -0.98230  -0.97310
 Alpha  occ. eigenvalues --   -0.96444  -0.94622  -0.94197  -0.92691  -0.92510
 Alpha  occ. eigenvalues --   -0.91954  -0.90436  -0.88099  -0.87516  -0.86532
 Alpha  occ. eigenvalues --   -0.85711  -0.83689  -0.83282  -0.81873  -0.81009
 Alpha  occ. eigenvalues --   -0.79854  -0.79274  -0.77049  -0.76568  -0.76259
 Alpha  occ. eigenvalues --   -0.76160  -0.75065  -0.74548  -0.73426  -0.73246
 Alpha  occ. eigenvalues --   -0.72902  -0.72653  -0.72436  -0.71292  -0.70722
 Alpha  occ. eigenvalues --   -0.70300  -0.70044  -0.69410  -0.68522  -0.68454
 Alpha  occ. eigenvalues --   -0.68124  -0.67498  -0.66966  -0.66667  -0.66047
 Alpha  occ. eigenvalues --   -0.65490  -0.65118  -0.64276  -0.63931  -0.63626
 Alpha  occ. eigenvalues --   -0.62960  -0.62780  -0.62499  -0.61947  -0.61829
 Alpha  occ. eigenvalues --   -0.61541  -0.60565  -0.60491  -0.60306  -0.59888
 Alpha  occ. eigenvalues --   -0.59231  -0.58736  -0.58573  -0.58401  -0.57886
 Alpha  occ. eigenvalues --   -0.57585  -0.57443  -0.57290  -0.57220  -0.56367
 Alpha  occ. eigenvalues --   -0.56282  -0.55823  -0.55628  -0.55346  -0.55065
 Alpha  occ. eigenvalues --   -0.53980  -0.53967  -0.53335  -0.52958  -0.52613
 Alpha  occ. eigenvalues --   -0.52270  -0.52115  -0.51726  -0.51471  -0.51234
 Alpha  occ. eigenvalues --   -0.51160  -0.51073  -0.50491  -0.50263  -0.50123
 Alpha  occ. eigenvalues --   -0.49934  -0.49875  -0.49538  -0.49333  -0.48976
 Alpha  occ. eigenvalues --   -0.48901  -0.48721  -0.48195  -0.48100  -0.47864
 Alpha  occ. eigenvalues --   -0.47791  -0.47489  -0.47036  -0.46866  -0.46783
 Alpha  occ. eigenvalues --   -0.46578  -0.45981  -0.45954  -0.45672  -0.45231
 Alpha  occ. eigenvalues --   -0.45214  -0.44870  -0.44391  -0.44052  -0.43652
 Alpha  occ. eigenvalues --   -0.43564  -0.43341  -0.43307  -0.42391  -0.42222
 Alpha  occ. eigenvalues --   -0.41853  -0.41644  -0.41364  -0.39297  -0.38668
 Alpha  occ. eigenvalues --   -0.37961  -0.37208  -0.35943  -0.34779  -0.34489
 Alpha  occ. eigenvalues --   -0.33325  -0.32415  -0.31810  -0.30642  -0.26883
 Alpha  occ. eigenvalues --   -0.21624
 Alpha virt. eigenvalues --   -0.08772  -0.02156  -0.00652   0.01112   0.01408
 Alpha virt. eigenvalues --    0.02065   0.02407   0.02653   0.03766   0.04732
 Alpha virt. eigenvalues --    0.06148   0.06299   0.07179   0.07359   0.07939

 Mulliken charges:
               1
     1  Mg   0.431031
     2  C   -0.062519
     3  C   -0.075765
     4  C   -0.059509
     5  C   -0.068026
     6  N   -0.269167
     7  C    0.152877
     8  C    0.013729
     9  C   -0.005930
    10  C    0.098767
    11  C   -0.054548
    12  C   -0.029769
    13  C    0.002524
    14  C    0.477147
    15  O   -0.520128
    16  O   -0.277013
    17  N   -0.311351
    18  C    0.080782
    19  C    0.008046
    20  C   -0.060717
    21  C    0.138688
    22  C   -0.047471
    23  C    0.333028
    24  O   -0.538602
    25  C   -0.036090
    26  N   -0.285923
    27  C    0.126754
    28  C    0.004540
    29  C    0.000301
    30  C    0.162269
    31  C   -0.048401
    32  C   -0.028787
    33  C   -0.054862
    34  N   -0.327573
    35  C    0.104978
    36  C    0.036249
    37  C   -0.053281
    38  C    0.123880
    39  C   -0.036755
    40  C    0.348961
    41  O   -0.504605
    42  C    0.055980
    43  C    0.498027
    44  O   -0.535777
    45  O   -0.259268
    46  C    0.068505
    47  C    0.116435
    48  C   -0.089814
    49  C   -0.027106
    50  C   -0.047278
    51  C   -0.014016
    52  C   -0.029625
    53  C   -0.039584
    54  C   -0.001122
    55  C   -0.059084
    56  C   -0.028320
    57  C   -0.043125
    58  C   -0.044696
    59  C   -0.008658
    60  C   -0.067750
    61  C   -0.027066
    62  C   -0.045379
    63  C   -0.030870
    64  C   -0.012338
    65  C   -0.064237
    66  C   -0.056886
    67  H    0.033052
    68  H    0.048827
    69  H    0.032486
    70  H    0.026043
    71  H    0.029281
    72  H    0.023218
    73  H    0.023561
    74  H    0.023885
    75  H    0.020332
    76  H    0.043932
    77  H    0.033367
    78  H    0.048082
    79  H    0.031341
    80  H    0.028363
    81  H    0.021438
    82  H    0.039354
    83  H    0.036299
    84  H    0.023411
    85  H    0.022387
    86  H    0.025607
    87  H    0.026055
    88  H    0.021902
    89  H    0.024248
    90  H    0.023840
    91  H    0.025476
    92  H    0.021884
    93  H    0.015220
    94  H    0.023723
    95  H    0.020867
    96  H    0.037783
    97  H    0.044947
    98  H    0.042651
    99  H    0.024276
   100  H    0.057890
   101  H    0.051087
   102  H    0.068815
   103  H    0.042612
   104  H    0.028161
   105  H    0.031427
   106  H    0.018654
   107  H    0.020088
   108  H    0.012529
   109  H    0.028721
   110  H    0.025752
   111  H    0.031001
   112  H   -0.002639
   113  H    0.025995
   114  H    0.023064
   115  H    0.029860
   116  H    0.012036
   117  H    0.004734
   118  H    0.026840
   119  H    0.019567
   120  H    0.016853
   121  H    0.010818
   122  H    0.038128
   123  H    0.002518
   124  H    0.025374
   125  H    0.007564
   126  H    0.018539
   127  H    0.027162
   128  H    0.017349
   129  H    0.017779
   130  H    0.021214
   131  H    0.009323
   132  H    0.018566
   133  H    0.018762
   134  H    0.016830
   135  H    0.027822
   136  H    0.025164
   137  H    0.015838
   138  H    0.014979
   139  H    0.015994
   140  H    0.015380
 Sum of Mulliken charges =  -0.00000

 Dipole moment (field-independent basis, Debye):
    X=             -3.2794    Y=              2.0686    Z=             -6.2568  Tot=              7.3608
 N-N= 4.221768874456D+03 E-N= 0.000000000000D+00  KE=-9.117566663945D+03
 Leave Link  601 at Wed Apr 27 00:14:43 2022, MaxMem=  6710886400 cpu:               1.3 elap:               0.1
 (Enter /sw/apps/gaussian-16.0/g16/l9999.exe)
 1\1\GINC-BP1-COMPUTE156\SP\RZINDO CIS\STO-3G\C55H74Mg1N4O6\OF15641\27-
 Apr-2022\0\\#p ZINDO=(nstates=5)\\step_101_chromophore_1 ZINDO\\0,1\Mg
 ,0,-2.,17.227,26.897\C,0,-2.128,15.018,29.7\C,0,-2.663,19.814,29.033\C
 ,0,-2.423,19.206,24.128\C,0,-2.348,14.349,24.743\N,0,-2.193,17.338,29.
 145\C,0,-2.297,16.378,30.065\C,0,-2.635,16.926,31.439\C,0,-3.22,18.372
 ,31.086\C,0,-2.627,18.536,29.682\C,0,-4.789,18.508,31.253\C,0,-1.451,1
 7.085,32.429\C,0,-1.777,17.279,33.972\C,0,-0.794,16.801,34.981\O,0,0.4

 Normal termination of Gaussian 16 at Wed Apr 27 00:14:44 2022.
