 Gaussian 16, Revision A.03,
 Gaussian 16:  ES64L-G16RevA.03 25-Dec-2016

 ------------------------------
 #p blyp/Def2SVP td=(nstates=5)
 ------------------------------

 ---------------------------------------------------
 step_1151_chromophore_18 TDDFT with blyp functional
 ---------------------------------------------------
 Symbolic Z-matrix:
 Charge =  0 Multiplicity = 1

                         Standard orientation:
 ---------------------------------------------------------------------
 Center     Atomic      Atomic             Coordinates (Angstroms)
 Number     Number       Type             X           Y           Z
 ---------------------------------------------------------------------
      1         12           0        5.279280    1.161030    0.227886
      2          6           0        4.405660   -2.274930    0.184828
      3          6           0        1.903604    1.950915    0.075558
      4          6           0        6.205936    4.331145   -0.078180
      5          6           0        8.625360    0.169282   -0.153773
      6          7           0        3.336949   -0.120951    0.472369
      7          6           0        3.226383   -1.416564    0.362429
      8          6           0        1.753704   -1.904916    0.366745
      9          6           0        1.003622   -0.466375    0.260146
     10          6           0        2.144225    0.552781    0.300143
     11          6           0       -0.061611   -0.346770   -0.928441
     12          6           0        1.488653   -2.758297    1.601923
     13          6           0        0.841269   -4.120902    1.312594
     14          6           0        0.020072   -4.210329    0.029703
     15          8           0        0.334492   -4.834429   -0.984445
     16          8           0       -1.062844   -3.383758    0.112722
     17          7           0        4.179687    2.887726    0.158802
     18          6           0        2.827943    3.016252    0.054120
     19          6           0        2.464366    4.403609   -0.046197
     20          6           0        3.712210    5.137767   -0.052982
     21          6           0        4.762479    4.125308    0.037957
     22          6           0        1.083444    4.901471   -0.508679
     23          6           0        3.974689    6.619617   -0.064217
     24          8           0        5.112995    7.074928   -0.066501
     25          6           0        2.782783    7.605919    0.016085
     26          7           0        7.210173    2.070645   -0.096050
     27          6           0        7.279391    3.445709   -0.163072
     28          6           0        8.770990    3.935801   -0.429660
     29          6           0        9.539308    2.556329   -0.310604
     30          6           0        8.393016    1.558808   -0.161465
     31          6           0        8.922605    4.624477   -1.798530
     32          6           0       10.625076    2.475642    0.805859
     33          6           0       10.188098    2.206536    2.319695
     34          7           0        6.352036   -0.639583    0.048786
     35          6           0        7.691592   -0.893337   -0.044718
     36          6           0        7.948510   -2.297062   -0.049657
     37          6           0        6.656933   -2.927569    0.058271
     38          6           0        5.752433   -1.842297    0.089334
     39          6           0        9.243677   -3.009973   -0.068576
     40          6           0        5.996868   -4.185691    0.147196
     41          8           0        6.466017   -5.255061    0.354305
     42          6           0        4.369616   -3.793249    0.173182
     43          6           0        3.721867   -4.383393   -1.032351
     44          8           0        3.147971   -3.769780   -1.936100
     45          8           0        3.640099   -5.802341   -0.967486
     46          6           0        3.256391   -6.518705   -2.151997
     47          6           0       -1.943544   -3.396226   -1.090678
     48          6           0       -3.247735   -2.826894   -0.739799
     49          6           0       -4.478140   -3.435583   -0.536918
     50          6           0       -4.688889   -4.966551   -0.636788
     51          6           0       -5.758320   -2.700199   -0.255775
     52          6           0       -5.770379   -1.891078    1.018812
     53          6           0       -6.481088   -0.513589    0.929426
     54          6           0       -7.876229   -0.474875    1.715716
     55          6           0       -7.785466   -0.369105    3.257180
     56          6           0       -8.860143    0.525082    1.183407
     57          6           0      -10.042502   -0.058403    0.438291
     58          6           0      -11.213164   -0.565332    1.271845
     59          6           0      -12.395102    0.571661    1.279802
     60          6           0      -13.046689    0.604404    2.656858
     61          6           0      -13.302533    0.531664    0.055821
     62          6           0      -13.316879    1.876386   -0.693449
     63          6           0      -14.480392    1.891394   -1.777435
     64          6           0      -15.610857    2.871205   -1.566507
     65          6           0      -16.912672    2.265028   -1.119816
     66          6           0      -15.746757    3.921711   -2.727869
     67          1           0        0.884340    2.272512   -0.147527
     68          1           0        6.536898    5.335958   -0.347621
     69          1           0        9.693539   -0.031721   -0.260781
     70          1           0        1.479736   -2.448553   -0.537431
     71          1           0        0.351416   -0.445309    1.132937
     72          1           0       -1.041793   -0.434407   -0.459634
     73          1           0        0.232349   -1.146007   -1.608563
     74          1           0        0.010726    0.588492   -1.484361
     75          1           0        0.812729   -2.196294    2.246156
     76          1           0        2.351512   -2.860181    2.259317
     77          1           0        0.130024   -4.280611    2.123329
     78          1           0        1.729993   -4.751922    1.317404
     79          1           0        0.434188    5.053936    0.354189
     80          1           0        0.640988    4.242954   -1.256176
     81          1           0        1.010712    5.764788   -1.169434
     82          1           0        2.188645    7.285768    0.872810
     83          1           0        2.198418    7.491006   -0.896804
     84          1           0        3.222035    8.591886    0.163839
     85          1           0        8.835553    4.587850    0.441335
     86          1           0       10.010023    2.324057   -1.265708
     87          1           0        7.984225    4.710249   -2.347067
     88          1           0        9.617062    4.161551   -2.499564
     89          1           0        9.218102    5.662501   -1.651860
     90          1           0       10.987392    3.502473    0.839701
     91          1           0       11.422774    1.759910    0.606656
     92          1           0        9.130752    1.946503    2.350837
     93          1           0       10.415294    3.037085    2.988390
     94          1           0       10.712589    1.331769    2.703639
     95          1           0        9.962002   -2.447242    0.528420
     96          1           0        9.593879   -3.129617   -1.093319
     97          1           0        9.035998   -3.959930    0.423132
     98          1           0        3.879123   -4.242924    1.036086
     99          1           0        4.116961   -6.561227   -2.819599
    100          1           0        2.428295   -6.172192   -2.770316
    101          1           0        3.108581   -7.514819   -1.735298
    102          1           0       -2.044558   -4.441414   -1.384942
    103          1           0       -1.539959   -2.811968   -1.917133
    104          1           0       -3.336100   -1.743830   -0.836505
    105          1           0       -4.887379   -5.420693    0.333372
    106          1           0       -3.806556   -5.402778   -1.105813
    107          1           0       -5.589369   -5.026736   -1.246692
    108          1           0       -6.619899   -3.364742   -0.185329
    109          1           0       -5.971635   -2.030552   -1.089236
    110          1           0       -4.758512   -1.739861    1.394728
    111          1           0       -6.256624   -2.595366    1.694541
    112          1           0       -6.789253   -0.178281   -0.060411
    113          1           0       -5.844395    0.259863    1.359129
    114          1           0       -8.218878   -1.496707    1.551976
    115          1           0       -6.919308   -0.920818    3.623982
    116          1           0       -8.636303   -0.533597    3.917634
    117          1           0       -7.473170    0.674687    3.261100
    118          1           0       -8.272687    1.249333    0.618798
    119          1           0       -9.326669    1.029727    2.029364
    120          1           0       -9.781001   -0.908075   -0.193335
    121          1           0      -10.382119    0.576689   -0.379647
    122          1           0      -10.865388   -0.839303    2.266861
    123          1           0      -11.737083   -1.481052    0.996076
    124          1           0      -11.790803    1.473553    1.187554
    125          1           0      -14.126577    0.478580    2.585662
    126          1           0      -12.771087    1.585593    3.043584
    127          1           0      -12.730274   -0.222567    3.292901
    128          1           0      -14.328508    0.308748    0.351853
    129          1           0      -12.867382   -0.188448   -0.637448
    130          1           0      -12.379910    2.086817   -1.208769
    131          1           0      -13.476705    2.715837   -0.016176
    132          1           0      -14.947039    0.914911   -1.908709
    133          1           0      -14.026883    2.037035   -2.756927
    134          1           0      -15.344357    3.556608   -0.762288
    135          1           0      -16.959697    2.507153   -0.057962
    136          1           0      -16.951472    1.178320   -1.195624
    137          1           0      -17.800332    2.792619   -1.468793
    138          1           0      -15.049883    4.722376   -2.478720
    139          1           0      -16.795178    4.214923   -2.778712
    140          1           0      -15.317340    3.635172   -3.687742
 ---------------------------------------------------------------------

 SCF Done:  E(RB-LYP) =  -3007.37142851     A.U. after   21 cycles

 Excitation energies and oscillator strengths:

 Excited State   1:      Singlet-A      1.8210 eV  680.84 nm  f=0.2788  <S**2>=0.000
     245 -> 248        0.21471
     246 -> 247        0.68010
     246 <- 247       -0.13790
 This state for optimization and/or second-order correction.
 Total Energy, E(TD-HF/TD-DFT) =  -3007.30450649
 Copying the excited state density for this state as the 1-particle RhoCI density.

 Excited State   2:      Singlet-A      1.8993 eV  652.80 nm  f=0.0123  <S**2>=0.000
     244 -> 247        0.66563
     245 -> 247        0.22055

 Excited State   3:      Singlet-A      1.9677 eV  630.11 nm  f=0.0801  <S**2>=0.000
     243 -> 247       -0.15874
     244 -> 247       -0.23296
     245 -> 247        0.60869
     246 -> 248       -0.20257

 Excited State   4:      Singlet-A      2.1643 eV  572.85 nm  f=0.0118  <S**2>=0.000
     243 -> 247        0.68450
     245 -> 247        0.13850

 Excited State   5:      Singlet-A      2.4478 eV  506.51 nm  f=0.0002  <S**2>=0.000
     241 -> 247       -0.16168
     242 -> 247        0.68808

 The electronic state is 1-A.
 Alpha  occ. eigenvalues --  -46.28003 -18.82248 -18.79892 -18.76748 -18.76702
 Alpha  occ. eigenvalues --  -18.75860 -18.75245 -14.03329 -14.02760 -14.01363
 Alpha  occ. eigenvalues --  -14.00892 -10.04023 -10.03057 -10.00106  -9.99501
 Alpha  occ. eigenvalues --   -9.97854  -9.96775  -9.96704  -9.96058  -9.95941
 Alpha  occ. eigenvalues --   -9.95877  -9.95671  -9.95520  -9.95172  -9.94682
 Alpha  occ. eigenvalues --   -9.94379  -9.94266  -9.94159  -9.94025  -9.93774
 Alpha  occ. eigenvalues --   -9.93739  -9.93697  -9.93595  -9.93398  -9.93382
 Alpha  occ. eigenvalues --   -9.93231  -9.93221  -9.93121  -9.93115  -9.92725
 Alpha  occ. eigenvalues --   -9.92439  -9.92425  -9.92389  -9.92231  -9.92191
 Alpha  occ. eigenvalues --   -9.92125  -9.92115  -9.92100  -9.92078  -9.91995
 Alpha  occ. eigenvalues --   -9.91977  -9.91868  -9.91677  -9.91530  -9.91418
 Alpha  occ. eigenvalues --   -9.91396  -9.91337  -9.91307  -9.91293  -9.91234
 Alpha  occ. eigenvalues --   -9.91168  -9.91079  -9.90804  -9.90663  -9.90657
 Alpha  occ. eigenvalues --   -9.90562  -2.92469  -1.72912  -1.72367  -1.72160
 Alpha  occ. eigenvalues --   -0.97616  -0.95116  -0.93769  -0.91080  -0.89302
 Alpha  occ. eigenvalues --   -0.87888  -0.87202  -0.86484  -0.85943  -0.85142
 Alpha  occ. eigenvalues --   -0.74768  -0.74305  -0.73351  -0.72779  -0.72348
 Alpha  occ. eigenvalues --   -0.71680  -0.71375  -0.71030  -0.70406  -0.70195
 Alpha  occ. eigenvalues --   -0.69479  -0.69307  -0.68056  -0.67023  -0.66881
 Alpha  occ. eigenvalues --   -0.66122  -0.65491  -0.65007  -0.64503  -0.64352
 Alpha  occ. eigenvalues --   -0.63664  -0.62317  -0.61991  -0.61476  -0.60666
 Alpha  occ. eigenvalues --   -0.60431  -0.60247  -0.59766  -0.59742  -0.59319
 Alpha  occ. eigenvalues --   -0.58236  -0.57422  -0.56494  -0.55444  -0.54971
 Alpha  occ. eigenvalues --   -0.54243  -0.53973  -0.52884  -0.52545  -0.51810
 Alpha  occ. eigenvalues --   -0.51332  -0.51209  -0.50320  -0.50111  -0.49867
 Alpha  occ. eigenvalues --   -0.49424  -0.49154  -0.48483  -0.47338  -0.46534
 Alpha  occ. eigenvalues --   -0.46251  -0.45764  -0.45398  -0.44744  -0.43943
 Alpha  occ. eigenvalues --   -0.43820  -0.43594  -0.42820  -0.42463  -0.42302
 Alpha  occ. eigenvalues --   -0.42091  -0.41902  -0.41531  -0.41224  -0.40992
 Alpha  occ. eigenvalues --   -0.40810  -0.40516  -0.40207  -0.39994  -0.39589
 Alpha  occ. eigenvalues --   -0.39507  -0.39483  -0.39129  -0.38983  -0.38831
 Alpha  occ. eigenvalues --   -0.38786  -0.38682  -0.38568  -0.38519  -0.38396
 Alpha  occ. eigenvalues --   -0.37934  -0.37675  -0.37533  -0.37368  -0.37081
 Alpha  occ. eigenvalues --   -0.36893  -0.36865  -0.36750  -0.36622  -0.36312
 Alpha  occ. eigenvalues --   -0.36198  -0.35983  -0.35783  -0.35638  -0.35526
 Alpha  occ. eigenvalues --   -0.35232  -0.35032  -0.34899  -0.34709  -0.34675
 Alpha  occ. eigenvalues --   -0.34653  -0.34473  -0.34193  -0.33875  -0.33791
 Alpha  occ. eigenvalues --   -0.33578  -0.33544  -0.33388  -0.33352  -0.33256
 Alpha  occ. eigenvalues --   -0.33035  -0.32898  -0.32816  -0.32504  -0.32451
 Alpha  occ. eigenvalues --   -0.32185  -0.32117  -0.31866  -0.31704  -0.31537
 Alpha  occ. eigenvalues --   -0.31430  -0.31294  -0.31114  -0.31068  -0.30614
 Alpha  occ. eigenvalues --   -0.30511  -0.30399  -0.30110  -0.30034  -0.29889
 Alpha  occ. eigenvalues --   -0.29687  -0.29312  -0.29283  -0.29048  -0.28837
 Alpha  occ. eigenvalues --   -0.28525  -0.28407  -0.28094  -0.27883  -0.27778
 Alpha  occ. eigenvalues --   -0.27410  -0.27091  -0.27063  -0.26898  -0.26498
 Alpha  occ. eigenvalues --   -0.26279  -0.25911  -0.25756  -0.25419  -0.24898
 Alpha  occ. eigenvalues --   -0.24887  -0.24483  -0.23890  -0.23147  -0.22925
 Alpha  occ. eigenvalues --   -0.22748  -0.22144  -0.21626  -0.20920  -0.20789
 Alpha  occ. eigenvalues --   -0.20460  -0.20354  -0.19141  -0.18299  -0.16785
 Alpha  occ. eigenvalues --   -0.15804
 Alpha virt. eigenvalues --   -0.11368  -0.06619  -0.06220  -0.04514  -0.04038
 Alpha virt. eigenvalues --   -0.03001  -0.02535  -0.01446  -0.00828   0.00084
 Alpha virt. eigenvalues --    0.01138   0.02082   0.02285   0.02498   0.02742

 Mulliken charges:
               1
     1  Mg   0.695151
     2  C    0.008446
     3  C   -0.064937
     4  C   -0.006739
     5  C   -0.095499
     6  N   -0.147643
     7  C   -0.092623
     8  C   -0.040908
     9  C   -0.014377
    10  C    0.068143
    11  C    0.099671
    12  C    0.109800
    13  C    0.192541
    14  C    0.060505
    15  O   -0.191418
    16  O   -0.286878
    17  N   -0.302010
    18  C    0.113869
    19  C   -0.121156
    20  C    0.041741
    21  C    0.086683
    22  C    0.127036
    23  C   -0.094330
    24  O   -0.166234
    25  C    0.125750
    26  N   -0.166427
    27  C   -0.048472
    28  C    0.019382
    29  C    0.082321
    30  C   -0.061429
    31  C    0.128673
    32  C    0.067784
    33  C    0.038939
    34  N   -0.229725
    35  C    0.172426
    36  C   -0.187990
    37  C    0.077615
    38  C    0.098945
    39  C    0.186045
    40  C   -0.063222
    41  O   -0.077515
    42  C   -0.032387
    43  C    0.142465
    44  O   -0.187911
    45  O   -0.296738
    46  C    0.236655
    47  C    0.335997
    48  C   -0.095597
    49  C   -0.178452
    50  C    0.142047
    51  C    0.138135
    52  C    0.076082
    53  C    0.100921
    54  C   -0.103402
    55  C    0.092625
    56  C    0.170843
    57  C    0.077862
    58  C    0.068119
    59  C   -0.114871
    60  C    0.134974
    61  C    0.153086
    62  C    0.036496
    63  C    0.116438
    64  C   -0.097795
    65  C    0.132209
    66  C    0.090059
    67  H   -0.062141
    68  H   -0.041094
    69  H   -0.080743
    70  H    0.035450
    71  H   -0.027862
    72  H    0.002675
    73  H    0.008799
    74  H   -0.011531
    75  H   -0.041325
    76  H   -0.012971
    77  H   -0.011461
    78  H   -0.001248
    79  H    0.005751
    80  H    0.000003
    81  H   -0.016064
    82  H    0.004464
    83  H    0.012418
    84  H   -0.001613
    85  H   -0.007988
    86  H   -0.026688
    87  H   -0.001747
    88  H   -0.008539
    89  H   -0.003655
    90  H   -0.015555
    91  H   -0.008771
    92  H    0.005302
    93  H   -0.001048
    94  H   -0.011045
    95  H   -0.008205
    96  H    0.009885
    97  H    0.010717
    98  H    0.013838
    99  H   -0.012195
   100  H    0.024308
   101  H    0.005273
   102  H   -0.010199
   103  H    0.005561
   104  H   -0.038579
   105  H    0.008422
   106  H   -0.010415
   107  H    0.002532
   108  H   -0.037064
   109  H   -0.016164
   110  H   -0.019981
   111  H   -0.022259
   112  H   -0.025606
   113  H   -0.035154
   114  H   -0.042932
   115  H   -0.028731
   116  H    0.005629
   117  H   -0.025870
   118  H   -0.039458
   119  H   -0.041929
   120  H   -0.052148
   121  H   -0.045870
   122  H   -0.041772
   123  H   -0.036510
   124  H   -0.033317
   125  H   -0.030018
   126  H   -0.007531
   127  H   -0.018966
   128  H   -0.027257
   129  H   -0.033067
   130  H   -0.025668
   131  H   -0.027586
   132  H   -0.041511
   133  H   -0.047928
   134  H   -0.037717
   135  H   -0.030715
   136  H   -0.011080
   137  H   -0.026908
   138  H   -0.023015
   139  H   -0.013775
   140  H   -0.020632
 Sum of Mulliken charges =  -0.00000

 Dipole moment (field-independent basis, Debye):
    X=             -3.3625    Y=              1.5852    Z=              0.7558  Tot=              3.7934
 Quadrupole moment (field-independent basis, Debye-Ang):
   XX=           -376.8658   YY=           -438.6747   ZZ=           -404.9153
   XY=             14.9460   XZ=             -1.8801   YZ=             -5.2193

 Normal termination of Gaussian 16 at Wed Apr 27 11:54:47 2022.
