 Gaussian 16, Revision A.03,
 Gaussian 16:  ES64L-G16RevA.03 25-Dec-2016

 -----------------------------------
 #p cam-b3lyp/Def2SVP td=(nstates=5)
 -----------------------------------

 --------------------------------------------------------
 step_1151_chromophore_18 TDDFT with cam-b3lyp functional
 --------------------------------------------------------
 Symbolic Z-matrix:
 Charge =  0 Multiplicity = 1

                         Standard orientation:
 ---------------------------------------------------------------------
 Center     Atomic      Atomic             Coordinates (Angstroms)
 Number     Number       Type             X           Y           Z
 ---------------------------------------------------------------------
      1         12           0        5.279280    1.161030    0.227886
      2          6           0        4.405660   -2.274930    0.184828
      3          6           0        1.903604    1.950915    0.075558
      4          6           0        6.205936    4.331145   -0.078180
      5          6           0        8.625360    0.169282   -0.153773
      6          7           0        3.336949   -0.120951    0.472369
      7          6           0        3.226383   -1.416564    0.362429
      8          6           0        1.753704   -1.904916    0.366745
      9          6           0        1.003622   -0.466375    0.260146
     10          6           0        2.144225    0.552781    0.300143
     11          6           0       -0.061611   -0.346770   -0.928441
     12          6           0        1.488653   -2.758297    1.601923
     13          6           0        0.841269   -4.120902    1.312594
     14          6           0        0.020072   -4.210329    0.029703
     15          8           0        0.334492   -4.834429   -0.984445
     16          8           0       -1.062844   -3.383758    0.112722
     17          7           0        4.179687    2.887726    0.158802
     18          6           0        2.827943    3.016252    0.054120
     19          6           0        2.464366    4.403609   -0.046197
     20          6           0        3.712210    5.137767   -0.052982
     21          6           0        4.762479    4.125308    0.037957
     22          6           0        1.083444    4.901471   -0.508679
     23          6           0        3.974689    6.619617   -0.064217
     24          8           0        5.112995    7.074928   -0.066501
     25          6           0        2.782783    7.605919    0.016085
     26          7           0        7.210173    2.070645   -0.096050
     27          6           0        7.279391    3.445709   -0.163072
     28          6           0        8.770990    3.935801   -0.429660
     29          6           0        9.539308    2.556329   -0.310604
     30          6           0        8.393016    1.558808   -0.161465
     31          6           0        8.922605    4.624477   -1.798530
     32          6           0       10.625076    2.475642    0.805859
     33          6           0       10.188098    2.206536    2.319695
     34          7           0        6.352036   -0.639583    0.048786
     35          6           0        7.691592   -0.893337   -0.044718
     36          6           0        7.948510   -2.297062   -0.049657
     37          6           0        6.656933   -2.927569    0.058271
     38          6           0        5.752433   -1.842297    0.089334
     39          6           0        9.243677   -3.009973   -0.068576
     40          6           0        5.996868   -4.185691    0.147196
     41          8           0        6.466017   -5.255061    0.354305
     42          6           0        4.369616   -3.793249    0.173182
     43          6           0        3.721867   -4.383393   -1.032351
     44          8           0        3.147971   -3.769780   -1.936100
     45          8           0        3.640099   -5.802341   -0.967486
     46          6           0        3.256391   -6.518705   -2.151997
     47          6           0       -1.943544   -3.396226   -1.090678
     48          6           0       -3.247735   -2.826894   -0.739799
     49          6           0       -4.478140   -3.435583   -0.536918
     50          6           0       -4.688889   -4.966551   -0.636788
     51          6           0       -5.758320   -2.700199   -0.255775
     52          6           0       -5.770379   -1.891078    1.018812
     53          6           0       -6.481088   -0.513589    0.929426
     54          6           0       -7.876229   -0.474875    1.715716
     55          6           0       -7.785466   -0.369105    3.257180
     56          6           0       -8.860143    0.525082    1.183407
     57          6           0      -10.042502   -0.058403    0.438291
     58          6           0      -11.213164   -0.565332    1.271845
     59          6           0      -12.395102    0.571661    1.279802
     60          6           0      -13.046689    0.604404    2.656858
     61          6           0      -13.302533    0.531664    0.055821
     62          6           0      -13.316879    1.876386   -0.693449
     63          6           0      -14.480392    1.891394   -1.777435
     64          6           0      -15.610857    2.871205   -1.566507
     65          6           0      -16.912672    2.265028   -1.119816
     66          6           0      -15.746757    3.921711   -2.727869
     67          1           0        0.884340    2.272512   -0.147527
     68          1           0        6.536898    5.335958   -0.347621
     69          1           0        9.693539   -0.031721   -0.260781
     70          1           0        1.479736   -2.448553   -0.537431
     71          1           0        0.351416   -0.445309    1.132937
     72          1           0       -1.041793   -0.434407   -0.459634
     73          1           0        0.232349   -1.146007   -1.608563
     74          1           0        0.010726    0.588492   -1.484361
     75          1           0        0.812729   -2.196294    2.246156
     76          1           0        2.351512   -2.860181    2.259317
     77          1           0        0.130024   -4.280611    2.123329
     78          1           0        1.729993   -4.751922    1.317404
     79          1           0        0.434188    5.053936    0.354189
     80          1           0        0.640988    4.242954   -1.256176
     81          1           0        1.010712    5.764788   -1.169434
     82          1           0        2.188645    7.285768    0.872810
     83          1           0        2.198418    7.491006   -0.896804
     84          1           0        3.222035    8.591886    0.163839
     85          1           0        8.835553    4.587850    0.441335
     86          1           0       10.010023    2.324057   -1.265708
     87          1           0        7.984225    4.710249   -2.347067
     88          1           0        9.617062    4.161551   -2.499564
     89          1           0        9.218102    5.662501   -1.651860
     90          1           0       10.987392    3.502473    0.839701
     91          1           0       11.422774    1.759910    0.606656
     92          1           0        9.130752    1.946503    2.350837
     93          1           0       10.415294    3.037085    2.988390
     94          1           0       10.712589    1.331769    2.703639
     95          1           0        9.962002   -2.447242    0.528420
     96          1           0        9.593879   -3.129617   -1.093319
     97          1           0        9.035998   -3.959930    0.423132
     98          1           0        3.879123   -4.242924    1.036086
     99          1           0        4.116961   -6.561227   -2.819599
    100          1           0        2.428295   -6.172192   -2.770316
    101          1           0        3.108581   -7.514819   -1.735298
    102          1           0       -2.044558   -4.441414   -1.384942
    103          1           0       -1.539959   -2.811968   -1.917133
    104          1           0       -3.336100   -1.743830   -0.836505
    105          1           0       -4.887379   -5.420693    0.333372
    106          1           0       -3.806556   -5.402778   -1.105813
    107          1           0       -5.589369   -5.026736   -1.246692
    108          1           0       -6.619899   -3.364742   -0.185329
    109          1           0       -5.971635   -2.030552   -1.089236
    110          1           0       -4.758512   -1.739861    1.394728
    111          1           0       -6.256624   -2.595366    1.694541
    112          1           0       -6.789253   -0.178281   -0.060411
    113          1           0       -5.844395    0.259863    1.359129
    114          1           0       -8.218878   -1.496707    1.551976
    115          1           0       -6.919308   -0.920818    3.623982
    116          1           0       -8.636303   -0.533597    3.917634
    117          1           0       -7.473170    0.674687    3.261100
    118          1           0       -8.272687    1.249333    0.618798
    119          1           0       -9.326669    1.029727    2.029364
    120          1           0       -9.781001   -0.908075   -0.193335
    121          1           0      -10.382119    0.576689   -0.379647
    122          1           0      -10.865388   -0.839303    2.266861
    123          1           0      -11.737083   -1.481052    0.996076
    124          1           0      -11.790803    1.473553    1.187554
    125          1           0      -14.126577    0.478580    2.585662
    126          1           0      -12.771087    1.585593    3.043584
    127          1           0      -12.730274   -0.222567    3.292901
    128          1           0      -14.328508    0.308748    0.351853
    129          1           0      -12.867382   -0.188448   -0.637448
    130          1           0      -12.379910    2.086817   -1.208769
    131          1           0      -13.476705    2.715837   -0.016176
    132          1           0      -14.947039    0.914911   -1.908709
    133          1           0      -14.026883    2.037035   -2.756927
    134          1           0      -15.344357    3.556608   -0.762288
    135          1           0      -16.959697    2.507153   -0.057962
    136          1           0      -16.951472    1.178320   -1.195624
    137          1           0      -17.800332    2.792619   -1.468793
    138          1           0      -15.049883    4.722376   -2.478720
    139          1           0      -16.795178    4.214923   -2.778712
    140          1           0      -15.317340    3.635172   -3.687742
 ---------------------------------------------------------------------

 SCF Done:  E(RCAM-B3LYP) =  -3007.16054136     A.U. after   18 cycles

 Excitation energies and oscillator strengths:

 Excited State   1:      Singlet-A      1.7723 eV  699.58 nm  f=0.3691  <S**2>=0.000
     245 -> 248       -0.18997
     246 -> 247        0.68257
     245 <- 248       -0.10660
 This state for optimization and/or second-order correction.
 Total Energy, E(TD-HF/TD-DFT) =  -3007.09541219
 Copying the excited state density for this state as the 1-particle RhoCI density.

 Excited State   2:      Singlet-A      2.2016 eV  563.16 nm  f=0.1511  <S**2>=0.000
     245 -> 247        0.65321
     246 -> 248        0.26252

 Excited State   3:      Singlet-A      3.4352 eV  360.92 nm  f=0.0761  <S**2>=0.000
     239 -> 247       -0.30248
     239 -> 249        0.15792
     241 -> 247        0.41083
     243 -> 247       -0.11772
     244 -> 247       -0.25687
     246 -> 248       -0.28837

 Excited State   4:      Singlet-A      3.5028 eV  353.96 nm  f=0.0046  <S**2>=0.000
     239 -> 247        0.43517
     239 -> 249       -0.18313
     240 -> 247        0.27339
     241 -> 247        0.31007
     244 -> 247       -0.22142

 Excited State   5:      Singlet-A      3.5881 eV  345.55 nm  f=0.4477  <S**2>=0.000
     239 -> 247       -0.10701
     244 -> 247       -0.39360
     245 -> 247       -0.20902
     246 -> 248        0.51961

 The electronic state is 1-A.
 Alpha  occ. eigenvalues --  -46.89560 -19.25230 -19.22978 -19.20285 -19.19775
 Alpha  occ. eigenvalues --  -19.19288 -19.18052 -14.42245 -14.41483 -14.39580
 Alpha  occ. eigenvalues --  -14.39447 -10.39379 -10.38891 -10.35896 -10.34333
 Alpha  occ. eigenvalues --  -10.32062 -10.31622 -10.30818 -10.30531 -10.30297
 Alpha  occ. eigenvalues --  -10.30096 -10.30009 -10.29649 -10.29452 -10.29081
 Alpha  occ. eigenvalues --  -10.28809 -10.28772 -10.28686 -10.28294 -10.28022
 Alpha  occ. eigenvalues --  -10.28020 -10.27724 -10.27562 -10.27528 -10.27447
 Alpha  occ. eigenvalues --  -10.27333 -10.27103 -10.26936 -10.26817 -10.26441
 Alpha  occ. eigenvalues --  -10.26308 -10.26201 -10.26164 -10.26134 -10.26125
 Alpha  occ. eigenvalues --  -10.26069 -10.25903 -10.25823 -10.25778 -10.25734
 Alpha  occ. eigenvalues --  -10.25715 -10.25624 -10.25542 -10.25512 -10.25225
 Alpha  occ. eigenvalues --  -10.25182 -10.25062 -10.25048 -10.24937 -10.24923
 Alpha  occ. eigenvalues --  -10.24859 -10.24681 -10.24465 -10.24263 -10.24229
 Alpha  occ. eigenvalues --  -10.24122  -3.17924  -1.92846  -1.92384  -1.92212
 Alpha  occ. eigenvalues --   -1.16115  -1.13856  -1.12613  -1.09097  -1.07191
 Alpha  occ. eigenvalues --   -1.05988  -1.05045  -1.04260  -1.03682  -1.02294
 Alpha  occ. eigenvalues --   -0.92200  -0.91214  -0.90190  -0.89625  -0.89076
 Alpha  occ. eigenvalues --   -0.88308  -0.87959  -0.87618  -0.87236  -0.86676
 Alpha  occ. eigenvalues --   -0.85762  -0.85610  -0.84309  -0.83219  -0.83091
 Alpha  occ. eigenvalues --   -0.82158  -0.81433  -0.80990  -0.80341  -0.80264
 Alpha  occ. eigenvalues --   -0.79447  -0.78065  -0.77488  -0.76909  -0.76026
 Alpha  occ. eigenvalues --   -0.75815  -0.75540  -0.75123  -0.75062  -0.74576
 Alpha  occ. eigenvalues --   -0.73266  -0.72525  -0.71396  -0.70269  -0.69641
 Alpha  occ. eigenvalues --   -0.69007  -0.68566  -0.67309  -0.66814  -0.66067
 Alpha  occ. eigenvalues --   -0.65362  -0.65312  -0.64263  -0.64193  -0.63915
 Alpha  occ. eigenvalues --   -0.63244  -0.63084  -0.62332  -0.61142  -0.60201
 Alpha  occ. eigenvalues --   -0.59609  -0.59479  -0.59001  -0.58171  -0.57567
 Alpha  occ. eigenvalues --   -0.57197  -0.56893  -0.55929  -0.55695  -0.55409
 Alpha  occ. eigenvalues --   -0.55031  -0.54784  -0.54595  -0.54301  -0.53793
 Alpha  occ. eigenvalues --   -0.53606  -0.53226  -0.53112  -0.52710  -0.52368
 Alpha  occ. eigenvalues --   -0.52333  -0.52153  -0.51882  -0.51825  -0.51648
 Alpha  occ. eigenvalues --   -0.51505  -0.51258  -0.51125  -0.50960  -0.50852
 Alpha  occ. eigenvalues --   -0.50823  -0.50315  -0.49781  -0.49595  -0.49447
 Alpha  occ. eigenvalues --   -0.49313  -0.49198  -0.48987  -0.48914  -0.48617
 Alpha  occ. eigenvalues --   -0.48263  -0.48088  -0.48021  -0.47815  -0.47523
 Alpha  occ. eigenvalues --   -0.47175  -0.47084  -0.46915  -0.46886  -0.46577
 Alpha  occ. eigenvalues --   -0.46500  -0.46415  -0.46352  -0.45990  -0.45852
 Alpha  occ. eigenvalues --   -0.45414  -0.45368  -0.45156  -0.45034  -0.44995
 Alpha  occ. eigenvalues --   -0.44744  -0.44690  -0.44449  -0.44223  -0.43913
 Alpha  occ. eigenvalues --   -0.43857  -0.43671  -0.43493  -0.43320  -0.43148
 Alpha  occ. eigenvalues --   -0.42932  -0.42916  -0.42820  -0.42412  -0.42066
 Alpha  occ. eigenvalues --   -0.41951  -0.41590  -0.41332  -0.41107  -0.41099
 Alpha  occ. eigenvalues --   -0.41039  -0.40904  -0.40504  -0.40365  -0.40222
 Alpha  occ. eigenvalues --   -0.40026  -0.39449  -0.39034  -0.38766  -0.38714
 Alpha  occ. eigenvalues --   -0.38227  -0.38042  -0.37892  -0.37675  -0.37647
 Alpha  occ. eigenvalues --   -0.36975  -0.36872  -0.36505  -0.36403  -0.35757
 Alpha  occ. eigenvalues --   -0.35452  -0.35006  -0.34502  -0.34206  -0.34020
 Alpha  occ. eigenvalues --   -0.33431  -0.33189  -0.33176  -0.31092  -0.30651
 Alpha  occ. eigenvalues --   -0.30363  -0.30195  -0.30054  -0.29475  -0.23421
 Alpha  occ. eigenvalues --   -0.21190
 Alpha virt. eigenvalues --   -0.08471  -0.01414   0.00291   0.02455   0.03259
 Alpha virt. eigenvalues --    0.03465   0.04691   0.04884   0.05529   0.06754
 Alpha virt. eigenvalues --    0.08415   0.08614   0.08727   0.08954   0.09281

 Mulliken charges:
               1
     1  Mg   0.826532
     2  C   -0.015204
     3  C   -0.068558
     4  C   -0.025111
     5  C   -0.102879
     6  N   -0.217514
     7  C   -0.034614
     8  C   -0.099425
     9  C   -0.052969
    10  C    0.075073
    11  C    0.045237
    12  C    0.057247
    13  C    0.122474
    14  C    0.133286
    15  O   -0.231682
    16  O   -0.347546
    17  N   -0.389895
    18  C    0.111007
    19  C   -0.118269
    20  C   -0.033036
    21  C    0.108924
    22  C    0.061055
    23  C   -0.017729
    24  O   -0.211776
    25  C    0.051825
    26  N   -0.241401
    27  C   -0.028967
    28  C   -0.034721
    29  C    0.026241
    30  C   -0.037540
    31  C    0.066636
    32  C    0.012189
    33  C   -0.018474
    34  N   -0.322555
    35  C    0.176708
    36  C   -0.174122
    37  C    0.000907
    38  C    0.134023
    39  C    0.131628
    40  C    0.032840
    41  O   -0.112890
    42  C   -0.105808
    43  C    0.232428
    44  O   -0.220944
    45  O   -0.358334
    46  C    0.195286
    47  C    0.300221
    48  C   -0.113642
    49  C   -0.196463
    50  C    0.083171
    51  C    0.079807
    52  C    0.015255
    53  C    0.051560
    54  C   -0.154429
    55  C    0.037303
    56  C    0.107576
    57  C    0.018962
    58  C    0.020995
    59  C   -0.167578
    60  C    0.075875
    61  C    0.095232
    62  C   -0.012873
    63  C    0.058205
    64  C   -0.160040
    65  C    0.069092
    66  C    0.036094
    67  H   -0.025728
    68  H   -0.002752
    69  H   -0.044098
    70  H    0.065580
    71  H    0.005721
    72  H    0.023500
    73  H    0.028619
    74  H    0.013315
    75  H   -0.006386
    76  H    0.018675
    77  H    0.024299
    78  H    0.026900
    79  H    0.030996
    80  H    0.024326
    81  H    0.010124
    82  H    0.030739
    83  H    0.036080
    84  H    0.031074
    85  H    0.026862
    86  H    0.010521
    87  H    0.024991
    88  H    0.015371
    89  H    0.020738
    90  H    0.014033
    91  H    0.017929
    92  H    0.026159
    93  H    0.023157
    94  H    0.012204
    95  H    0.018301
    96  H    0.038724
    97  H    0.039298
    98  H    0.053319
    99  H    0.009983
   100  H    0.049112
   101  H    0.029173
   102  H    0.021288
   103  H    0.032820
   104  H   -0.009214
   105  H    0.032364
   106  H    0.012273
   107  H    0.025292
   108  H   -0.006044
   109  H    0.014056
   110  H    0.011196
   111  H    0.005236
   112  H    0.002380
   113  H   -0.006081
   114  H   -0.014173
   115  H   -0.003835
   116  H    0.028642
   117  H   -0.003792
   118  H   -0.008262
   119  H   -0.011418
   120  H   -0.022118
   121  H   -0.017364
   122  H   -0.015208
   123  H   -0.006327
   124  H   -0.002513
   125  H   -0.005407
   126  H    0.015542
   127  H    0.005403
   128  H   -0.000276
   129  H   -0.003902
   130  H    0.001324
   131  H   -0.000835
   132  H   -0.012225
   133  H   -0.016557
   134  H   -0.005206
   135  H   -0.005895
   136  H    0.012292
   137  H   -0.000773
   138  H    0.000662
   139  H    0.009186
   140  H    0.002702
 Sum of Mulliken charges =  -0.00000

 Dipole moment (field-independent basis, Debye):
    X=             -3.2680    Y=              0.9654    Z=              0.7593  Tot=              3.4911
 Quadrupole moment (field-independent basis, Debye-Ang):
   XX=           -371.6106   YY=           -437.2217   ZZ=           -404.7082
   XY=             11.0561   XZ=             -1.7949   YZ=             -5.5682

 Normal termination of Gaussian 16 at Wed Apr 27 10:53:57 2022.
