 Gaussian 16, Revision A.03,
 Gaussian 16:  ES64L-G16RevA.03 25-Dec-2016

 ---------------------------------
 #p PBE1PBE/Def2SVP td=(nstates=5)
 ---------------------------------

 ------------------------------------------------------
 step_1151_chromophore_18 TDDFT with PBE1PBE functional
 ------------------------------------------------------
 Symbolic Z-matrix:
 Charge =  0 Multiplicity = 1

                         Standard orientation:
 ---------------------------------------------------------------------
 Center     Atomic      Atomic             Coordinates (Angstroms)
 Number     Number       Type             X           Y           Z
 ---------------------------------------------------------------------
      1         12           0        5.279280    1.161030    0.227886
      2          6           0        4.405660   -2.274930    0.184828
      3          6           0        1.903604    1.950915    0.075558
      4          6           0        6.205936    4.331145   -0.078180
      5          6           0        8.625360    0.169282   -0.153773
      6          7           0        3.336949   -0.120951    0.472369
      7          6           0        3.226383   -1.416564    0.362429
      8          6           0        1.753704   -1.904916    0.366745
      9          6           0        1.003622   -0.466375    0.260146
     10          6           0        2.144225    0.552781    0.300143
     11          6           0       -0.061611   -0.346770   -0.928441
     12          6           0        1.488653   -2.758297    1.601923
     13          6           0        0.841269   -4.120902    1.312594
     14          6           0        0.020072   -4.210329    0.029703
     15          8           0        0.334492   -4.834429   -0.984445
     16          8           0       -1.062844   -3.383758    0.112722
     17          7           0        4.179687    2.887726    0.158802
     18          6           0        2.827943    3.016252    0.054120
     19          6           0        2.464366    4.403609   -0.046197
     20          6           0        3.712210    5.137767   -0.052982
     21          6           0        4.762479    4.125308    0.037957
     22          6           0        1.083444    4.901471   -0.508679
     23          6           0        3.974689    6.619617   -0.064217
     24          8           0        5.112995    7.074928   -0.066501
     25          6           0        2.782783    7.605919    0.016085
     26          7           0        7.210173    2.070645   -0.096050
     27          6           0        7.279391    3.445709   -0.163072
     28          6           0        8.770990    3.935801   -0.429660
     29          6           0        9.539308    2.556329   -0.310604
     30          6           0        8.393016    1.558808   -0.161465
     31          6           0        8.922605    4.624477   -1.798530
     32          6           0       10.625076    2.475642    0.805859
     33          6           0       10.188098    2.206536    2.319695
     34          7           0        6.352036   -0.639583    0.048786
     35          6           0        7.691592   -0.893337   -0.044718
     36          6           0        7.948510   -2.297062   -0.049657
     37          6           0        6.656933   -2.927569    0.058271
     38          6           0        5.752433   -1.842297    0.089334
     39          6           0        9.243677   -3.009973   -0.068576
     40          6           0        5.996868   -4.185691    0.147196
     41          8           0        6.466017   -5.255061    0.354305
     42          6           0        4.369616   -3.793249    0.173182
     43          6           0        3.721867   -4.383393   -1.032351
     44          8           0        3.147971   -3.769780   -1.936100
     45          8           0        3.640099   -5.802341   -0.967486
     46          6           0        3.256391   -6.518705   -2.151997
     47          6           0       -1.943544   -3.396226   -1.090678
     48          6           0       -3.247735   -2.826894   -0.739799
     49          6           0       -4.478140   -3.435583   -0.536918
     50          6           0       -4.688889   -4.966551   -0.636788
     51          6           0       -5.758320   -2.700199   -0.255775
     52          6           0       -5.770379   -1.891078    1.018812
     53          6           0       -6.481088   -0.513589    0.929426
     54          6           0       -7.876229   -0.474875    1.715716
     55          6           0       -7.785466   -0.369105    3.257180
     56          6           0       -8.860143    0.525082    1.183407
     57          6           0      -10.042502   -0.058403    0.438291
     58          6           0      -11.213164   -0.565332    1.271845
     59          6           0      -12.395102    0.571661    1.279802
     60          6           0      -13.046689    0.604404    2.656858
     61          6           0      -13.302533    0.531664    0.055821
     62          6           0      -13.316879    1.876386   -0.693449
     63          6           0      -14.480392    1.891394   -1.777435
     64          6           0      -15.610857    2.871205   -1.566507
     65          6           0      -16.912672    2.265028   -1.119816
     66          6           0      -15.746757    3.921711   -2.727869
     67          1           0        0.884340    2.272512   -0.147527
     68          1           0        6.536898    5.335958   -0.347621
     69          1           0        9.693539   -0.031721   -0.260781
     70          1           0        1.479736   -2.448553   -0.537431
     71          1           0        0.351416   -0.445309    1.132937
     72          1           0       -1.041793   -0.434407   -0.459634
     73          1           0        0.232349   -1.146007   -1.608563
     74          1           0        0.010726    0.588492   -1.484361
     75          1           0        0.812729   -2.196294    2.246156
     76          1           0        2.351512   -2.860181    2.259317
     77          1           0        0.130024   -4.280611    2.123329
     78          1           0        1.729993   -4.751922    1.317404
     79          1           0        0.434188    5.053936    0.354189
     80          1           0        0.640988    4.242954   -1.256176
     81          1           0        1.010712    5.764788   -1.169434
     82          1           0        2.188645    7.285768    0.872810
     83          1           0        2.198418    7.491006   -0.896804
     84          1           0        3.222035    8.591886    0.163839
     85          1           0        8.835553    4.587850    0.441335
     86          1           0       10.010023    2.324057   -1.265708
     87          1           0        7.984225    4.710249   -2.347067
     88          1           0        9.617062    4.161551   -2.499564
     89          1           0        9.218102    5.662501   -1.651860
     90          1           0       10.987392    3.502473    0.839701
     91          1           0       11.422774    1.759910    0.606656
     92          1           0        9.130752    1.946503    2.350837
     93          1           0       10.415294    3.037085    2.988390
     94          1           0       10.712589    1.331769    2.703639
     95          1           0        9.962002   -2.447242    0.528420
     96          1           0        9.593879   -3.129617   -1.093319
     97          1           0        9.035998   -3.959930    0.423132
     98          1           0        3.879123   -4.242924    1.036086
     99          1           0        4.116961   -6.561227   -2.819599
    100          1           0        2.428295   -6.172192   -2.770316
    101          1           0        3.108581   -7.514819   -1.735298
    102          1           0       -2.044558   -4.441414   -1.384942
    103          1           0       -1.539959   -2.811968   -1.917133
    104          1           0       -3.336100   -1.743830   -0.836505
    105          1           0       -4.887379   -5.420693    0.333372
    106          1           0       -3.806556   -5.402778   -1.105813
    107          1           0       -5.589369   -5.026736   -1.246692
    108          1           0       -6.619899   -3.364742   -0.185329
    109          1           0       -5.971635   -2.030552   -1.089236
    110          1           0       -4.758512   -1.739861    1.394728
    111          1           0       -6.256624   -2.595366    1.694541
    112          1           0       -6.789253   -0.178281   -0.060411
    113          1           0       -5.844395    0.259863    1.359129
    114          1           0       -8.218878   -1.496707    1.551976
    115          1           0       -6.919308   -0.920818    3.623982
    116          1           0       -8.636303   -0.533597    3.917634
    117          1           0       -7.473170    0.674687    3.261100
    118          1           0       -8.272687    1.249333    0.618798
    119          1           0       -9.326669    1.029727    2.029364
    120          1           0       -9.781001   -0.908075   -0.193335
    121          1           0      -10.382119    0.576689   -0.379647
    122          1           0      -10.865388   -0.839303    2.266861
    123          1           0      -11.737083   -1.481052    0.996076
    124          1           0      -11.790803    1.473553    1.187554
    125          1           0      -14.126577    0.478580    2.585662
    126          1           0      -12.771087    1.585593    3.043584
    127          1           0      -12.730274   -0.222567    3.292901
    128          1           0      -14.328508    0.308748    0.351853
    129          1           0      -12.867382   -0.188448   -0.637448
    130          1           0      -12.379910    2.086817   -1.208769
    131          1           0      -13.476705    2.715837   -0.016176
    132          1           0      -14.947039    0.914911   -1.908709
    133          1           0      -14.026883    2.037035   -2.756927
    134          1           0      -15.344357    3.556608   -0.762288
    135          1           0      -16.959697    2.507153   -0.057962
    136          1           0      -16.951472    1.178320   -1.195624
    137          1           0      -17.800332    2.792619   -1.468793
    138          1           0      -15.049883    4.722376   -2.478720
    139          1           0      -16.795178    4.214923   -2.778712
    140          1           0      -15.317340    3.635172   -3.687742
 ---------------------------------------------------------------------

 SCF Done:  E(RPBE1PBE) =  -3005.34924466     A.U. after   15 cycles

 Excitation energies and oscillator strengths:

 Excited State   1:      Singlet-A      1.8889 eV  656.37 nm  f=0.3548  <S**2>=0.000
     245 -> 248        0.18970
     246 -> 247        0.68803
 This state for optimization and/or second-order correction.
 Total Energy, E(TD-HF/TD-DFT) =  -3005.27982753
 Copying the excited state density for this state as the 1-particle RhoCI density.

 Excited State   2:      Singlet-A      2.1937 eV  565.19 nm  f=0.1382  <S**2>=0.000
     245 -> 247        0.66315
     246 -> 248       -0.23811

 Excited State   3:      Singlet-A      3.0484 eV  406.72 nm  f=0.0006  <S**2>=0.000
     239 -> 247       -0.10832
     240 -> 247        0.25967
     241 -> 247        0.48074
     241 -> 249       -0.10910
     243 -> 247        0.27758
     244 -> 247        0.26133

 Excited State   4:      Singlet-A      3.0616 eV  404.97 nm  f=0.0003  <S**2>=0.000
     240 -> 247       -0.11492
     241 -> 247       -0.19480
     243 -> 247       -0.12875
     244 -> 247        0.62233
     244 -> 249        0.15766

 Excited State   5:      Singlet-A      3.1745 eV  390.56 nm  f=0.0035  <S**2>=0.000
     240 -> 247       -0.31482
     241 -> 247       -0.14419
     243 -> 247        0.59774

 The electronic state is 1-A.
 Alpha  occ. eigenvalues --  -46.92964 -19.25849 -19.23476 -19.20212 -19.20002
 Alpha  occ. eigenvalues --  -19.19309 -19.18550 -14.41679 -14.41005 -14.39396
 Alpha  occ. eigenvalues --  -14.38981 -10.36382 -10.35728 -10.32767 -10.31734
 Alpha  occ. eigenvalues --  -10.29411 -10.29144 -10.28814 -10.28068 -10.28057
 Alpha  occ. eigenvalues --  -10.28000 -10.27620 -10.26914 -10.26830 -10.26751
 Alpha  occ. eigenvalues --  -10.26516 -10.26368 -10.26049 -10.26005 -10.25927
 Alpha  occ. eigenvalues --  -10.25834 -10.25807 -10.25433 -10.25353 -10.25041
 Alpha  occ. eigenvalues --  -10.24881 -10.24670 -10.24540 -10.24495 -10.24331
 Alpha  occ. eigenvalues --  -10.23912 -10.23836 -10.23746 -10.23694 -10.23687
 Alpha  occ. eigenvalues --  -10.23647 -10.23472 -10.23437 -10.23339 -10.23321
 Alpha  occ. eigenvalues --  -10.23179 -10.23174 -10.22978 -10.22922 -10.22903
 Alpha  occ. eigenvalues --  -10.22784 -10.22719 -10.22666 -10.22479 -10.22476
 Alpha  occ. eigenvalues --  -10.22413 -10.22101 -10.22047 -10.21681 -10.21617
 Alpha  occ. eigenvalues --  -10.21513  -3.14915  -1.87778  -1.87293  -1.87126
 Alpha  occ. eigenvalues --   -1.10861  -1.08412  -1.07143  -1.04088  -1.01996
 Alpha  occ. eigenvalues --   -1.00633  -0.99594  -0.98841  -0.98262  -0.97245
 Alpha  occ. eigenvalues --   -0.86335  -0.85345  -0.84300  -0.83765  -0.83200
 Alpha  occ. eigenvalues --   -0.82553  -0.82337  -0.81748  -0.81382  -0.81041
 Alpha  occ. eigenvalues --   -0.80245  -0.79853  -0.78586  -0.77403  -0.77310
 Alpha  occ. eigenvalues --   -0.76437  -0.75655  -0.75226  -0.74584  -0.74469
 Alpha  occ. eigenvalues --   -0.73779  -0.72322  -0.71863  -0.71196  -0.70204
 Alpha  occ. eigenvalues --   -0.69922  -0.69907  -0.69367  -0.69212  -0.68759
 Alpha  occ. eigenvalues --   -0.67578  -0.66913  -0.65836  -0.64580  -0.63953
 Alpha  occ. eigenvalues --   -0.63431  -0.62803  -0.61571  -0.61391  -0.60298
 Alpha  occ. eigenvalues --   -0.59836  -0.59769  -0.58855  -0.58697  -0.58046
 Alpha  occ. eigenvalues --   -0.57724  -0.57271  -0.56552  -0.55583  -0.54545
 Alpha  occ. eigenvalues --   -0.54344  -0.53935  -0.53551  -0.52755  -0.51868
 Alpha  occ. eigenvalues --   -0.51689  -0.51280  -0.50382  -0.50174  -0.50004
 Alpha  occ. eigenvalues --   -0.49499  -0.49245  -0.49036  -0.48926  -0.48332
 Alpha  occ. eigenvalues --   -0.48027  -0.47814  -0.47586  -0.47212  -0.46901
 Alpha  occ. eigenvalues --   -0.46846  -0.46695  -0.46402  -0.46372  -0.46008
 Alpha  occ. eigenvalues --   -0.45924  -0.45824  -0.45673  -0.45527  -0.45361
 Alpha  occ. eigenvalues --   -0.45332  -0.44904  -0.44477  -0.44136  -0.44021
 Alpha  occ. eigenvalues --   -0.43930  -0.43837  -0.43565  -0.43513  -0.43237
 Alpha  occ. eigenvalues --   -0.42966  -0.42730  -0.42689  -0.42473  -0.42129
 Alpha  occ. eigenvalues --   -0.41841  -0.41707  -0.41598  -0.41495  -0.41338
 Alpha  occ. eigenvalues --   -0.41174  -0.41047  -0.40998  -0.40616  -0.40377
 Alpha  occ. eigenvalues --   -0.40161  -0.40094  -0.39962  -0.39652  -0.39606
 Alpha  occ. eigenvalues --   -0.39490  -0.39412  -0.39260  -0.38942  -0.38661
 Alpha  occ. eigenvalues --   -0.38644  -0.38558  -0.38306  -0.38090  -0.37968
 Alpha  occ. eigenvalues --   -0.37718  -0.37648  -0.37507  -0.37121  -0.36947
 Alpha  occ. eigenvalues --   -0.36848  -0.36375  -0.36333  -0.36010  -0.35867
 Alpha  occ. eigenvalues --   -0.35721  -0.35698  -0.35391  -0.35172  -0.35117
 Alpha  occ. eigenvalues --   -0.34926  -0.34374  -0.33866  -0.33664  -0.33612
 Alpha  occ. eigenvalues --   -0.33021  -0.33015  -0.32723  -0.32704  -0.32471
 Alpha  occ. eigenvalues --   -0.31875  -0.31778  -0.31500  -0.31293  -0.30856
 Alpha  occ. eigenvalues --   -0.30291  -0.29903  -0.29408  -0.29181  -0.28874
 Alpha  occ. eigenvalues --   -0.28761  -0.28178  -0.28018  -0.26479  -0.25855
 Alpha  occ. eigenvalues --   -0.25744  -0.25545  -0.25309  -0.25116  -0.20396
 Alpha  occ. eigenvalues --   -0.18766
 Alpha virt. eigenvalues --   -0.10955  -0.04958  -0.03923  -0.01940  -0.01200
 Alpha virt. eigenvalues --    0.00195   0.00399   0.00830   0.02040   0.02643
 Alpha virt. eigenvalues --    0.04170   0.05159   0.05334   0.05460   0.05718

 Mulliken charges:
               1
     1  Mg   0.972831
     2  C   -0.010138
     3  C   -0.058697
     4  C   -0.021624
     5  C   -0.079833
     6  N   -0.325731
     7  C    0.048431
     8  C   -0.177917
     9  C   -0.118790
    10  C    0.111606
    11  C   -0.017979
    12  C    0.013018
    13  C    0.043822
    14  C    0.188381
    15  O   -0.263282
    16  O   -0.372875
    17  N   -0.511749
    18  C    0.131496
    19  C   -0.134429
    20  C   -0.083284
    21  C    0.149371
    22  C   -0.001417
    23  C    0.033360
    24  O   -0.246776
    25  C   -0.022367
    26  N   -0.349556
    27  C    0.003463
    28  C   -0.113717
    29  C   -0.043126
    30  C    0.001515
    31  C    0.010862
    32  C   -0.050684
    33  C   -0.089185
    34  N   -0.450710
    35  C    0.184957
    36  C   -0.190603
    37  C   -0.042609
    38  C    0.168640
    39  C    0.074653
    40  C    0.125933
    41  O   -0.160072
    42  C   -0.215607
    43  C    0.320988
    44  O   -0.255826
    45  O   -0.390565
    46  C    0.141373
    47  C    0.253815
    48  C   -0.126310
    49  C   -0.234213
    50  C    0.016397
    51  C    0.019542
    52  C   -0.049998
    53  C   -0.001242
    54  C   -0.233320
    55  C   -0.026542
    56  C    0.044772
    57  C   -0.048751
    58  C   -0.031232
    59  C   -0.250852
    60  C    0.017372
    61  C    0.036364
    62  C   -0.078274
    63  C    0.007769
    64  C   -0.252682
    65  C    0.008899
    66  C   -0.023979
    67  H    0.005843
    68  H    0.029343
    69  H   -0.010765
    70  H    0.107879
    71  H    0.044127
    72  H    0.052633
    73  H    0.056267
    74  H    0.040804
    75  H    0.025207
    76  H    0.050801
    77  H    0.057490
    78  H    0.062190
    79  H    0.060538
    80  H    0.050935
    81  H    0.037777
    82  H    0.058837
    83  H    0.063215
    84  H    0.059155
    85  H    0.062550
    86  H    0.047596
    87  H    0.051963
    88  H    0.042830
    89  H    0.048181
    90  H    0.047901
    91  H    0.048479
    92  H    0.056587
    93  H    0.049526
    94  H    0.039886
    95  H    0.044227
    96  H    0.065443
    97  H    0.066221
    98  H    0.089583
    99  H    0.033407
   100  H    0.069605
   101  H    0.050809
   102  H    0.048638
   103  H    0.058915
   104  H    0.020530
   105  H    0.060537
   106  H    0.040776
   107  H    0.053415
   108  H    0.024940
   109  H    0.046937
   110  H    0.043371
   111  H    0.037288
   112  H    0.034417
   113  H    0.026174
   114  H    0.026107
   115  H    0.025509
   116  H    0.054874
   117  H    0.025764
   118  H    0.023856
   119  H    0.022922
   120  H    0.011418
   121  H    0.017237
   122  H    0.018201
   123  H    0.026176
   124  H    0.037520
   125  H    0.021928
   126  H    0.042112
   127  H    0.031963
   128  H    0.033063
   129  H    0.029860
   130  H    0.033392
   131  H    0.031913
   132  H    0.019534
   133  H    0.016324
   134  H    0.033227
   135  H    0.022354
   136  H    0.038356
   137  H    0.026150
   138  H    0.028426
   139  H    0.036062
   140  H    0.029654
 Sum of Mulliken charges =  -0.00000

 Dipole moment (field-independent basis, Debye):
    X=             -3.5275    Y=              1.6124    Z=              0.7498  Tot=              3.9504
 Quadrupole moment (field-independent basis, Debye-Ang):
   XX=           -368.7852   YY=           -433.2580   ZZ=           -402.4303
   XY=             14.2479   XZ=             -2.0633   YZ=             -5.9478

 Normal termination of Gaussian 16 at Wed Apr 27 11:12:46 2022.
