 Gaussian 16, Revision A.03,
 Gaussian 16:  ES64L-G16RevA.03 25-Dec-2016

 --------------------------------
 #p wB97XD/Def2SVP td=(nstates=5)
 --------------------------------

 -----------------------------------------------------
 step_1151_chromophore_18 TDDFT with wB97XD functional
 -----------------------------------------------------
 Symbolic Z-matrix:
 Charge =  0 Multiplicity = 1

                         Standard orientation:
 ---------------------------------------------------------------------
 Center     Atomic      Atomic             Coordinates (Angstroms)
 Number     Number       Type             X           Y           Z
 ---------------------------------------------------------------------
      1         12           0        5.279280    1.161030    0.227886
      2          6           0        4.405660   -2.274930    0.184828
      3          6           0        1.903604    1.950915    0.075558
      4          6           0        6.205936    4.331145   -0.078180
      5          6           0        8.625360    0.169282   -0.153773
      6          7           0        3.336949   -0.120951    0.472369
      7          6           0        3.226383   -1.416564    0.362429
      8          6           0        1.753704   -1.904916    0.366745
      9          6           0        1.003622   -0.466375    0.260146
     10          6           0        2.144225    0.552781    0.300143
     11          6           0       -0.061611   -0.346770   -0.928441
     12          6           0        1.488653   -2.758297    1.601923
     13          6           0        0.841269   -4.120902    1.312594
     14          6           0        0.020072   -4.210329    0.029703
     15          8           0        0.334492   -4.834429   -0.984445
     16          8           0       -1.062844   -3.383758    0.112722
     17          7           0        4.179687    2.887726    0.158802
     18          6           0        2.827943    3.016252    0.054120
     19          6           0        2.464366    4.403609   -0.046197
     20          6           0        3.712210    5.137767   -0.052982
     21          6           0        4.762479    4.125308    0.037957
     22          6           0        1.083444    4.901471   -0.508679
     23          6           0        3.974689    6.619617   -0.064217
     24          8           0        5.112995    7.074928   -0.066501
     25          6           0        2.782783    7.605919    0.016085
     26          7           0        7.210173    2.070645   -0.096050
     27          6           0        7.279391    3.445709   -0.163072
     28          6           0        8.770990    3.935801   -0.429660
     29          6           0        9.539308    2.556329   -0.310604
     30          6           0        8.393016    1.558808   -0.161465
     31          6           0        8.922605    4.624477   -1.798530
     32          6           0       10.625076    2.475642    0.805859
     33          6           0       10.188098    2.206536    2.319695
     34          7           0        6.352036   -0.639583    0.048786
     35          6           0        7.691592   -0.893337   -0.044718
     36          6           0        7.948510   -2.297062   -0.049657
     37          6           0        6.656933   -2.927569    0.058271
     38          6           0        5.752433   -1.842297    0.089334
     39          6           0        9.243677   -3.009973   -0.068576
     40          6           0        5.996868   -4.185691    0.147196
     41          8           0        6.466017   -5.255061    0.354305
     42          6           0        4.369616   -3.793249    0.173182
     43          6           0        3.721867   -4.383393   -1.032351
     44          8           0        3.147971   -3.769780   -1.936100
     45          8           0        3.640099   -5.802341   -0.967486
     46          6           0        3.256391   -6.518705   -2.151997
     47          6           0       -1.943544   -3.396226   -1.090678
     48          6           0       -3.247735   -2.826894   -0.739799
     49          6           0       -4.478140   -3.435583   -0.536918
     50          6           0       -4.688889   -4.966551   -0.636788
     51          6           0       -5.758320   -2.700199   -0.255775
     52          6           0       -5.770379   -1.891078    1.018812
     53          6           0       -6.481088   -0.513589    0.929426
     54          6           0       -7.876229   -0.474875    1.715716
     55          6           0       -7.785466   -0.369105    3.257180
     56          6           0       -8.860143    0.525082    1.183407
     57          6           0      -10.042502   -0.058403    0.438291
     58          6           0      -11.213164   -0.565332    1.271845
     59          6           0      -12.395102    0.571661    1.279802
     60          6           0      -13.046689    0.604404    2.656858
     61          6           0      -13.302533    0.531664    0.055821
     62          6           0      -13.316879    1.876386   -0.693449
     63          6           0      -14.480392    1.891394   -1.777435
     64          6           0      -15.610857    2.871205   -1.566507
     65          6           0      -16.912672    2.265028   -1.119816
     66          6           0      -15.746757    3.921711   -2.727869
     67          1           0        0.884340    2.272512   -0.147527
     68          1           0        6.536898    5.335958   -0.347621
     69          1           0        9.693539   -0.031721   -0.260781
     70          1           0        1.479736   -2.448553   -0.537431
     71          1           0        0.351416   -0.445309    1.132937
     72          1           0       -1.041793   -0.434407   -0.459634
     73          1           0        0.232349   -1.146007   -1.608563
     74          1           0        0.010726    0.588492   -1.484361
     75          1           0        0.812729   -2.196294    2.246156
     76          1           0        2.351512   -2.860181    2.259317
     77          1           0        0.130024   -4.280611    2.123329
     78          1           0        1.729993   -4.751922    1.317404
     79          1           0        0.434188    5.053936    0.354189
     80          1           0        0.640988    4.242954   -1.256176
     81          1           0        1.010712    5.764788   -1.169434
     82          1           0        2.188645    7.285768    0.872810
     83          1           0        2.198418    7.491006   -0.896804
     84          1           0        3.222035    8.591886    0.163839
     85          1           0        8.835553    4.587850    0.441335
     86          1           0       10.010023    2.324057   -1.265708
     87          1           0        7.984225    4.710249   -2.347067
     88          1           0        9.617062    4.161551   -2.499564
     89          1           0        9.218102    5.662501   -1.651860
     90          1           0       10.987392    3.502473    0.839701
     91          1           0       11.422774    1.759910    0.606656
     92          1           0        9.130752    1.946503    2.350837
     93          1           0       10.415294    3.037085    2.988390
     94          1           0       10.712589    1.331769    2.703639
     95          1           0        9.962002   -2.447242    0.528420
     96          1           0        9.593879   -3.129617   -1.093319
     97          1           0        9.035998   -3.959930    0.423132
     98          1           0        3.879123   -4.242924    1.036086
     99          1           0        4.116961   -6.561227   -2.819599
    100          1           0        2.428295   -6.172192   -2.770316
    101          1           0        3.108581   -7.514819   -1.735298
    102          1           0       -2.044558   -4.441414   -1.384942
    103          1           0       -1.539959   -2.811968   -1.917133
    104          1           0       -3.336100   -1.743830   -0.836505
    105          1           0       -4.887379   -5.420693    0.333372
    106          1           0       -3.806556   -5.402778   -1.105813
    107          1           0       -5.589369   -5.026736   -1.246692
    108          1           0       -6.619899   -3.364742   -0.185329
    109          1           0       -5.971635   -2.030552   -1.089236
    110          1           0       -4.758512   -1.739861    1.394728
    111          1           0       -6.256624   -2.595366    1.694541
    112          1           0       -6.789253   -0.178281   -0.060411
    113          1           0       -5.844395    0.259863    1.359129
    114          1           0       -8.218878   -1.496707    1.551976
    115          1           0       -6.919308   -0.920818    3.623982
    116          1           0       -8.636303   -0.533597    3.917634
    117          1           0       -7.473170    0.674687    3.261100
    118          1           0       -8.272687    1.249333    0.618798
    119          1           0       -9.326669    1.029727    2.029364
    120          1           0       -9.781001   -0.908075   -0.193335
    121          1           0      -10.382119    0.576689   -0.379647
    122          1           0      -10.865388   -0.839303    2.266861
    123          1           0      -11.737083   -1.481052    0.996076
    124          1           0      -11.790803    1.473553    1.187554
    125          1           0      -14.126577    0.478580    2.585662
    126          1           0      -12.771087    1.585593    3.043584
    127          1           0      -12.730274   -0.222567    3.292901
    128          1           0      -14.328508    0.308748    0.351853
    129          1           0      -12.867382   -0.188448   -0.637448
    130          1           0      -12.379910    2.086817   -1.208769
    131          1           0      -13.476705    2.715837   -0.016176
    132          1           0      -14.947039    0.914911   -1.908709
    133          1           0      -14.026883    2.037035   -2.756927
    134          1           0      -15.344357    3.556608   -0.762288
    135          1           0      -16.959697    2.507153   -0.057962
    136          1           0      -16.951472    1.178320   -1.195624
    137          1           0      -17.800332    2.792619   -1.468793
    138          1           0      -15.049883    4.722376   -2.478720
    139          1           0      -16.795178    4.214923   -2.778712
    140          1           0      -15.317340    3.635172   -3.687742
 ---------------------------------------------------------------------

 SCF Done:  E(RwB97XD) =  -3007.86127707     A.U. after   19 cycles

 Excitation energies and oscillator strengths:

 Excited State   1:      Singlet-A      1.7353 eV  714.50 nm  f=0.3682  <S**2>=0.000
     245 -> 248       -0.19332
     246 -> 247        0.68057
     245 <- 248       -0.11434
 This state for optimization and/or second-order correction.
 Total Energy, E(TD-HF/TD-DFT) =  -3007.79750743
 Copying the excited state density for this state as the 1-particle RhoCI density.

 Excited State   2:      Singlet-A      2.1503 eV  576.58 nm  f=0.1486  <S**2>=0.000
     245 -> 247        0.65109
     246 -> 248        0.26447

 Excited State   3:      Singlet-A      3.4349 eV  360.95 nm  f=0.0849  <S**2>=0.000
     239 -> 247       -0.23213
     239 -> 249        0.14384
     241 -> 247        0.48056
     244 -> 247       -0.22068
     246 -> 248       -0.30893

 Excited State   4:      Singlet-A      3.5078 eV  353.46 nm  f=0.0041  <S**2>=0.000
     237 -> 247       -0.10154
     239 -> 247        0.41570
     239 -> 249       -0.18934
     240 -> 247        0.39808
     240 -> 249       -0.12698
     241 -> 247        0.19828
     244 -> 247       -0.14483

 Excited State   5:      Singlet-A      3.6164 eV  342.84 nm  f=0.5521  <S**2>=0.000
     239 -> 247       -0.10048
     241 -> 247        0.13761
     244 -> 247       -0.33748
     245 -> 247       -0.22907
     246 -> 248        0.53043

 The electronic state is 1-A.
 Alpha  occ. eigenvalues --  -46.95889 -19.30451 -19.28227 -19.25406 -19.24698
 Alpha  occ. eigenvalues --  -19.24238 -19.22984 -14.46825 -14.46045 -14.44120
 Alpha  occ. eigenvalues --  -14.44103 -10.43197 -10.42776 -10.39990 -10.38214
 Alpha  occ. eigenvalues --  -10.35980 -10.35711 -10.34802 -10.34577 -10.34447
 Alpha  occ. eigenvalues --  -10.34092 -10.33969 -10.33571 -10.33382 -10.33205
 Alpha  occ. eigenvalues --  -10.33039 -10.32721 -10.32719 -10.32504 -10.32088
 Alpha  occ. eigenvalues --  -10.32062 -10.31764 -10.31656 -10.31573 -10.31380
 Alpha  occ. eigenvalues --  -10.31369 -10.31090 -10.30902 -10.30693 -10.30376
 Alpha  occ. eigenvalues --  -10.30287 -10.30188 -10.30126 -10.30085 -10.30063
 Alpha  occ. eigenvalues --  -10.30025 -10.29957 -10.29844 -10.29789 -10.29694
 Alpha  occ. eigenvalues --  -10.29679 -10.29467 -10.29378 -10.29307 -10.29159
 Alpha  occ. eigenvalues --  -10.29142 -10.29006 -10.28979 -10.28850 -10.28841
 Alpha  occ. eigenvalues --  -10.28778 -10.28518 -10.28384 -10.28083 -10.28031
 Alpha  occ. eigenvalues --  -10.27922  -3.21717  -1.95325  -1.94841  -1.94673
 Alpha  occ. eigenvalues --   -1.18280  -1.16035  -1.14940  -1.11218  -1.09377
 Alpha  occ. eigenvalues --   -1.08202  -1.07097  -1.06293  -1.05743  -1.04262
 Alpha  occ. eigenvalues --   -0.94245  -0.93014  -0.91972  -0.91458  -0.90849
 Alpha  occ. eigenvalues --   -0.90183  -0.89889  -0.89392  -0.89230  -0.88599
 Alpha  occ. eigenvalues --   -0.87622  -0.87473  -0.86176  -0.85166  -0.84940
 Alpha  occ. eigenvalues --   -0.84046  -0.83317  -0.82893  -0.82204  -0.82136
 Alpha  occ. eigenvalues --   -0.81393  -0.80027  -0.79372  -0.78799  -0.77875
 Alpha  occ. eigenvalues --   -0.77598  -0.77491  -0.77077  -0.76879  -0.76407
 Alpha  occ. eigenvalues --   -0.75197  -0.74550  -0.73377  -0.72201  -0.71581
 Alpha  occ. eigenvalues --   -0.71037  -0.70437  -0.69175  -0.68755  -0.67921
 Alpha  occ. eigenvalues --   -0.67316  -0.67247  -0.66264  -0.66201  -0.65719
 Alpha  occ. eigenvalues --   -0.65224  -0.64906  -0.64160  -0.63156  -0.62111
 Alpha  occ. eigenvalues --   -0.61598  -0.61477  -0.61017  -0.60179  -0.59515
 Alpha  occ. eigenvalues --   -0.59169  -0.58780  -0.57845  -0.57677  -0.57377
 Alpha  occ. eigenvalues --   -0.56963  -0.56682  -0.56514  -0.56288  -0.55700
 Alpha  occ. eigenvalues --   -0.55462  -0.55193  -0.55019  -0.54606  -0.54303
 Alpha  occ. eigenvalues --   -0.54295  -0.54083  -0.53737  -0.53715  -0.53639
 Alpha  occ. eigenvalues --   -0.53443  -0.53147  -0.52997  -0.52889  -0.52778
 Alpha  occ. eigenvalues --   -0.52701  -0.52217  -0.51658  -0.51505  -0.51366
 Alpha  occ. eigenvalues --   -0.51242  -0.51111  -0.50862  -0.50811  -0.50545
 Alpha  occ. eigenvalues --   -0.50170  -0.50012  -0.49923  -0.49736  -0.49397
 Alpha  occ. eigenvalues --   -0.49119  -0.48990  -0.48850  -0.48795  -0.48494
 Alpha  occ. eigenvalues --   -0.48408  -0.48310  -0.48249  -0.47923  -0.47887
 Alpha  occ. eigenvalues --   -0.47310  -0.47277  -0.47090  -0.46873  -0.46844
 Alpha  occ. eigenvalues --   -0.46652  -0.46573  -0.46391  -0.46181  -0.45868
 Alpha  occ. eigenvalues --   -0.45741  -0.45551  -0.45415  -0.45250  -0.45046
 Alpha  occ. eigenvalues --   -0.44853  -0.44786  -0.44677  -0.44265  -0.43989
 Alpha  occ. eigenvalues --   -0.43849  -0.43450  -0.43247  -0.43061  -0.43025
 Alpha  occ. eigenvalues --   -0.42950  -0.42762  -0.42422  -0.42223  -0.42118
 Alpha  occ. eigenvalues --   -0.41958  -0.41343  -0.40908  -0.40610  -0.40607
 Alpha  occ. eigenvalues --   -0.40053  -0.39967  -0.39718  -0.39584  -0.39487
 Alpha  occ. eigenvalues --   -0.38963  -0.38738  -0.38573  -0.38335  -0.37685
 Alpha  occ. eigenvalues --   -0.37288  -0.36842  -0.36507  -0.36162  -0.35986
 Alpha  occ. eigenvalues --   -0.35467  -0.35349  -0.35047  -0.33201  -0.32868
 Alpha  occ. eigenvalues --   -0.32589  -0.32242  -0.31927  -0.31585  -0.25355
 Alpha  occ. eigenvalues --   -0.23020
 Alpha virt. eigenvalues --   -0.06826   0.00514   0.02347   0.04580   0.05431
 Alpha virt. eigenvalues --    0.06538   0.06962   0.07117   0.08473   0.09067
 Alpha virt. eigenvalues --    0.10912   0.11891   0.12212   0.12329   0.12477

 Mulliken charges:
               1
     1  Mg   0.964151
     2  C   -0.021274
     3  C   -0.069852
     4  C   -0.035298
     5  C   -0.107397
     6  N   -0.287472
     7  C    0.018330
     8  C   -0.144501
     9  C   -0.092824
    10  C    0.091715
    11  C   -0.002418
    12  C    0.018537
    13  C    0.061844
    14  C    0.181022
    15  O   -0.259461
    16  O   -0.371696
    17  N   -0.476442
    18  C    0.120522
    19  C   -0.129474
    20  C   -0.077921
    21  C    0.133456
    22  C    0.010397
    23  C    0.027308
    24  O   -0.244145
    25  C   -0.007793
    26  N   -0.314772
    27  C   -0.008436
    28  C   -0.087754
    29  C   -0.022516
    30  C   -0.008648
    31  C    0.019380
    32  C   -0.037615
    33  C   -0.071117
    34  N   -0.413874
    35  C    0.186933
    36  C   -0.184504
    37  C   -0.040747
    38  C    0.161055
    39  C    0.085956
    40  C    0.110242
    41  O   -0.148754
    42  C   -0.174426
    43  C    0.295085
    44  O   -0.246770
    45  O   -0.387715
    46  C    0.153953
    47  C    0.267832
    48  C   -0.133303
    49  C   -0.220778
    50  C    0.033210
    51  C    0.034242
    52  C   -0.032404
    53  C    0.012973
    54  C   -0.204850
    55  C   -0.010492
    56  C    0.062688
    57  C   -0.026730
    58  C   -0.016815
    59  C   -0.216970
    60  C    0.028663
    61  C    0.049562
    62  C   -0.057864
    63  C    0.020192
    64  C   -0.223272
    65  C    0.020497
    66  C   -0.009962
    67  H   -0.002615
    68  H    0.023292
    69  H   -0.016918
    70  H    0.083575
    71  H    0.031680
    72  H    0.044959
    73  H    0.047892
    74  H    0.035223
    75  H    0.019022
    76  H    0.043035
    77  H    0.053134
    78  H    0.052483
    79  H    0.054838
    80  H    0.044484
    81  H    0.031359
    82  H    0.052325
    83  H    0.055981
    84  H    0.056667
    85  H    0.053346
    86  H    0.038024
    87  H    0.045982
    88  H    0.036905
    89  H    0.042999
    90  H    0.039802
    91  H    0.042372
    92  H    0.045719
    93  H    0.045619
    94  H    0.034027
    95  H    0.040304
    96  H    0.063231
    97  H    0.063137
    98  H    0.080566
    99  H    0.028762
   100  H    0.067744
   101  H    0.047932
   102  H    0.040978
   103  H    0.054828
   104  H    0.015528
   105  H    0.055131
   106  H    0.034055
   107  H    0.046564
   108  H    0.018318
   109  H    0.038452
   110  H    0.035365
   111  H    0.028019
   112  H    0.023978
   113  H    0.018878
   114  H    0.007945
   115  H    0.018929
   116  H    0.050762
   117  H    0.015276
   118  H    0.017166
   119  H    0.010832
   120  H    0.002013
   121  H    0.005875
   122  H    0.005577
   123  H    0.018529
   124  H    0.019169
   125  H    0.015876
   126  H    0.037202
   127  H    0.026221
   128  H    0.022277
   129  H    0.020412
   130  H    0.025456
   131  H    0.021175
   132  H    0.008950
   133  H    0.008389
   134  H    0.020233
   135  H    0.015775
   136  H    0.032532
   137  H    0.020567
   138  H    0.022118
   139  H    0.029984
   140  H    0.023087
 Sum of Mulliken charges =  -0.00000

 Dipole moment (field-independent basis, Debye):
    X=             -3.2022    Y=              0.7983    Z=              0.7774  Tot=              3.3905
 Quadrupole moment (field-independent basis, Debye-Ang):
   XX=           -365.1736   YY=           -433.4508   ZZ=           -401.9307
   XY=              9.9447   XZ=             -1.8167   YZ=             -5.7693

 Normal termination of Gaussian 16 at Wed Apr 27 11:43:12 2022.
