 Gaussian 16, Revision A.03,
 Gaussian 16:  ES64L-G16RevA.03 25-Dec-2016

 --------------------
 #p ZINDO=(nstates=5)
 --------------------

 ------------------------------
 step_1151_chromophore_18 ZINDO
 ------------------------------
 Symbolic Z-matrix:
 Charge =  0 Multiplicity = 1

                         Standard orientation:
 ---------------------------------------------------------------------
 Center     Atomic      Atomic             Coordinates (Angstroms)
 Number     Number       Type             X           Y           Z
 ---------------------------------------------------------------------
      1         12           0        5.279280    1.161030    0.227886
      2          6           0        4.405660   -2.274930    0.184828
      3          6           0        1.903604    1.950915    0.075558
      4          6           0        6.205936    4.331145   -0.078180
      5          6           0        8.625360    0.169282   -0.153773
      6          7           0        3.336949   -0.120951    0.472369
      7          6           0        3.226383   -1.416564    0.362429
      8          6           0        1.753704   -1.904916    0.366745
      9          6           0        1.003622   -0.466375    0.260146
     10          6           0        2.144225    0.552781    0.300143
     11          6           0       -0.061611   -0.346770   -0.928441
     12          6           0        1.488653   -2.758297    1.601923
     13          6           0        0.841269   -4.120902    1.312594
     14          6           0        0.020072   -4.210329    0.029703
     15          8           0        0.334492   -4.834429   -0.984445
     16          8           0       -1.062844   -3.383758    0.112722
     17          7           0        4.179687    2.887726    0.158802
     18          6           0        2.827943    3.016252    0.054120
     19          6           0        2.464366    4.403609   -0.046197
     20          6           0        3.712210    5.137767   -0.052982
     21          6           0        4.762479    4.125308    0.037957
     22          6           0        1.083444    4.901471   -0.508679
     23          6           0        3.974689    6.619617   -0.064217
     24          8           0        5.112995    7.074928   -0.066501
     25          6           0        2.782783    7.605919    0.016085
     26          7           0        7.210173    2.070645   -0.096050
     27          6           0        7.279391    3.445709   -0.163072
     28          6           0        8.770990    3.935801   -0.429660
     29          6           0        9.539308    2.556329   -0.310604
     30          6           0        8.393016    1.558808   -0.161465
     31          6           0        8.922605    4.624477   -1.798530
     32          6           0       10.625076    2.475642    0.805859
     33          6           0       10.188098    2.206536    2.319695
     34          7           0        6.352036   -0.639583    0.048786
     35          6           0        7.691592   -0.893337   -0.044718
     36          6           0        7.948510   -2.297062   -0.049657
     37          6           0        6.656933   -2.927569    0.058271
     38          6           0        5.752433   -1.842297    0.089334
     39          6           0        9.243677   -3.009973   -0.068576
     40          6           0        5.996868   -4.185691    0.147196
     41          8           0        6.466017   -5.255061    0.354305
     42          6           0        4.369616   -3.793249    0.173182
     43          6           0        3.721867   -4.383393   -1.032351
     44          8           0        3.147971   -3.769780   -1.936100
     45          8           0        3.640099   -5.802341   -0.967486
     46          6           0        3.256391   -6.518705   -2.151997
     47          6           0       -1.943544   -3.396226   -1.090678
     48          6           0       -3.247735   -2.826894   -0.739799
     49          6           0       -4.478140   -3.435583   -0.536918
     50          6           0       -4.688889   -4.966551   -0.636788
     51          6           0       -5.758320   -2.700199   -0.255775
     52          6           0       -5.770379   -1.891078    1.018812
     53          6           0       -6.481088   -0.513589    0.929426
     54          6           0       -7.876229   -0.474875    1.715716
     55          6           0       -7.785466   -0.369105    3.257180
     56          6           0       -8.860143    0.525082    1.183407
     57          6           0      -10.042502   -0.058403    0.438291
     58          6           0      -11.213164   -0.565332    1.271845
     59          6           0      -12.395102    0.571661    1.279802
     60          6           0      -13.046689    0.604404    2.656858
     61          6           0      -13.302533    0.531664    0.055821
     62          6           0      -13.316879    1.876386   -0.693449
     63          6           0      -14.480392    1.891394   -1.777435
     64          6           0      -15.610857    2.871205   -1.566507
     65          6           0      -16.912672    2.265028   -1.119816
     66          6           0      -15.746757    3.921711   -2.727869
     67          1           0        0.884340    2.272512   -0.147527
     68          1           0        6.536898    5.335958   -0.347621
     69          1           0        9.693539   -0.031721   -0.260781
     70          1           0        1.479736   -2.448553   -0.537431
     71          1           0        0.351416   -0.445309    1.132937
     72          1           0       -1.041793   -0.434407   -0.459634
     73          1           0        0.232349   -1.146007   -1.608563
     74          1           0        0.010726    0.588492   -1.484361
     75          1           0        0.812729   -2.196294    2.246156
     76          1           0        2.351512   -2.860181    2.259317
     77          1           0        0.130024   -4.280611    2.123329
     78          1           0        1.729993   -4.751922    1.317404
     79          1           0        0.434188    5.053936    0.354189
     80          1           0        0.640988    4.242954   -1.256176
     81          1           0        1.010712    5.764788   -1.169434
     82          1           0        2.188645    7.285768    0.872810
     83          1           0        2.198418    7.491006   -0.896804
     84          1           0        3.222035    8.591886    0.163839
     85          1           0        8.835553    4.587850    0.441335
     86          1           0       10.010023    2.324057   -1.265708
     87          1           0        7.984225    4.710249   -2.347067
     88          1           0        9.617062    4.161551   -2.499564
     89          1           0        9.218102    5.662501   -1.651860
     90          1           0       10.987392    3.502473    0.839701
     91          1           0       11.422774    1.759910    0.606656
     92          1           0        9.130752    1.946503    2.350837
     93          1           0       10.415294    3.037085    2.988390
     94          1           0       10.712589    1.331769    2.703639
     95          1           0        9.962002   -2.447242    0.528420
     96          1           0        9.593879   -3.129617   -1.093319
     97          1           0        9.035998   -3.959930    0.423132
     98          1           0        3.879123   -4.242924    1.036086
     99          1           0        4.116961   -6.561227   -2.819599
    100          1           0        2.428295   -6.172192   -2.770316
    101          1           0        3.108581   -7.514819   -1.735298
    102          1           0       -2.044558   -4.441414   -1.384942
    103          1           0       -1.539959   -2.811968   -1.917133
    104          1           0       -3.336100   -1.743830   -0.836505
    105          1           0       -4.887379   -5.420693    0.333372
    106          1           0       -3.806556   -5.402778   -1.105813
    107          1           0       -5.589369   -5.026736   -1.246692
    108          1           0       -6.619899   -3.364742   -0.185329
    109          1           0       -5.971635   -2.030552   -1.089236
    110          1           0       -4.758512   -1.739861    1.394728
    111          1           0       -6.256624   -2.595366    1.694541
    112          1           0       -6.789253   -0.178281   -0.060411
    113          1           0       -5.844395    0.259863    1.359129
    114          1           0       -8.218878   -1.496707    1.551976
    115          1           0       -6.919308   -0.920818    3.623982
    116          1           0       -8.636303   -0.533597    3.917634
    117          1           0       -7.473170    0.674687    3.261100
    118          1           0       -8.272687    1.249333    0.618798
    119          1           0       -9.326669    1.029727    2.029364
    120          1           0       -9.781001   -0.908075   -0.193335
    121          1           0      -10.382119    0.576689   -0.379647
    122          1           0      -10.865388   -0.839303    2.266861
    123          1           0      -11.737083   -1.481052    0.996076
    124          1           0      -11.790803    1.473553    1.187554
    125          1           0      -14.126577    0.478580    2.585662
    126          1           0      -12.771087    1.585593    3.043584
    127          1           0      -12.730274   -0.222567    3.292901
    128          1           0      -14.328508    0.308748    0.351853
    129          1           0      -12.867382   -0.188448   -0.637448
    130          1           0      -12.379910    2.086817   -1.208769
    131          1           0      -13.476705    2.715837   -0.016176
    132          1           0      -14.947039    0.914911   -1.908709
    133          1           0      -14.026883    2.037035   -2.756927
    134          1           0      -15.344357    3.556608   -0.762288
    135          1           0      -16.959697    2.507153   -0.057962
    136          1           0      -16.951472    1.178320   -1.195624
    137          1           0      -17.800332    2.792619   -1.468793
    138          1           0      -15.049883    4.722376   -2.478720
    139          1           0      -16.795178    4.214923   -2.778712
    140          1           0      -15.317340    3.635172   -3.687742
 ---------------------------------------------------------------------

 SCF Done:  E(RZINDO/S) =  -474.161517938     A.U. after   20 cycles

 Excitation energies and oscillator strengths:

 Excited State   1:      Singlet-A      1.3291 eV  932.84 nm  f=0.5325  <S**2>=0.000
     175 ->178        -0.17074
     176 ->177         0.66908
 This state for optimization and/or second-order correction.
 Total Energy, E(CIS/TDA) =  -474.112674261
 Copying the excited state density for this state as the 1-particle RhoCI density.

 Excited State   2:      Singlet-A      1.9034 eV  651.38 nm  f=0.0919  <S**2>=0.000
     175 ->177         0.57397
     176 ->178         0.37287

 Excited State   3:      Singlet-A      2.9542 eV  419.69 nm  f=0.5489  <S**2>=0.000
     168 ->177         0.27533
     168 ->178        -0.11392
     168 ->179        -0.24457
     168 ->182        -0.10738
     168 ->186         0.11164
     175 ->177        -0.24209
     176 ->178         0.40392

 Excited State   4:      Singlet-A      2.9930 eV  414.25 nm  f=0.5926  <S**2>=0.000
     168 ->177        -0.29621
     168 ->178         0.12318
     168 ->179         0.27500
     168 ->182         0.13413
     168 ->186        -0.12592
     175 ->177        -0.24024
     176 ->178         0.38310

 Excited State   5:      Singlet-A      3.0594 eV  405.26 nm  f=0.0001  <S**2>=0.000
     170 ->177         0.14193
     170 ->179         0.16866
     170 ->180         0.20852
     170 ->182        -0.16342
     170 ->186        -0.12477
     170 ->188         0.10223
     171 ->177         0.18211
     171 ->179         0.22699
     171 ->180         0.28017
     171 ->182        -0.21951
     171 ->186        -0.16706
     171 ->188         0.13663
     171 ->189        -0.12158

 The electronic state is 1-A.
 Alpha  occ. eigenvalues --   -1.84650  -1.80307  -1.78805  -1.73783  -1.69875
 Alpha  occ. eigenvalues --   -1.69633  -1.66068  -1.61071  -1.59581  -1.56826
 Alpha  occ. eigenvalues --   -1.55984  -1.51855  -1.50197  -1.47662  -1.45028
 Alpha  occ. eigenvalues --   -1.44153  -1.42815  -1.40010  -1.38047  -1.37117
 Alpha  occ. eigenvalues --   -1.35957  -1.34424  -1.32619  -1.30266  -1.28255
 Alpha  occ. eigenvalues --   -1.27599  -1.23862  -1.21720  -1.20060  -1.17422
 Alpha  occ. eigenvalues --   -1.16725  -1.16715  -1.14713  -1.14067  -1.13148
 Alpha  occ. eigenvalues --   -1.12979  -1.10841  -1.09315  -1.05016  -1.03821
 Alpha  occ. eigenvalues --   -1.02235  -1.01333  -0.98205  -0.97760  -0.96959
 Alpha  occ. eigenvalues --   -0.95493  -0.94582  -0.94143  -0.92909  -0.92855
 Alpha  occ. eigenvalues --   -0.91497  -0.90036  -0.89271  -0.87537  -0.86964
 Alpha  occ. eigenvalues --   -0.85406  -0.84069  -0.83515  -0.81303  -0.79987
 Alpha  occ. eigenvalues --   -0.79098  -0.78552  -0.77965  -0.76551  -0.76178
 Alpha  occ. eigenvalues --   -0.75311  -0.74905  -0.74508  -0.74375  -0.73983
 Alpha  occ. eigenvalues --   -0.73129  -0.72547  -0.71461  -0.71035  -0.70886
 Alpha  occ. eigenvalues --   -0.70259  -0.69765  -0.68854  -0.68371  -0.67683
 Alpha  occ. eigenvalues --   -0.67320  -0.66256  -0.66068  -0.65206  -0.64994
 Alpha  occ. eigenvalues --   -0.64850  -0.64337  -0.64154  -0.63784  -0.63257
 Alpha  occ. eigenvalues --   -0.62765  -0.62518  -0.61831  -0.61606  -0.61272
 Alpha  occ. eigenvalues --   -0.61073  -0.60955  -0.60667  -0.60621  -0.60153
 Alpha  occ. eigenvalues --   -0.59502  -0.59291  -0.58628  -0.58374  -0.57727
 Alpha  occ. eigenvalues --   -0.57582  -0.57345  -0.57050  -0.56886  -0.56357
 Alpha  occ. eigenvalues --   -0.55490  -0.55208  -0.55068  -0.54771  -0.54443
 Alpha  occ. eigenvalues --   -0.54138  -0.53856  -0.53299  -0.53113  -0.52826
 Alpha  occ. eigenvalues --   -0.52702  -0.52506  -0.52107  -0.51610  -0.51266
 Alpha  occ. eigenvalues --   -0.51189  -0.50974  -0.50567  -0.50173  -0.50123
 Alpha  occ. eigenvalues --   -0.50080  -0.49709  -0.49565  -0.49221  -0.48933
 Alpha  occ. eigenvalues --   -0.48772  -0.48329  -0.48219  -0.47911  -0.47742
 Alpha  occ. eigenvalues --   -0.47440  -0.47252  -0.47008  -0.46161  -0.46071
 Alpha  occ. eigenvalues --   -0.45894  -0.45816  -0.45563  -0.45217  -0.45144
 Alpha  occ. eigenvalues --   -0.45004  -0.44272  -0.43946  -0.43830  -0.43665
 Alpha  occ. eigenvalues --   -0.43558  -0.42663  -0.42440  -0.42238  -0.42106
 Alpha  occ. eigenvalues --   -0.41875  -0.41118  -0.41066  -0.38832  -0.38730
 Alpha  occ. eigenvalues --   -0.38187  -0.36965  -0.35857  -0.34582  -0.33671
 Alpha  occ. eigenvalues --   -0.33632  -0.31843  -0.31796  -0.31293  -0.26034
 Alpha  occ. eigenvalues --   -0.21780
 Alpha virt. eigenvalues --   -0.08210  -0.01630  -0.00317   0.01529   0.01898
 Alpha virt. eigenvalues --    0.02270   0.03045   0.03354   0.03969   0.04986
 Alpha virt. eigenvalues --    0.06034   0.06791   0.06880   0.07615   0.08356

 Mulliken charges:
               1
     1  Mg   0.434377
     2  C   -0.073610
     3  C   -0.061325
     4  C   -0.063632
     5  C   -0.099461
     6  N   -0.260198
     7  C    0.177020
     8  C   -0.000739
     9  C   -0.014060
    10  C    0.078834
    11  C   -0.059750
    12  C   -0.016575
    13  C    0.003144
    14  C    0.474008
    15  O   -0.517495
    16  O   -0.271083
    17  N   -0.306124
    18  C    0.077408
    19  C   -0.035709
    20  C   -0.063807
    21  C    0.116562
    22  C   -0.050529
    23  C    0.319106
    24  O   -0.538549
    25  C   -0.035724
    26  N   -0.257629
    27  C    0.081922
    28  C   -0.001853
    29  C    0.010087
    30  C    0.185876
    31  C   -0.046803
    32  C   -0.033740
    33  C   -0.061608
    34  N   -0.337795
    35  C    0.140496
    36  C    0.054602
    37  C   -0.055001
    38  C    0.137445
    39  C   -0.035075
    40  C    0.335366
    41  O   -0.485681
    42  C    0.051536
    43  C    0.475197
    44  O   -0.509156
    45  O   -0.277641
    46  C    0.081820
    47  C    0.114512
    48  C   -0.102544
    49  C   -0.001847
    50  C   -0.050144
    51  C   -0.012629
    52  C   -0.026923
    53  C   -0.035779
    54  C   -0.013567
    55  C   -0.066514
    56  C   -0.018937
    57  C   -0.026840
    58  C   -0.042985
    59  C   -0.025051
    60  C   -0.057594
    61  C   -0.023408
    62  C   -0.036421
    63  C   -0.037853
    64  C   -0.007367
    65  C   -0.056616
    66  C   -0.066034
    67  H    0.032385
    68  H    0.046076
    69  H    0.018287
    70  H    0.059958
    71  H    0.025076
    72  H    0.026705
    73  H    0.031379
    74  H    0.025317
    75  H    0.016137
    76  H    0.024607
    77  H    0.038897
    78  H    0.044002
    79  H    0.028009
    80  H    0.020044
    81  H    0.022180
    82  H    0.033664
    83  H    0.041099
    84  H    0.040408
    85  H    0.046758
    86  H    0.032702
    87  H    0.026457
    88  H    0.020833
    89  H    0.019643
    90  H    0.018476
    91  H    0.027280
    92  H    0.024470
    93  H    0.026887
    94  H    0.015655
    95  H    0.027142
    96  H    0.044139
    97  H    0.038586
    98  H    0.064834
    99  H    0.029760
   100  H    0.060297
   101  H    0.029175
   102  H    0.049311
   103  H    0.051581
   104  H    0.019630
   105  H    0.032941
   106  H    0.028740
   107  H    0.028885
   108  H    0.017460
   109  H    0.022741
   110  H    0.020728
   111  H    0.020245
   112  H    0.025502
   113  H    0.017718
   114  H    0.006753
   115  H    0.009798
   116  H    0.034420
   117  H    0.012254
   118  H    0.020349
   119  H    0.016092
   120  H    0.003231
   121  H    0.013953
   122  H    0.016478
   123  H    0.017525
   124  H    0.013048
   125  H    0.015493
   126  H    0.022581
   127  H    0.021206
   128  H    0.027044
   129  H    0.022590
   130  H    0.020439
   131  H    0.020638
   132  H    0.014716
   133  H    0.011268
   134  H    0.012347
   135  H    0.006682
   136  H    0.026020
   137  H    0.022295
   138  H    0.013637
   139  H    0.026226
   140  H    0.020203
 Sum of Mulliken charges =  -0.00000

 Dipole moment (field-independent basis, Debye):
    X=             -2.5642    Y=             -1.2725    Z=              1.6929  Tot=              3.3257
 N-N= 4.306712975766D+03 E-N= 0.000000000000D+00  KE=-9.288281856691D+03
 Leave Link  601 at Wed Apr 27 11:54:56 2022, MaxMem=  6710886400 cpu:               1.0 elap:               0.1
 (Enter /sw/apps/gaussian-16.0/g16/l9999.exe)
 1\1\GINC-BP1-COMPUTE182\SP\RZINDO CIS\STO-3G\C55H74Mg1N4O6\OF15641\27-
 Apr-2022\0\\#p ZINDO=(nstates=5)\\step_1151_chromophore_18 ZINDO\\0,1\
 Mg,0,34.824,50.154,25.511\C,0,34.824,48.403,28.594\C,0,33.344,52.849,2
 7.12\C,0,34.55,51.572,22.525\C,0,35.822,47.16,23.973\N,0,34.463,50.651
 ,27.769\C,0,34.458,49.815,28.771\C,0,33.966,50.455,30.096\C,0,33.436,5
 1.878,29.515\C,0,33.789,51.828,28.027\C,0,31.931,52.251,29.912\C,0,35.
 097,50.478,31.118\C,0,34.734,49.888,32.489\C,0,33.255,49.928,32.862\O,

 Normal termination of Gaussian 16 at Wed Apr 27 11:54:56 2022.
