 Gaussian 16, Revision A.03,
 Gaussian 16:  ES64L-G16RevA.03 25-Dec-2016

 ------------------------------
 #p blyp/Def2SVP td=(nstates=5)
 ------------------------------

 --------------------------------------------------
 step_1701_chromophore_7 TDDFT with blyp functional
 --------------------------------------------------
 Symbolic Z-matrix:
 Charge =  0 Multiplicity = 1

                         Standard orientation:
 ---------------------------------------------------------------------
 Center     Atomic      Atomic             Coordinates (Angstroms)
 Number     Number       Type             X           Y           Z
 ---------------------------------------------------------------------
      1         12           0        5.938053    0.633262    0.128690
      2          6           0        3.500223   -2.018272    0.332402
      3          6           0        3.578717    2.873331   -0.590219
      4          6           0        8.451352    2.883599   -0.039550
      5          6           0        8.322570   -1.960756    0.796198
      6          7           0        3.889654    0.415488   -0.063333
      7          6           0        2.994325   -0.685922    0.121500
      8          6           0        1.562448   -0.221792   -0.014006
      9          6           0        1.678828    1.221143   -0.494441
     10          6           0        3.145763    1.535984   -0.393710
     11          6           0        1.122246    1.623085   -1.865740
     12          6           0        0.619384   -0.559135    1.178036
     13          6           0       -0.934787   -0.267994    0.812454
     14          6           0       -1.917908   -1.431713    0.529116
     15          8           0       -1.559365   -2.508563    0.030329
     16          8           0       -3.193662   -1.021715    0.755373
     17          7           0        6.057396    2.475358   -0.405062
     18          6           0        4.937304    3.320026   -0.652942
     19          6           0        5.368169    4.698495   -0.888866
     20          6           0        6.777409    4.739736   -0.705293
     21          6           0        7.135601    3.328284   -0.385004
     22          6           0        4.364051    5.870993   -1.050887
     23          6           0        7.767535    5.883978   -1.054823
     24          8           0        8.959383    5.831067   -0.809596
     25          6           0        7.257861    7.141684   -1.722267
     26          7           0        8.049760    0.419770    0.330709
     27          6           0        8.837838    1.560738    0.231088
     28          6           0       10.329473    1.258866    0.733122
     29          6           0       10.227596   -0.275041    1.028164
     30          6           0        8.769654   -0.657089    0.699308
     31          6           0       11.512437    1.525034   -0.238010
     32          6           0       10.512756   -0.780536    2.464167
     33          6           0       11.485207   -1.972709    2.629789
     34          7           0        5.951702   -1.523848    0.395389
     35          6           0        7.069164   -2.359824    0.554621
     36          6           0        6.680955   -3.698449    0.450382
     37          6           0        5.260926   -3.598125    0.459173
     38          6           0        4.856419   -2.300123    0.432638
     39          6           0        7.612812   -4.894899    0.368991
     40          6           0        4.071896   -4.402325    0.580766
     41          8           0        4.036291   -5.621047    0.768486
     42          6           0        2.819065   -3.367430    0.462122
     43          6           0        1.963226   -3.774364   -0.638684
     44          8           0        2.149892   -3.383977   -1.772105
     45          8           0        0.973266   -4.655398   -0.234643
     46          6           0        0.098225   -5.119497   -1.328211
     47          6           0       -4.171640   -2.043339    0.586651
     48          6           0       -5.014190   -2.026342   -0.669818
     49          6           0       -6.170691   -2.668899   -0.904528
     50          6           0       -6.726858   -3.812757   -0.100711
     51          6           0       -6.886997   -2.286663   -2.215263
     52          6           0       -8.263846   -1.578286   -2.094340
     53          6           0       -8.243435   -0.143092   -2.673466
     54          6           0       -9.720955    0.196190   -2.963630
     55          6           0      -10.010960    0.739839   -4.417034
     56          6           0      -10.228417    1.133490   -1.874783
     57          6           0      -11.199649    0.421591   -0.895146
     58          6           0      -12.628834    1.002784   -0.992994
     59          6           0      -13.549002    0.078900   -0.169973
     60          6           0      -14.717470   -0.415235   -0.952911
     61          6           0      -14.043633    0.782021    1.077826
     62          6           0      -12.974807    0.900567    2.163179
     63          6           0      -12.630363    2.417973    2.435914
     64          6           0      -13.027056    2.755462    3.944163
     65          6           0      -14.308963    3.605380    4.094703
     66          6           0      -11.739121    3.448983    4.526236
     67          1           0        2.798781    3.636738   -0.625665
     68          1           0        9.205325    3.668547    0.053436
     69          1           0        9.021202   -2.764642    1.037051
     70          1           0        1.168671   -0.725356   -0.897090
     71          1           0        1.014360    1.740014    0.197547
     72          1           0        0.475695    0.888520   -2.344325
     73          1           0        1.954825    1.842318   -2.535201
     74          1           0        0.560468    2.555377   -1.810750
     75          1           0        0.744946    0.080097    2.052419
     76          1           0        0.848512   -1.570204    1.515815
     77          1           0       -1.018435    0.482789    0.026410
     78          1           0       -1.321753    0.137387    1.747612
     79          1           0        4.264176    6.381977   -0.093927
     80          1           0        3.361021    5.562264   -1.342870
     81          1           0        4.748092    6.571253   -1.793448
     82          1           0        6.812362    6.931531   -2.694633
     83          1           0        8.054591    7.861010   -1.911427
     84          1           0        6.587774    7.710262   -1.076610
     85          1           0       10.513769    1.983227    1.526448
     86          1           0       10.902626   -0.808176    0.358333
     87          1           0       11.175427    1.456348   -1.272789
     88          1           0       12.356717    0.838969   -0.177443
     89          1           0       11.952870    2.493318   -0.000563
     90          1           0        9.635999   -1.020321    3.066041
     91          1           0       10.962895   -0.027355    3.110825
     92          1           0       12.042067   -1.734518    3.536432
     93          1           0       12.315737   -2.094219    1.935464
     94          1           0       10.976662   -2.932771    2.718265
     95          1           0        8.608431   -4.619707    0.022497
     96          1           0        7.080593   -5.641256   -0.220202
     97          1           0        7.766249   -5.258750    1.384541
     98          1           0        2.422210   -3.580028    1.454786
     99          1           0        0.603654   -5.583084   -2.175026
    100          1           0       -0.680646   -4.400146   -1.584153
    101          1           0       -0.346234   -6.030365   -0.926982
    102          1           0       -4.884364   -2.003476    1.410685
    103          1           0       -3.690972   -3.021976    0.592615
    104          1           0       -4.787961   -1.248787   -1.398956
    105          1           0       -6.569174   -4.732176   -0.665606
    106          1           0       -7.795772   -3.726629    0.089866
    107          1           0       -6.130460   -4.131322    0.754277
    108          1           0       -6.983086   -3.246939   -2.721686
    109          1           0       -6.233810   -1.737620   -2.894003
    110          1           0       -8.543456   -1.487246   -1.044904
    111          1           0       -9.056716   -2.215584   -2.486501
    112          1           0       -7.604900   -0.192118   -3.555724
    113          1           0       -7.703128    0.471752   -1.954224
    114          1           0      -10.378706   -0.672935   -2.969200
    115          1           0      -10.497337   -0.083016   -4.941392
    116          1           0       -9.121564    0.858592   -5.035922
    117          1           0      -10.684160    1.592250   -4.516510
    118          1           0      -10.728201    1.926021   -2.432244
    119          1           0       -9.393675    1.581429   -1.334339
    120          1           0      -10.859453    0.762265    0.082910
    121          1           0      -11.149779   -0.665914   -0.937959
    122          1           0      -12.925373    1.067363   -2.039755
    123          1           0      -12.549567    2.007826   -0.578718
    124          1           0      -12.965262   -0.771729    0.183290
    125          1           0      -14.961913   -1.415665   -0.597544
    126          1           0      -14.412155   -0.524815   -1.993951
    127          1           0      -15.501613    0.330335   -0.818212
    128          1           0      -14.827438    0.213117    1.578535
    129          1           0      -14.368640    1.771590    0.754941
    130          1           0      -12.051692    0.385946    1.895006
    131          1           0      -13.415845    0.349174    2.993546
    132          1           0      -13.162209    3.034676    1.711853
    133          1           0      -11.571809    2.524919    2.195899
    134          1           0      -13.172052    1.884765    4.583009
    135          1           0      -14.731267    3.882312    3.128930
    136          1           0      -14.128647    4.484484    4.714155
    137          1           0      -15.068804    3.004955    4.593935
    138          1           0      -11.744334    4.484018    4.184705
    139          1           0      -10.862965    2.942322    4.121882
    140          1           0      -11.665157    3.292055    5.602810
 ---------------------------------------------------------------------

 SCF Done:  E(RB-LYP) =  -3007.36293719     A.U. after   21 cycles

 Excitation energies and oscillator strengths:

 Excited State   1:      Singlet-A      1.7588 eV  704.95 nm  f=0.2937  <S**2>=0.000
     245 -> 248        0.18437
     246 -> 247        0.69078
     246 <- 247       -0.15881
 This state for optimization and/or second-order correction.
 Total Energy, E(TD-HF/TD-DFT) =  -3007.29830397
 Copying the excited state density for this state as the 1-particle RhoCI density.

 Excited State   2:      Singlet-A      1.8126 eV  684.01 nm  f=0.0119  <S**2>=0.000
     244 -> 247        0.65516
     245 -> 247        0.25075

 Excited State   3:      Singlet-A      2.0172 eV  614.64 nm  f=0.0505  <S**2>=0.000
     243 -> 247        0.18424
     244 -> 247       -0.24565
     245 -> 247        0.56785
     246 -> 248       -0.25072

 Excited State   4:      Singlet-A      2.1485 eV  577.07 nm  f=0.0001  <S**2>=0.000
     242 -> 247        0.67292
     243 -> 247        0.21068

 Excited State   5:      Singlet-A      2.2657 eV  547.22 nm  f=0.0162  <S**2>=0.000
     242 -> 247       -0.18606
     243 -> 247        0.63714
     245 -> 247       -0.15518
     246 -> 248        0.14569

 The electronic state is 1-A.
 Alpha  occ. eigenvalues --  -46.24823 -18.83941 -18.80499 -18.77797 -18.76194
 Alpha  occ. eigenvalues --  -18.75301 -18.75194 -14.03549 -14.02945 -14.01477
 Alpha  occ. eigenvalues --  -13.99041 -10.05317 -10.02256 -10.00689  -9.98957
 Alpha  occ. eigenvalues --   -9.97988  -9.97199  -9.96693  -9.96446  -9.96269
 Alpha  occ. eigenvalues --   -9.96117  -9.95936  -9.95713  -9.94641  -9.94325
 Alpha  occ. eigenvalues --   -9.94173  -9.93714  -9.93622  -9.93588  -9.93509
 Alpha  occ. eigenvalues --   -9.93424  -9.93424  -9.93373  -9.93328  -9.93303
 Alpha  occ. eigenvalues --   -9.93276  -9.93000  -9.92920  -9.92747  -9.92639
 Alpha  occ. eigenvalues --   -9.92427  -9.92329  -9.92226  -9.92215  -9.92212
 Alpha  occ. eigenvalues --   -9.92158  -9.91863  -9.91861  -9.91692  -9.91689
 Alpha  occ. eigenvalues --   -9.91681  -9.91664  -9.91637  -9.91593  -9.91315
 Alpha  occ. eigenvalues --   -9.91128  -9.90997  -9.90955  -9.90843  -9.90689
 Alpha  occ. eigenvalues --   -9.90681  -9.90571  -9.90524  -9.90353  -9.90237
 Alpha  occ. eigenvalues --   -9.89931  -2.89882  -1.70299  -1.69739  -1.69633
 Alpha  occ. eigenvalues --   -0.99694  -0.95764  -0.92310  -0.90688  -0.90124
 Alpha  occ. eigenvalues --   -0.88512  -0.85773  -0.84836  -0.84687  -0.83805
 Alpha  occ. eigenvalues --   -0.75129  -0.74029  -0.73491  -0.72702  -0.72170
 Alpha  occ. eigenvalues --   -0.71786  -0.71111  -0.70701  -0.70621  -0.70115
 Alpha  occ. eigenvalues --   -0.69457  -0.69188  -0.67989  -0.67137  -0.67031
 Alpha  occ. eigenvalues --   -0.66118  -0.65606  -0.65284  -0.64712  -0.64431
 Alpha  occ. eigenvalues --   -0.64140  -0.62661  -0.62449  -0.61446  -0.61097
 Alpha  occ. eigenvalues --   -0.60243  -0.59968  -0.59610  -0.59455  -0.58784
 Alpha  occ. eigenvalues --   -0.58465  -0.57378  -0.56690  -0.55949  -0.54072
 Alpha  occ. eigenvalues --   -0.53527  -0.53149  -0.52240  -0.52125  -0.51316
 Alpha  occ. eigenvalues --   -0.51109  -0.50768  -0.50607  -0.50223  -0.49897
 Alpha  occ. eigenvalues --   -0.49775  -0.49349  -0.48734  -0.47138  -0.46850
 Alpha  occ. eigenvalues --   -0.46512  -0.46330  -0.45203  -0.44601  -0.44259
 Alpha  occ. eigenvalues --   -0.43894  -0.43700  -0.42872  -0.42829  -0.42297
 Alpha  occ. eigenvalues --   -0.42190  -0.41808  -0.41612  -0.41278  -0.41110
 Alpha  occ. eigenvalues --   -0.40786  -0.40614  -0.39975  -0.39899  -0.39731
 Alpha  occ. eigenvalues --   -0.39549  -0.39430  -0.39350  -0.39089  -0.39025
 Alpha  occ. eigenvalues --   -0.38647  -0.38571  -0.38380  -0.38036  -0.37836
 Alpha  occ. eigenvalues --   -0.37747  -0.37681  -0.37560  -0.37503  -0.36969
 Alpha  occ. eigenvalues --   -0.36870  -0.36658  -0.36485  -0.36394  -0.36108
 Alpha  occ. eigenvalues --   -0.35962  -0.35822  -0.35732  -0.35670  -0.35412
 Alpha  occ. eigenvalues --   -0.35132  -0.34987  -0.34794  -0.34674  -0.34456
 Alpha  occ. eigenvalues --   -0.34330  -0.34308  -0.34037  -0.34026  -0.33741
 Alpha  occ. eigenvalues --   -0.33613  -0.33477  -0.33371  -0.33315  -0.32968
 Alpha  occ. eigenvalues --   -0.32754  -0.32591  -0.32304  -0.32270  -0.32107
 Alpha  occ. eigenvalues --   -0.32025  -0.31840  -0.31576  -0.31461  -0.31244
 Alpha  occ. eigenvalues --   -0.31183  -0.31023  -0.30930  -0.30858  -0.30800
 Alpha  occ. eigenvalues --   -0.30600  -0.30354  -0.30154  -0.30120  -0.29980
 Alpha  occ. eigenvalues --   -0.29818  -0.29629  -0.29047  -0.28959  -0.28864
 Alpha  occ. eigenvalues --   -0.28307  -0.28172  -0.28093  -0.28057  -0.27956
 Alpha  occ. eigenvalues --   -0.27742  -0.27608  -0.27302  -0.27230  -0.26721
 Alpha  occ. eigenvalues --   -0.26606  -0.26162  -0.26060  -0.25671  -0.25165
 Alpha  occ. eigenvalues --   -0.24633  -0.23798  -0.23750  -0.23698  -0.22699
 Alpha  occ. eigenvalues --   -0.22505  -0.22371  -0.21887  -0.21025  -0.20623
 Alpha  occ. eigenvalues --   -0.20034  -0.19251  -0.19091  -0.18049  -0.17299
 Alpha  occ. eigenvalues --   -0.15486
 Alpha virt. eigenvalues --   -0.11439  -0.06939  -0.05989  -0.04239  -0.03822
 Alpha virt. eigenvalues --   -0.02005  -0.01507  -0.01159  -0.00529   0.00305
 Alpha virt. eigenvalues --    0.01531   0.02114   0.02661   0.02676   0.03109

 Mulliken charges:
               1
     1  Mg   0.718866
     2  C    0.042975
     3  C   -0.089089
     4  C   -0.049701
     5  C   -0.129526
     6  N   -0.279443
     7  C   -0.080104
     8  C    0.078362
     9  C   -0.044341
    10  C    0.097035
    11  C    0.122179
    12  C    0.146543
    13  C    0.071631
    14  C    0.094852
    15  O   -0.192547
    16  O   -0.231797
    17  N   -0.375979
    18  C    0.168889
    19  C   -0.139713
    20  C    0.006153
    21  C    0.092807
    22  C    0.152332
    23  C   -0.045175
    24  O   -0.149975
    25  C    0.116228
    26  N   -0.212446
    27  C    0.077384
    28  C   -0.009841
    29  C    0.100057
    30  C    0.023796
    31  C    0.097995
    32  C    0.080169
    33  C    0.038829
    34  N   -0.235468
    35  C    0.186417
    36  C   -0.200707
    37  C    0.114752
    38  C    0.056240
    39  C    0.204093
    40  C   -0.122801
    41  O   -0.137191
    42  C    0.047400
    43  C    0.143861
    44  O   -0.185184
    45  O   -0.274369
    46  C    0.227429
    47  C    0.300211
    48  C   -0.096273
    49  C   -0.156803
    50  C    0.151701
    51  C    0.143586
    52  C    0.032478
    53  C    0.121400
    54  C   -0.076288
    55  C    0.095330
    56  C    0.146676
    57  C    0.012191
    58  C    0.110224
    59  C   -0.085445
    60  C    0.153028
    61  C    0.082311
    62  C    0.058624
    63  C    0.087007
    64  C   -0.090617
    65  C    0.119168
    66  C    0.085665
    67  H   -0.055435
    68  H   -0.041601
    69  H   -0.072348
    70  H   -0.016435
    71  H   -0.032640
    72  H   -0.001488
    73  H   -0.002716
    74  H   -0.016768
    75  H   -0.029793
    76  H   -0.003941
    77  H    0.018377
    78  H   -0.005425
    79  H    0.011525
    80  H   -0.009614
    81  H   -0.007631
    82  H    0.021413
    83  H   -0.016686
    84  H    0.011225
    85  H   -0.014087
    86  H   -0.025264
    87  H   -0.004508
    88  H   -0.011406
    89  H   -0.006509
    90  H   -0.017829
    91  H   -0.032936
    92  H   -0.019958
    93  H   -0.013449
    94  H    0.004811
    95  H   -0.007953
    96  H    0.020295
    97  H   -0.001768
    98  H    0.004801
    99  H    0.004222
   100  H    0.030696
   101  H   -0.010166
   102  H    0.004208
   103  H    0.005376
   104  H   -0.042585
   105  H   -0.008912
   106  H    0.001988
   107  H   -0.022402
   108  H   -0.038026
   109  H   -0.034067
   110  H   -0.026371
   111  H   -0.029616
   112  H   -0.035339
   113  H   -0.018416
   114  H   -0.027523
   115  H   -0.031290
   116  H   -0.023071
   117  H   -0.010848
   118  H   -0.047470
   119  H   -0.042913
   120  H   -0.029801
   121  H   -0.010921
   122  H   -0.034942
   123  H   -0.032418
   124  H   -0.045390
   125  H   -0.021950
   126  H   -0.031796
   127  H   -0.013835
   128  H   -0.044269
   129  H   -0.028657
   130  H   -0.029165
   131  H   -0.032190
   132  H   -0.022612
   133  H   -0.030272
   134  H   -0.025709
   135  H   -0.016478
   136  H   -0.015907
   137  H   -0.019708
   138  H   -0.009382
   139  H   -0.021768
   140  H   -0.020612
 Sum of Mulliken charges =  -0.00000

 Dipole moment (field-independent basis, Debye):
    X=             -3.7000    Y=              3.5397    Z=              1.7360  Tot=              5.4068
 Quadrupole moment (field-independent basis, Debye-Ang):
   XX=           -380.7787   YY=           -419.9551   ZZ=           -403.8192
   XY=              6.1919   XZ=             11.6995   YZ=             -2.5049

 Normal termination of Gaussian 16 at Thu Apr 28 21:07:16 2022.
