 Gaussian 16, Revision A.03,
 Gaussian 16:  ES64L-G16RevA.03 25-Dec-2016

 -----------------------------------
 #p cam-b3lyp/Def2SVP td=(nstates=5)
 -----------------------------------

 -------------------------------------------------------
 step_1701_chromophore_7 TDDFT with cam-b3lyp functional
 -------------------------------------------------------
 Symbolic Z-matrix:
 Charge =  0 Multiplicity = 1

                         Standard orientation:
 ---------------------------------------------------------------------
 Center     Atomic      Atomic             Coordinates (Angstroms)
 Number     Number       Type             X           Y           Z
 ---------------------------------------------------------------------
      1         12           0        5.938053    0.633262    0.128690
      2          6           0        3.500223   -2.018272    0.332402
      3          6           0        3.578717    2.873331   -0.590219
      4          6           0        8.451352    2.883599   -0.039550
      5          6           0        8.322570   -1.960756    0.796198
      6          7           0        3.889654    0.415488   -0.063333
      7          6           0        2.994325   -0.685922    0.121500
      8          6           0        1.562448   -0.221792   -0.014006
      9          6           0        1.678828    1.221143   -0.494441
     10          6           0        3.145763    1.535984   -0.393710
     11          6           0        1.122246    1.623085   -1.865740
     12          6           0        0.619384   -0.559135    1.178036
     13          6           0       -0.934787   -0.267994    0.812454
     14          6           0       -1.917908   -1.431713    0.529116
     15          8           0       -1.559365   -2.508563    0.030329
     16          8           0       -3.193662   -1.021715    0.755373
     17          7           0        6.057396    2.475358   -0.405062
     18          6           0        4.937304    3.320026   -0.652942
     19          6           0        5.368169    4.698495   -0.888866
     20          6           0        6.777409    4.739736   -0.705293
     21          6           0        7.135601    3.328284   -0.385004
     22          6           0        4.364051    5.870993   -1.050887
     23          6           0        7.767535    5.883978   -1.054823
     24          8           0        8.959383    5.831067   -0.809596
     25          6           0        7.257861    7.141684   -1.722267
     26          7           0        8.049760    0.419770    0.330709
     27          6           0        8.837838    1.560738    0.231088
     28          6           0       10.329473    1.258866    0.733122
     29          6           0       10.227596   -0.275041    1.028164
     30          6           0        8.769654   -0.657089    0.699308
     31          6           0       11.512437    1.525034   -0.238010
     32          6           0       10.512756   -0.780536    2.464167
     33          6           0       11.485207   -1.972709    2.629789
     34          7           0        5.951702   -1.523848    0.395389
     35          6           0        7.069164   -2.359824    0.554621
     36          6           0        6.680955   -3.698449    0.450382
     37          6           0        5.260926   -3.598125    0.459173
     38          6           0        4.856419   -2.300123    0.432638
     39          6           0        7.612812   -4.894899    0.368991
     40          6           0        4.071896   -4.402325    0.580766
     41          8           0        4.036291   -5.621047    0.768486
     42          6           0        2.819065   -3.367430    0.462122
     43          6           0        1.963226   -3.774364   -0.638684
     44          8           0        2.149892   -3.383977   -1.772105
     45          8           0        0.973266   -4.655398   -0.234643
     46          6           0        0.098225   -5.119497   -1.328211
     47          6           0       -4.171640   -2.043339    0.586651
     48          6           0       -5.014190   -2.026342   -0.669818
     49          6           0       -6.170691   -2.668899   -0.904528
     50          6           0       -6.726858   -3.812757   -0.100711
     51          6           0       -6.886997   -2.286663   -2.215263
     52          6           0       -8.263846   -1.578286   -2.094340
     53          6           0       -8.243435   -0.143092   -2.673466
     54          6           0       -9.720955    0.196190   -2.963630
     55          6           0      -10.010960    0.739839   -4.417034
     56          6           0      -10.228417    1.133490   -1.874783
     57          6           0      -11.199649    0.421591   -0.895146
     58          6           0      -12.628834    1.002784   -0.992994
     59          6           0      -13.549002    0.078900   -0.169973
     60          6           0      -14.717470   -0.415235   -0.952911
     61          6           0      -14.043633    0.782021    1.077826
     62          6           0      -12.974807    0.900567    2.163179
     63          6           0      -12.630363    2.417973    2.435914
     64          6           0      -13.027056    2.755462    3.944163
     65          6           0      -14.308963    3.605380    4.094703
     66          6           0      -11.739121    3.448983    4.526236
     67          1           0        2.798781    3.636738   -0.625665
     68          1           0        9.205325    3.668547    0.053436
     69          1           0        9.021202   -2.764642    1.037051
     70          1           0        1.168671   -0.725356   -0.897090
     71          1           0        1.014360    1.740014    0.197547
     72          1           0        0.475695    0.888520   -2.344325
     73          1           0        1.954825    1.842318   -2.535201
     74          1           0        0.560468    2.555377   -1.810750
     75          1           0        0.744946    0.080097    2.052419
     76          1           0        0.848512   -1.570204    1.515815
     77          1           0       -1.018435    0.482789    0.026410
     78          1           0       -1.321753    0.137387    1.747612
     79          1           0        4.264176    6.381977   -0.093927
     80          1           0        3.361021    5.562264   -1.342870
     81          1           0        4.748092    6.571253   -1.793448
     82          1           0        6.812362    6.931531   -2.694633
     83          1           0        8.054591    7.861010   -1.911427
     84          1           0        6.587774    7.710262   -1.076610
     85          1           0       10.513769    1.983227    1.526448
     86          1           0       10.902626   -0.808176    0.358333
     87          1           0       11.175427    1.456348   -1.272789
     88          1           0       12.356717    0.838969   -0.177443
     89          1           0       11.952870    2.493318   -0.000563
     90          1           0        9.635999   -1.020321    3.066041
     91          1           0       10.962895   -0.027355    3.110825
     92          1           0       12.042067   -1.734518    3.536432
     93          1           0       12.315737   -2.094219    1.935464
     94          1           0       10.976662   -2.932771    2.718265
     95          1           0        8.608431   -4.619707    0.022497
     96          1           0        7.080593   -5.641256   -0.220202
     97          1           0        7.766249   -5.258750    1.384541
     98          1           0        2.422210   -3.580028    1.454786
     99          1           0        0.603654   -5.583084   -2.175026
    100          1           0       -0.680646   -4.400146   -1.584153
    101          1           0       -0.346234   -6.030365   -0.926982
    102          1           0       -4.884364   -2.003476    1.410685
    103          1           0       -3.690972   -3.021976    0.592615
    104          1           0       -4.787961   -1.248787   -1.398956
    105          1           0       -6.569174   -4.732176   -0.665606
    106          1           0       -7.795772   -3.726629    0.089866
    107          1           0       -6.130460   -4.131322    0.754277
    108          1           0       -6.983086   -3.246939   -2.721686
    109          1           0       -6.233810   -1.737620   -2.894003
    110          1           0       -8.543456   -1.487246   -1.044904
    111          1           0       -9.056716   -2.215584   -2.486501
    112          1           0       -7.604900   -0.192118   -3.555724
    113          1           0       -7.703128    0.471752   -1.954224
    114          1           0      -10.378706   -0.672935   -2.969200
    115          1           0      -10.497337   -0.083016   -4.941392
    116          1           0       -9.121564    0.858592   -5.035922
    117          1           0      -10.684160    1.592250   -4.516510
    118          1           0      -10.728201    1.926021   -2.432244
    119          1           0       -9.393675    1.581429   -1.334339
    120          1           0      -10.859453    0.762265    0.082910
    121          1           0      -11.149779   -0.665914   -0.937959
    122          1           0      -12.925373    1.067363   -2.039755
    123          1           0      -12.549567    2.007826   -0.578718
    124          1           0      -12.965262   -0.771729    0.183290
    125          1           0      -14.961913   -1.415665   -0.597544
    126          1           0      -14.412155   -0.524815   -1.993951
    127          1           0      -15.501613    0.330335   -0.818212
    128          1           0      -14.827438    0.213117    1.578535
    129          1           0      -14.368640    1.771590    0.754941
    130          1           0      -12.051692    0.385946    1.895006
    131          1           0      -13.415845    0.349174    2.993546
    132          1           0      -13.162209    3.034676    1.711853
    133          1           0      -11.571809    2.524919    2.195899
    134          1           0      -13.172052    1.884765    4.583009
    135          1           0      -14.731267    3.882312    3.128930
    136          1           0      -14.128647    4.484484    4.714155
    137          1           0      -15.068804    3.004955    4.593935
    138          1           0      -11.744334    4.484018    4.184705
    139          1           0      -10.862965    2.942322    4.121882
    140          1           0      -11.665157    3.292055    5.602810
 ---------------------------------------------------------------------

 SCF Done:  E(RCAM-B3LYP) =  -3007.15369375     A.U. after   19 cycles

 Excitation energies and oscillator strengths:

 Excited State   1:      Singlet-A      1.6337 eV  758.93 nm  f=0.3761  <S**2>=0.000
     245 -> 248        0.17618
     246 -> 247        0.68731
     245 <- 248        0.11032
 This state for optimization and/or second-order correction.
 Total Energy, E(TD-HF/TD-DFT) =  -3007.09365782
 Copying the excited state density for this state as the 1-particle RhoCI density.

 Excited State   2:      Singlet-A      2.2353 eV  554.67 nm  f=0.0853  <S**2>=0.000
     245 -> 247        0.61835
     246 -> 248       -0.32502

 Excited State   3:      Singlet-A      3.0208 eV  410.44 nm  f=0.0016  <S**2>=0.000
     244 -> 247        0.68451
     246 -> 248        0.11409

 Excited State   4:      Singlet-A      3.3097 eV  374.60 nm  f=0.0247  <S**2>=0.000
     243 -> 247        0.59781
     243 -> 249        0.22797
     243 -> 250       -0.19136
     246 -> 248        0.11112

 Excited State   5:      Singlet-A      3.4639 eV  357.93 nm  f=0.7886  <S**2>=0.000
     243 -> 247       -0.12063
     245 -> 247        0.32352
     246 -> 248        0.60062
     245 <- 247       -0.11292

 The electronic state is 1-A.
 Alpha  occ. eigenvalues --  -46.86188 -19.26854 -19.23473 -19.20762 -19.19487
 Alpha  occ. eigenvalues --  -19.18366 -19.18354 -14.42463 -14.41802 -14.40006
 Alpha  occ. eigenvalues --  -14.37269 -10.40661 -10.37773 -10.35959 -10.34346
 Alpha  occ. eigenvalues --  -10.31983 -10.31829 -10.31187 -10.30920 -10.30728
 Alpha  occ. eigenvalues --  -10.30540 -10.30264 -10.29662 -10.28974 -10.28739
 Alpha  occ. eigenvalues --  -10.28202 -10.27828 -10.27764 -10.27762 -10.27693
 Alpha  occ. eigenvalues --  -10.27664 -10.27473 -10.27443 -10.27417 -10.27334
 Alpha  occ. eigenvalues --  -10.27207 -10.27174 -10.27070 -10.27025 -10.26407
 Alpha  occ. eigenvalues --  -10.26305 -10.26243 -10.26082 -10.26012 -10.25975
 Alpha  occ. eigenvalues --  -10.25910 -10.25699 -10.25630 -10.25613 -10.25571
 Alpha  occ. eigenvalues --  -10.25363 -10.25299 -10.25291 -10.25239 -10.25046
 Alpha  occ. eigenvalues --  -10.24790 -10.24653 -10.24526 -10.24454 -10.24326
 Alpha  occ. eigenvalues --  -10.24286 -10.24238 -10.24156 -10.23899 -10.23876
 Alpha  occ. eigenvalues --  -10.23856  -3.15170  -1.90056  -1.89611  -1.89525
 Alpha  occ. eigenvalues --   -1.18149  -1.14368  -1.10797  -1.08581  -1.08408
 Alpha  occ. eigenvalues --   -1.06479  -1.03432  -1.02405  -1.02274  -1.01261
 Alpha  occ. eigenvalues --   -0.92251  -0.90917  -0.90352  -0.89443  -0.88864
 Alpha  occ. eigenvalues --   -0.88439  -0.87703  -0.87241  -0.87184  -0.86777
 Alpha  occ. eigenvalues --   -0.85930  -0.85489  -0.84247  -0.83299  -0.83157
 Alpha  occ. eigenvalues --   -0.82169  -0.81694  -0.81340  -0.80648  -0.80244
 Alpha  occ. eigenvalues --   -0.79956  -0.78304  -0.78181  -0.76897  -0.76482
 Alpha  occ. eigenvalues --   -0.75600  -0.75303  -0.74885  -0.74717  -0.73907
 Alpha  occ. eigenvalues --   -0.73649  -0.72380  -0.71594  -0.70766  -0.68603
 Alpha  occ. eigenvalues --   -0.68087  -0.67736  -0.66559  -0.66516  -0.65389
 Alpha  occ. eigenvalues --   -0.65341  -0.64800  -0.64637  -0.64288  -0.63846
 Alpha  occ. eigenvalues --   -0.63664  -0.63334  -0.62656  -0.60830  -0.60418
 Alpha  occ. eigenvalues --   -0.60081  -0.59931  -0.58760  -0.58036  -0.57728
 Alpha  occ. eigenvalues --   -0.57356  -0.57175  -0.56303  -0.55908  -0.55560
 Alpha  occ. eigenvalues --   -0.55086  -0.54869  -0.54751  -0.54047  -0.53867
 Alpha  occ. eigenvalues --   -0.53702  -0.53217  -0.52807  -0.52551  -0.52446
 Alpha  occ. eigenvalues --   -0.52222  -0.52140  -0.51863  -0.51751  -0.51558
 Alpha  occ. eigenvalues --   -0.51417  -0.51041  -0.50778  -0.50739  -0.50346
 Alpha  occ. eigenvalues --   -0.50118  -0.50064  -0.49877  -0.49757  -0.49700
 Alpha  occ. eigenvalues --   -0.49178  -0.48879  -0.48767  -0.48653  -0.48457
 Alpha  occ. eigenvalues --   -0.48364  -0.48038  -0.47921  -0.47622  -0.47440
 Alpha  occ. eigenvalues --   -0.47205  -0.47019  -0.46829  -0.46693  -0.46387
 Alpha  occ. eigenvalues --   -0.46241  -0.46042  -0.45928  -0.45715  -0.45647
 Alpha  occ. eigenvalues --   -0.45404  -0.45207  -0.45142  -0.44930  -0.44593
 Alpha  occ. eigenvalues --   -0.44389  -0.44310  -0.44219  -0.43956  -0.43793
 Alpha  occ. eigenvalues --   -0.43760  -0.43517  -0.43224  -0.43089  -0.42873
 Alpha  occ. eigenvalues --   -0.42839  -0.42671  -0.42447  -0.42399  -0.42211
 Alpha  occ. eigenvalues --   -0.41932  -0.41684  -0.41414  -0.41290  -0.41225
 Alpha  occ. eigenvalues --   -0.41162  -0.40686  -0.40241  -0.40157  -0.39972
 Alpha  occ. eigenvalues --   -0.39874  -0.39324  -0.39222  -0.39054  -0.38985
 Alpha  occ. eigenvalues --   -0.38699  -0.38513  -0.38318  -0.38126  -0.37974
 Alpha  occ. eigenvalues --   -0.37411  -0.37052  -0.36553  -0.36504  -0.36119
 Alpha  occ. eigenvalues --   -0.35493  -0.35192  -0.34559  -0.34146  -0.33418
 Alpha  occ. eigenvalues --   -0.33135  -0.33051  -0.32981  -0.31573  -0.31182
 Alpha  occ. eigenvalues --   -0.30341  -0.29658  -0.29588  -0.28251  -0.24137
 Alpha  occ. eigenvalues --   -0.20649
 Alpha virt. eigenvalues --   -0.08555  -0.01754   0.00553   0.02831   0.03797
 Alpha virt. eigenvalues --    0.04220   0.05604   0.05894   0.06445   0.07056
 Alpha virt. eigenvalues --    0.08172   0.08926   0.09015   0.09143   0.09441

 Mulliken charges:
               1
     1  Mg   0.856626
     2  C    0.019810
     3  C   -0.100051
     4  C   -0.065038
     5  C   -0.132646
     6  N   -0.352995
     7  C   -0.031409
     8  C    0.026840
     9  C   -0.095963
    10  C    0.108109
    11  C    0.059869
    12  C    0.096868
    13  C    0.003240
    14  C    0.176907
    15  O   -0.236369
    16  O   -0.296264
    17  N   -0.464528
    18  C    0.172442
    19  C   -0.149519
    20  C   -0.049983
    21  C    0.112958
    22  C    0.101147
    23  C    0.028512
    24  O   -0.190328
    25  C    0.032461
    26  N   -0.286473
    27  C    0.091512
    28  C   -0.056842
    29  C    0.038627
    30  C    0.045324
    31  C    0.041407
    32  C    0.018310
    33  C   -0.019275
    34  N   -0.323696
    35  C    0.184323
    36  C   -0.190597
    37  C    0.036629
    38  C    0.083915
    39  C    0.151025
    40  C   -0.019117
    41  O   -0.177678
    42  C   -0.032764
    43  C    0.230862
    44  O   -0.220270
    45  O   -0.336512
    46  C    0.187579
    47  C    0.263480
    48  C   -0.117422
    49  C   -0.178208
    50  C    0.089297
    51  C    0.083399
    52  C   -0.017618
    53  C    0.066978
    54  C   -0.139353
    55  C    0.041007
    56  C    0.094763
    57  C   -0.038281
    58  C    0.059337
    59  C   -0.142338
    60  C    0.092134
    61  C    0.031715
    62  C    0.003571
    63  C    0.033942
    64  C   -0.147864
    65  C    0.058990
    66  C    0.028267
    67  H   -0.020057
    68  H   -0.000277
    69  H   -0.035346
    70  H    0.020236
    71  H    0.002076
    72  H    0.023427
    73  H    0.025549
    74  H    0.007568
    75  H    0.002454
    76  H    0.024629
    77  H    0.046167
    78  H    0.028348
    79  H    0.038101
    80  H    0.016847
    81  H    0.017762
    82  H    0.048042
    83  H    0.019568
    84  H    0.038320
    85  H    0.019371
    86  H    0.010028
    87  H    0.020726
    88  H    0.012596
    89  H    0.017223
    90  H    0.013832
    91  H   -0.002960
    92  H    0.005009
    93  H    0.009636
    94  H    0.024789
    95  H    0.016543
    96  H    0.046785
    97  H    0.025695
    98  H    0.047803
    99  H    0.028694
   100  H    0.052655
   101  H    0.014254
   102  H    0.031574
   103  H    0.038415
   104  H   -0.008936
   105  H    0.016866
   106  H    0.025965
   107  H    0.003794
   108  H   -0.007519
   109  H   -0.003310
   110  H   -0.001011
   111  H   -0.000808
   112  H   -0.007058
   113  H    0.009384
   114  H    0.004030
   115  H   -0.007080
   116  H    0.001390
   117  H    0.012652
   118  H   -0.017668
   119  H   -0.012710
   120  H   -0.004486
   121  H    0.012765
   122  H   -0.007148
   123  H   -0.005206
   124  H   -0.013019
   125  H    0.003445
   126  H   -0.006193
   127  H    0.009843
   128  H   -0.012795
   129  H   -0.003060
   130  H   -0.002044
   131  H   -0.003069
   132  H    0.002369
   133  H   -0.002518
   134  H    0.004915
   135  H    0.006635
   136  H    0.008853
   137  H    0.004368
   138  H    0.013295
   139  H    0.001961
   140  H    0.004246
 Sum of Mulliken charges =  -0.00000

 Dipole moment (field-independent basis, Debye):
    X=             -3.7955    Y=              4.0904    Z=              1.6791  Tot=              5.8272
 Quadrupole moment (field-independent basis, Debye-Ang):
   XX=           -379.5738   YY=           -415.5004   ZZ=           -403.2668
   XY=              9.5147   XZ=             11.9216   YZ=             -3.5418

 Normal termination of Gaussian 16 at Thu Apr 28 20:02:50 2022.
