 Gaussian 16, Revision A.03,
 Gaussian 16:  ES64L-G16RevA.03 25-Dec-2016

 ---------------------------------
 #p PBE1PBE/Def2SVP td=(nstates=5)
 ---------------------------------

 -----------------------------------------------------
 step_1701_chromophore_7 TDDFT with PBE1PBE functional
 -----------------------------------------------------
 Symbolic Z-matrix:
 Charge =  0 Multiplicity = 1

                         Standard orientation:
 ---------------------------------------------------------------------
 Center     Atomic      Atomic             Coordinates (Angstroms)
 Number     Number       Type             X           Y           Z
 ---------------------------------------------------------------------
      1         12           0        5.938053    0.633262    0.128690
      2          6           0        3.500223   -2.018272    0.332402
      3          6           0        3.578717    2.873331   -0.590219
      4          6           0        8.451352    2.883599   -0.039550
      5          6           0        8.322570   -1.960756    0.796198
      6          7           0        3.889654    0.415488   -0.063333
      7          6           0        2.994325   -0.685922    0.121500
      8          6           0        1.562448   -0.221792   -0.014006
      9          6           0        1.678828    1.221143   -0.494441
     10          6           0        3.145763    1.535984   -0.393710
     11          6           0        1.122246    1.623085   -1.865740
     12          6           0        0.619384   -0.559135    1.178036
     13          6           0       -0.934787   -0.267994    0.812454
     14          6           0       -1.917908   -1.431713    0.529116
     15          8           0       -1.559365   -2.508563    0.030329
     16          8           0       -3.193662   -1.021715    0.755373
     17          7           0        6.057396    2.475358   -0.405062
     18          6           0        4.937304    3.320026   -0.652942
     19          6           0        5.368169    4.698495   -0.888866
     20          6           0        6.777409    4.739736   -0.705293
     21          6           0        7.135601    3.328284   -0.385004
     22          6           0        4.364051    5.870993   -1.050887
     23          6           0        7.767535    5.883978   -1.054823
     24          8           0        8.959383    5.831067   -0.809596
     25          6           0        7.257861    7.141684   -1.722267
     26          7           0        8.049760    0.419770    0.330709
     27          6           0        8.837838    1.560738    0.231088
     28          6           0       10.329473    1.258866    0.733122
     29          6           0       10.227596   -0.275041    1.028164
     30          6           0        8.769654   -0.657089    0.699308
     31          6           0       11.512437    1.525034   -0.238010
     32          6           0       10.512756   -0.780536    2.464167
     33          6           0       11.485207   -1.972709    2.629789
     34          7           0        5.951702   -1.523848    0.395389
     35          6           0        7.069164   -2.359824    0.554621
     36          6           0        6.680955   -3.698449    0.450382
     37          6           0        5.260926   -3.598125    0.459173
     38          6           0        4.856419   -2.300123    0.432638
     39          6           0        7.612812   -4.894899    0.368991
     40          6           0        4.071896   -4.402325    0.580766
     41          8           0        4.036291   -5.621047    0.768486
     42          6           0        2.819065   -3.367430    0.462122
     43          6           0        1.963226   -3.774364   -0.638684
     44          8           0        2.149892   -3.383977   -1.772105
     45          8           0        0.973266   -4.655398   -0.234643
     46          6           0        0.098225   -5.119497   -1.328211
     47          6           0       -4.171640   -2.043339    0.586651
     48          6           0       -5.014190   -2.026342   -0.669818
     49          6           0       -6.170691   -2.668899   -0.904528
     50          6           0       -6.726858   -3.812757   -0.100711
     51          6           0       -6.886997   -2.286663   -2.215263
     52          6           0       -8.263846   -1.578286   -2.094340
     53          6           0       -8.243435   -0.143092   -2.673466
     54          6           0       -9.720955    0.196190   -2.963630
     55          6           0      -10.010960    0.739839   -4.417034
     56          6           0      -10.228417    1.133490   -1.874783
     57          6           0      -11.199649    0.421591   -0.895146
     58          6           0      -12.628834    1.002784   -0.992994
     59          6           0      -13.549002    0.078900   -0.169973
     60          6           0      -14.717470   -0.415235   -0.952911
     61          6           0      -14.043633    0.782021    1.077826
     62          6           0      -12.974807    0.900567    2.163179
     63          6           0      -12.630363    2.417973    2.435914
     64          6           0      -13.027056    2.755462    3.944163
     65          6           0      -14.308963    3.605380    4.094703
     66          6           0      -11.739121    3.448983    4.526236
     67          1           0        2.798781    3.636738   -0.625665
     68          1           0        9.205325    3.668547    0.053436
     69          1           0        9.021202   -2.764642    1.037051
     70          1           0        1.168671   -0.725356   -0.897090
     71          1           0        1.014360    1.740014    0.197547
     72          1           0        0.475695    0.888520   -2.344325
     73          1           0        1.954825    1.842318   -2.535201
     74          1           0        0.560468    2.555377   -1.810750
     75          1           0        0.744946    0.080097    2.052419
     76          1           0        0.848512   -1.570204    1.515815
     77          1           0       -1.018435    0.482789    0.026410
     78          1           0       -1.321753    0.137387    1.747612
     79          1           0        4.264176    6.381977   -0.093927
     80          1           0        3.361021    5.562264   -1.342870
     81          1           0        4.748092    6.571253   -1.793448
     82          1           0        6.812362    6.931531   -2.694633
     83          1           0        8.054591    7.861010   -1.911427
     84          1           0        6.587774    7.710262   -1.076610
     85          1           0       10.513769    1.983227    1.526448
     86          1           0       10.902626   -0.808176    0.358333
     87          1           0       11.175427    1.456348   -1.272789
     88          1           0       12.356717    0.838969   -0.177443
     89          1           0       11.952870    2.493318   -0.000563
     90          1           0        9.635999   -1.020321    3.066041
     91          1           0       10.962895   -0.027355    3.110825
     92          1           0       12.042067   -1.734518    3.536432
     93          1           0       12.315737   -2.094219    1.935464
     94          1           0       10.976662   -2.932771    2.718265
     95          1           0        8.608431   -4.619707    0.022497
     96          1           0        7.080593   -5.641256   -0.220202
     97          1           0        7.766249   -5.258750    1.384541
     98          1           0        2.422210   -3.580028    1.454786
     99          1           0        0.603654   -5.583084   -2.175026
    100          1           0       -0.680646   -4.400146   -1.584153
    101          1           0       -0.346234   -6.030365   -0.926982
    102          1           0       -4.884364   -2.003476    1.410685
    103          1           0       -3.690972   -3.021976    0.592615
    104          1           0       -4.787961   -1.248787   -1.398956
    105          1           0       -6.569174   -4.732176   -0.665606
    106          1           0       -7.795772   -3.726629    0.089866
    107          1           0       -6.130460   -4.131322    0.754277
    108          1           0       -6.983086   -3.246939   -2.721686
    109          1           0       -6.233810   -1.737620   -2.894003
    110          1           0       -8.543456   -1.487246   -1.044904
    111          1           0       -9.056716   -2.215584   -2.486501
    112          1           0       -7.604900   -0.192118   -3.555724
    113          1           0       -7.703128    0.471752   -1.954224
    114          1           0      -10.378706   -0.672935   -2.969200
    115          1           0      -10.497337   -0.083016   -4.941392
    116          1           0       -9.121564    0.858592   -5.035922
    117          1           0      -10.684160    1.592250   -4.516510
    118          1           0      -10.728201    1.926021   -2.432244
    119          1           0       -9.393675    1.581429   -1.334339
    120          1           0      -10.859453    0.762265    0.082910
    121          1           0      -11.149779   -0.665914   -0.937959
    122          1           0      -12.925373    1.067363   -2.039755
    123          1           0      -12.549567    2.007826   -0.578718
    124          1           0      -12.965262   -0.771729    0.183290
    125          1           0      -14.961913   -1.415665   -0.597544
    126          1           0      -14.412155   -0.524815   -1.993951
    127          1           0      -15.501613    0.330335   -0.818212
    128          1           0      -14.827438    0.213117    1.578535
    129          1           0      -14.368640    1.771590    0.754941
    130          1           0      -12.051692    0.385946    1.895006
    131          1           0      -13.415845    0.349174    2.993546
    132          1           0      -13.162209    3.034676    1.711853
    133          1           0      -11.571809    2.524919    2.195899
    134          1           0      -13.172052    1.884765    4.583009
    135          1           0      -14.731267    3.882312    3.128930
    136          1           0      -14.128647    4.484484    4.714155
    137          1           0      -15.068804    3.004955    4.593935
    138          1           0      -11.744334    4.484018    4.184705
    139          1           0      -10.862965    2.942322    4.121882
    140          1           0      -11.665157    3.292055    5.602810
 ---------------------------------------------------------------------

 SCF Done:  E(RPBE1PBE) =  -3005.34196294     A.U. after   16 cycles

 Excitation energies and oscillator strengths:

 Excited State   1:      Singlet-A      1.7980 eV  689.56 nm  f=0.3637  <S**2>=0.000
     245 -> 248        0.16889
     246 -> 247        0.69542
     246 <- 247       -0.11622
 This state for optimization and/or second-order correction.
 Total Energy, E(TD-HF/TD-DFT) =  -3005.27588692
 Copying the excited state density for this state as the 1-particle RhoCI density.

 Excited State   2:      Singlet-A      2.2381 eV  553.98 nm  f=0.0850  <S**2>=0.000
     244 -> 247        0.11720
     245 -> 247        0.62947
     246 -> 248       -0.29230

 Excited State   3:      Singlet-A      2.7267 eV  454.71 nm  f=0.0083  <S**2>=0.000
     244 -> 247        0.68937
     246 -> 248        0.10595

 Excited State   4:      Singlet-A      2.7956 eV  443.50 nm  f=0.0010  <S**2>=0.000
     243 -> 247        0.68212
     243 -> 249        0.12851

 Excited State   5:      Singlet-A      3.2601 eV  380.30 nm  f=0.2902  <S**2>=0.000
     239 -> 247        0.12849
     240 -> 247       -0.36022
     240 -> 249        0.10413
     241 -> 247        0.13595
     245 -> 247        0.21312
     246 -> 248        0.48348
     246 -> 249       -0.14919

 The electronic state is 1-A.
 Alpha  occ. eigenvalues --  -46.89628 -19.27531 -19.24087 -19.21027 -19.19668
 Alpha  occ. eigenvalues --  -19.18628 -19.18533 -14.42055 -14.41313 -14.39686
 Alpha  occ. eigenvalues --  -14.36992 -10.37680 -10.34689 -10.33081 -10.31523
 Alpha  occ. eigenvalues --  -10.29618 -10.29374 -10.28930 -10.28709 -10.28449
 Alpha  occ. eigenvalues --  -10.28278 -10.28011 -10.26877 -10.26668 -10.26269
 Alpha  occ. eigenvalues --  -10.25830 -10.25651 -10.25500 -10.25485 -10.25378
 Alpha  occ. eigenvalues --  -10.25372 -10.25274 -10.25121 -10.25119 -10.25044
 Alpha  occ. eigenvalues --  -10.24831 -10.24815 -10.24716 -10.24707 -10.23895
 Alpha  occ. eigenvalues --  -10.23778 -10.23741 -10.23673 -10.23579 -10.23458
 Alpha  occ. eigenvalues --  -10.23402 -10.23318 -10.23260 -10.23185 -10.23155
 Alpha  occ. eigenvalues --  -10.22921 -10.22827 -10.22788 -10.22744 -10.22662
 Alpha  occ. eigenvalues --  -10.22358 -10.22211 -10.21997 -10.21895 -10.21892
 Alpha  occ. eigenvalues --  -10.21806 -10.21738 -10.21683 -10.21612 -10.21416
 Alpha  occ. eigenvalues --  -10.21264  -3.12177  -1.85007  -1.84539  -1.84459
 Alpha  occ. eigenvalues --   -1.12983  -1.09071  -1.05514  -1.03411  -1.03171
 Alpha  occ. eigenvalues --   -1.01267  -0.98067  -0.97034  -0.96887  -0.95913
 Alpha  occ. eigenvalues --   -0.86613  -0.85014  -0.84476  -0.83688  -0.83014
 Alpha  occ. eigenvalues --   -0.82741  -0.82006  -0.81564  -0.81292  -0.81048
 Alpha  occ. eigenvalues --   -0.80261  -0.79750  -0.78436  -0.77588  -0.77420
 Alpha  occ. eigenvalues --   -0.76381  -0.75883  -0.75507  -0.74866  -0.74474
 Alpha  occ. eigenvalues --   -0.74278  -0.72584  -0.72446  -0.71212  -0.70669
 Alpha  occ. eigenvalues --   -0.69682  -0.69620  -0.69112  -0.69002  -0.68184
 Alpha  occ. eigenvalues --   -0.67841  -0.66843  -0.65992  -0.65127  -0.62947
 Alpha  occ. eigenvalues --   -0.62452  -0.62031  -0.61057  -0.60776  -0.59809
 Alpha  occ. eigenvalues --   -0.59567  -0.59347  -0.59050  -0.58513  -0.58308
 Alpha  occ. eigenvalues --   -0.58177  -0.57510  -0.56846  -0.55383  -0.54801
 Alpha  occ. eigenvalues --   -0.54571  -0.54515  -0.53340  -0.52587  -0.52223
 Alpha  occ. eigenvalues --   -0.51898  -0.51731  -0.50850  -0.50484  -0.50129
 Alpha  occ. eigenvalues --   -0.49591  -0.49269  -0.49197  -0.48610  -0.48336
 Alpha  occ. eigenvalues --   -0.48217  -0.47699  -0.47365  -0.47092  -0.46914
 Alpha  occ. eigenvalues --   -0.46788  -0.46572  -0.46351  -0.46274  -0.46050
 Alpha  occ. eigenvalues --   -0.45997  -0.45555  -0.45349  -0.45293  -0.44910
 Alpha  occ. eigenvalues --   -0.44644  -0.44616  -0.44461  -0.44328  -0.44301
 Alpha  occ. eigenvalues --   -0.43831  -0.43496  -0.43438  -0.43238  -0.43049
 Alpha  occ. eigenvalues --   -0.42967  -0.42668  -0.42506  -0.42271  -0.42097
 Alpha  occ. eigenvalues --   -0.41851  -0.41620  -0.41502  -0.41379  -0.41174
 Alpha  occ. eigenvalues --   -0.40975  -0.40716  -0.40655  -0.40364  -0.40266
 Alpha  occ. eigenvalues --   -0.40127  -0.39934  -0.39863  -0.39618  -0.39313
 Alpha  occ. eigenvalues --   -0.39160  -0.39091  -0.38970  -0.38718  -0.38567
 Alpha  occ. eigenvalues --   -0.38463  -0.38345  -0.37977  -0.37813  -0.37608
 Alpha  occ. eigenvalues --   -0.37605  -0.37451  -0.37252  -0.37122  -0.36956
 Alpha  occ. eigenvalues --   -0.36793  -0.36585  -0.36328  -0.36151  -0.36074
 Alpha  occ. eigenvalues --   -0.35917  -0.35604  -0.35104  -0.34915  -0.34781
 Alpha  occ. eigenvalues --   -0.34700  -0.34165  -0.34086  -0.33949  -0.33836
 Alpha  occ. eigenvalues --   -0.33478  -0.33313  -0.33248  -0.33008  -0.32904
 Alpha  occ. eigenvalues --   -0.32189  -0.31924  -0.31645  -0.31348  -0.31175
 Alpha  occ. eigenvalues --   -0.30363  -0.30120  -0.29359  -0.29101  -0.28824
 Alpha  occ. eigenvalues --   -0.28455  -0.28012  -0.27770  -0.26859  -0.26290
 Alpha  occ. eigenvalues --   -0.25956  -0.24936  -0.24594  -0.23933  -0.21037
 Alpha  occ. eigenvalues --   -0.18341
 Alpha virt. eigenvalues --   -0.11018  -0.05255  -0.03676  -0.01608  -0.00467
 Alpha virt. eigenvalues --    0.00644   0.01529   0.01701   0.01997   0.03330
 Alpha virt. eigenvalues --    0.04375   0.05078   0.05568   0.05622   0.06143

 Mulliken charges:
               1
     1  Mg   1.018458
     2  C    0.013294
     3  C   -0.084763
     4  C   -0.054125
     5  C   -0.111364
     6  N   -0.460339
     7  C    0.039724
     8  C   -0.031302
     9  C   -0.169040
    10  C    0.131801
    11  C    0.001512
    12  C    0.041180
    13  C   -0.075688
    14  C    0.242308
    15  O   -0.267785
    16  O   -0.329539
    17  N   -0.581687
    18  C    0.185680
    19  C   -0.171905
    20  C   -0.084838
    21  C    0.137277
    22  C    0.042005
    23  C    0.072565
    24  O   -0.227333
    25  C   -0.041010
    26  N   -0.396300
    27  C    0.121212
    28  C   -0.127023
    29  C   -0.039500
    30  C    0.081121
    31  C   -0.015958
    32  C   -0.041317
    33  C   -0.088480
    34  N   -0.449729
    35  C    0.192011
    36  C   -0.194564
    37  C   -0.016955
    38  C    0.125664
    39  C    0.092436
    40  C    0.078752
    41  O   -0.222561
    42  C   -0.142046
    43  C    0.323730
    44  O   -0.255373
    45  O   -0.370457
    46  C    0.131321
    47  C    0.223372
    48  C   -0.126935
    49  C   -0.224982
    50  C    0.030179
    51  C    0.021597
    52  C   -0.077254
    53  C    0.011252
    54  C   -0.228728
    55  C   -0.015054
    56  C    0.047678
    57  C   -0.111291
    58  C    0.010720
    59  C   -0.232057
    60  C    0.029590
    61  C   -0.025484
    62  C   -0.052545
    63  C   -0.022601
    64  C   -0.234904
    65  C    0.000598
    66  C   -0.037586
    67  H    0.011433
    68  H    0.030774
    69  H   -0.001447
    70  H    0.061945
    71  H    0.040641
    72  H    0.049865
    73  H    0.054629
    74  H    0.034650
    75  H    0.035341
    76  H    0.060095
    77  H    0.077707
    78  H    0.060047
    79  H    0.066012
    80  H    0.043184
    81  H    0.045339
    82  H    0.073905
    83  H    0.047841
    84  H    0.064483
    85  H    0.054955
    86  H    0.047505
    87  H    0.048817
    88  H    0.040143
    89  H    0.044131
    90  H    0.046957
    91  H    0.030552
    92  H    0.033204
    93  H    0.036723
    94  H    0.051009
    95  H    0.042779
    96  H    0.074422
    97  H    0.054696
    98  H    0.083692
    99  H    0.050677
   100  H    0.075649
   101  H    0.036540
   102  H    0.058782
   103  H    0.065140
   104  H    0.021095
   105  H    0.044652
   106  H    0.052448
   107  H    0.030187
   108  H    0.026536
   109  H    0.026772
   110  H    0.033868
   111  H    0.030522
   112  H    0.025673
   113  H    0.041199
   114  H    0.041526
   115  H    0.020820
   116  H    0.028570
   117  H    0.038371
   118  H    0.014678
   119  H    0.019405
   120  H    0.032651
   121  H    0.042445
   122  H    0.025347
   123  H    0.029088
   124  H    0.025603
   125  H    0.032099
   126  H    0.022338
   127  H    0.037392
   128  H    0.020642
   129  H    0.029744
   130  H    0.029686
   131  H    0.028893
   132  H    0.032247
   133  H    0.028872
   134  H    0.041480
   135  H    0.033428
   136  H    0.035777
   137  H    0.031938
   138  H    0.041329
   139  H    0.030800
   140  H    0.032427
 Sum of Mulliken charges =  -0.00000

 Dipole moment (field-independent basis, Debye):
    X=             -3.7440    Y=              4.0302    Z=              1.7301  Tot=              5.7666
 Quadrupole moment (field-independent basis, Debye-Ang):
   XX=           -373.4577   YY=           -412.6226   ZZ=           -400.7384
   XY=              8.7690   XZ=             12.9362   YZ=             -3.6815

 Normal termination of Gaussian 16 at Thu Apr 28 20:28:12 2022.
