 Gaussian 16, Revision A.03,
 Gaussian 16:  ES64L-G16RevA.03 25-Dec-2016

 --------------------------------
 #p wB97XD/Def2SVP td=(nstates=5)
 --------------------------------

 ----------------------------------------------------
 step_1701_chromophore_7 TDDFT with wB97XD functional
 ----------------------------------------------------
 Symbolic Z-matrix:
 Charge =  0 Multiplicity = 1

                         Standard orientation:
 ---------------------------------------------------------------------
 Center     Atomic      Atomic             Coordinates (Angstroms)
 Number     Number       Type             X           Y           Z
 ---------------------------------------------------------------------
      1         12           0        5.938053    0.633262    0.128690
      2          6           0        3.500223   -2.018272    0.332402
      3          6           0        3.578717    2.873331   -0.590219
      4          6           0        8.451352    2.883599   -0.039550
      5          6           0        8.322570   -1.960756    0.796198
      6          7           0        3.889654    0.415488   -0.063333
      7          6           0        2.994325   -0.685922    0.121500
      8          6           0        1.562448   -0.221792   -0.014006
      9          6           0        1.678828    1.221143   -0.494441
     10          6           0        3.145763    1.535984   -0.393710
     11          6           0        1.122246    1.623085   -1.865740
     12          6           0        0.619384   -0.559135    1.178036
     13          6           0       -0.934787   -0.267994    0.812454
     14          6           0       -1.917908   -1.431713    0.529116
     15          8           0       -1.559365   -2.508563    0.030329
     16          8           0       -3.193662   -1.021715    0.755373
     17          7           0        6.057396    2.475358   -0.405062
     18          6           0        4.937304    3.320026   -0.652942
     19          6           0        5.368169    4.698495   -0.888866
     20          6           0        6.777409    4.739736   -0.705293
     21          6           0        7.135601    3.328284   -0.385004
     22          6           0        4.364051    5.870993   -1.050887
     23          6           0        7.767535    5.883978   -1.054823
     24          8           0        8.959383    5.831067   -0.809596
     25          6           0        7.257861    7.141684   -1.722267
     26          7           0        8.049760    0.419770    0.330709
     27          6           0        8.837838    1.560738    0.231088
     28          6           0       10.329473    1.258866    0.733122
     29          6           0       10.227596   -0.275041    1.028164
     30          6           0        8.769654   -0.657089    0.699308
     31          6           0       11.512437    1.525034   -0.238010
     32          6           0       10.512756   -0.780536    2.464167
     33          6           0       11.485207   -1.972709    2.629789
     34          7           0        5.951702   -1.523848    0.395389
     35          6           0        7.069164   -2.359824    0.554621
     36          6           0        6.680955   -3.698449    0.450382
     37          6           0        5.260926   -3.598125    0.459173
     38          6           0        4.856419   -2.300123    0.432638
     39          6           0        7.612812   -4.894899    0.368991
     40          6           0        4.071896   -4.402325    0.580766
     41          8           0        4.036291   -5.621047    0.768486
     42          6           0        2.819065   -3.367430    0.462122
     43          6           0        1.963226   -3.774364   -0.638684
     44          8           0        2.149892   -3.383977   -1.772105
     45          8           0        0.973266   -4.655398   -0.234643
     46          6           0        0.098225   -5.119497   -1.328211
     47          6           0       -4.171640   -2.043339    0.586651
     48          6           0       -5.014190   -2.026342   -0.669818
     49          6           0       -6.170691   -2.668899   -0.904528
     50          6           0       -6.726858   -3.812757   -0.100711
     51          6           0       -6.886997   -2.286663   -2.215263
     52          6           0       -8.263846   -1.578286   -2.094340
     53          6           0       -8.243435   -0.143092   -2.673466
     54          6           0       -9.720955    0.196190   -2.963630
     55          6           0      -10.010960    0.739839   -4.417034
     56          6           0      -10.228417    1.133490   -1.874783
     57          6           0      -11.199649    0.421591   -0.895146
     58          6           0      -12.628834    1.002784   -0.992994
     59          6           0      -13.549002    0.078900   -0.169973
     60          6           0      -14.717470   -0.415235   -0.952911
     61          6           0      -14.043633    0.782021    1.077826
     62          6           0      -12.974807    0.900567    2.163179
     63          6           0      -12.630363    2.417973    2.435914
     64          6           0      -13.027056    2.755462    3.944163
     65          6           0      -14.308963    3.605380    4.094703
     66          6           0      -11.739121    3.448983    4.526236
     67          1           0        2.798781    3.636738   -0.625665
     68          1           0        9.205325    3.668547    0.053436
     69          1           0        9.021202   -2.764642    1.037051
     70          1           0        1.168671   -0.725356   -0.897090
     71          1           0        1.014360    1.740014    0.197547
     72          1           0        0.475695    0.888520   -2.344325
     73          1           0        1.954825    1.842318   -2.535201
     74          1           0        0.560468    2.555377   -1.810750
     75          1           0        0.744946    0.080097    2.052419
     76          1           0        0.848512   -1.570204    1.515815
     77          1           0       -1.018435    0.482789    0.026410
     78          1           0       -1.321753    0.137387    1.747612
     79          1           0        4.264176    6.381977   -0.093927
     80          1           0        3.361021    5.562264   -1.342870
     81          1           0        4.748092    6.571253   -1.793448
     82          1           0        6.812362    6.931531   -2.694633
     83          1           0        8.054591    7.861010   -1.911427
     84          1           0        6.587774    7.710262   -1.076610
     85          1           0       10.513769    1.983227    1.526448
     86          1           0       10.902626   -0.808176    0.358333
     87          1           0       11.175427    1.456348   -1.272789
     88          1           0       12.356717    0.838969   -0.177443
     89          1           0       11.952870    2.493318   -0.000563
     90          1           0        9.635999   -1.020321    3.066041
     91          1           0       10.962895   -0.027355    3.110825
     92          1           0       12.042067   -1.734518    3.536432
     93          1           0       12.315737   -2.094219    1.935464
     94          1           0       10.976662   -2.932771    2.718265
     95          1           0        8.608431   -4.619707    0.022497
     96          1           0        7.080593   -5.641256   -0.220202
     97          1           0        7.766249   -5.258750    1.384541
     98          1           0        2.422210   -3.580028    1.454786
     99          1           0        0.603654   -5.583084   -2.175026
    100          1           0       -0.680646   -4.400146   -1.584153
    101          1           0       -0.346234   -6.030365   -0.926982
    102          1           0       -4.884364   -2.003476    1.410685
    103          1           0       -3.690972   -3.021976    0.592615
    104          1           0       -4.787961   -1.248787   -1.398956
    105          1           0       -6.569174   -4.732176   -0.665606
    106          1           0       -7.795772   -3.726629    0.089866
    107          1           0       -6.130460   -4.131322    0.754277
    108          1           0       -6.983086   -3.246939   -2.721686
    109          1           0       -6.233810   -1.737620   -2.894003
    110          1           0       -8.543456   -1.487246   -1.044904
    111          1           0       -9.056716   -2.215584   -2.486501
    112          1           0       -7.604900   -0.192118   -3.555724
    113          1           0       -7.703128    0.471752   -1.954224
    114          1           0      -10.378706   -0.672935   -2.969200
    115          1           0      -10.497337   -0.083016   -4.941392
    116          1           0       -9.121564    0.858592   -5.035922
    117          1           0      -10.684160    1.592250   -4.516510
    118          1           0      -10.728201    1.926021   -2.432244
    119          1           0       -9.393675    1.581429   -1.334339
    120          1           0      -10.859453    0.762265    0.082910
    121          1           0      -11.149779   -0.665914   -0.937959
    122          1           0      -12.925373    1.067363   -2.039755
    123          1           0      -12.549567    2.007826   -0.578718
    124          1           0      -12.965262   -0.771729    0.183290
    125          1           0      -14.961913   -1.415665   -0.597544
    126          1           0      -14.412155   -0.524815   -1.993951
    127          1           0      -15.501613    0.330335   -0.818212
    128          1           0      -14.827438    0.213117    1.578535
    129          1           0      -14.368640    1.771590    0.754941
    130          1           0      -12.051692    0.385946    1.895006
    131          1           0      -13.415845    0.349174    2.993546
    132          1           0      -13.162209    3.034676    1.711853
    133          1           0      -11.571809    2.524919    2.195899
    134          1           0      -13.172052    1.884765    4.583009
    135          1           0      -14.731267    3.882312    3.128930
    136          1           0      -14.128647    4.484484    4.714155
    137          1           0      -15.068804    3.004955    4.593935
    138          1           0      -11.744334    4.484018    4.184705
    139          1           0      -10.862965    2.942322    4.121882
    140          1           0      -11.665157    3.292055    5.602810
 ---------------------------------------------------------------------

 SCF Done:  E(RwB97XD) =  -3007.84841069     A.U. after   19 cycles

 Excitation energies and oscillator strengths:

 Excited State   1:      Singlet-A      1.5723 eV  788.57 nm  f=0.3750  <S**2>=0.000
     245 -> 248        0.18180
     246 -> 247        0.68507
     245 <- 248        0.11991
 This state for optimization and/or second-order correction.
 Total Energy, E(TD-HF/TD-DFT) =  -3007.79063095
 Copying the excited state density for this state as the 1-particle RhoCI density.

 Excited State   2:      Singlet-A      2.1749 eV  570.08 nm  f=0.0831  <S**2>=0.000
     245 -> 247        0.61708
     246 -> 248       -0.32557

 Excited State   3:      Singlet-A      3.0329 eV  408.80 nm  f=0.0008  <S**2>=0.000
     244 -> 247        0.67679
     246 -> 248        0.12865

 Excited State   4:      Singlet-A      3.3363 eV  371.62 nm  f=0.0285  <S**2>=0.000
     243 -> 247        0.58722
     243 -> 249        0.24823
     243 -> 250       -0.20065
     246 -> 248        0.11648

 Excited State   5:      Singlet-A      3.4793 eV  356.35 nm  f=0.8003  <S**2>=0.000
     241 -> 247        0.11324
     243 -> 247       -0.12259
     245 -> 247        0.32105
     246 -> 248        0.59449
     245 <- 247       -0.11735

 The electronic state is 1-A.
 Alpha  occ. eigenvalues --  -46.92561 -19.32096 -19.28693 -19.25676 -19.24508
 Alpha  occ. eigenvalues --  -19.23430 -19.23288 -14.47105 -14.46421 -14.44655
 Alpha  occ. eigenvalues --  -14.41903 -10.44459 -10.41589 -10.39937 -10.38392
 Alpha  occ. eigenvalues --  -10.35909 -10.35862 -10.35220 -10.34971 -10.34778
 Alpha  occ. eigenvalues --  -10.34615 -10.34252 -10.33405 -10.33134 -10.32681
 Alpha  occ. eigenvalues --  -10.32201 -10.31956 -10.31878 -10.31812 -10.31706
 Alpha  occ. eigenvalues --  -10.31682 -10.31523 -10.31513 -10.31363 -10.31361
 Alpha  occ. eigenvalues --  -10.31249 -10.31164 -10.31154 -10.31070 -10.30312
 Alpha  occ. eigenvalues --  -10.30234 -10.30177 -10.30014 -10.29939 -10.29909
 Alpha  occ. eigenvalues --  -10.29777 -10.29708 -10.29573 -10.29565 -10.29558
 Alpha  occ. eigenvalues --  -10.29291 -10.29178 -10.29146 -10.29115 -10.28996
 Alpha  occ. eigenvalues --  -10.28723 -10.28579 -10.28318 -10.28294 -10.28271
 Alpha  occ. eigenvalues --  -10.28158 -10.28108 -10.28087 -10.27920 -10.27768
 Alpha  occ. eigenvalues --  -10.27703  -3.18922  -1.92509  -1.92044  -1.91958
 Alpha  occ. eigenvalues --   -1.20354  -1.16516  -1.13015  -1.10751  -1.10659
 Alpha  occ. eigenvalues --   -1.08670  -1.05449  -1.04423  -1.04294  -1.03304
 Alpha  occ. eigenvalues --   -0.94239  -0.92676  -0.92146  -0.91298  -0.90664
 Alpha  occ. eigenvalues --   -0.90340  -0.89596  -0.89156  -0.88958  -0.88727
 Alpha  occ. eigenvalues --   -0.87881  -0.87386  -0.86089  -0.85199  -0.85053
 Alpha  occ. eigenvalues --   -0.84023  -0.83599  -0.83211  -0.82527  -0.82126
 Alpha  occ. eigenvalues --   -0.81910  -0.80227  -0.80124  -0.78802  -0.78332
 Alpha  occ. eigenvalues --   -0.77382  -0.77243  -0.76747  -0.76624  -0.75799
 Alpha  occ. eigenvalues --   -0.75498  -0.74381  -0.73545  -0.72714  -0.70505
 Alpha  occ. eigenvalues --   -0.70039  -0.69652  -0.68577  -0.68396  -0.67314
 Alpha  occ. eigenvalues --   -0.67196  -0.66789  -0.66574  -0.66132  -0.65797
 Alpha  occ. eigenvalues --   -0.65654  -0.65160  -0.64485  -0.62831  -0.62311
 Alpha  occ. eigenvalues --   -0.62031  -0.61948  -0.60765  -0.59984  -0.59672
 Alpha  occ. eigenvalues --   -0.59320  -0.59173  -0.58255  -0.57865  -0.57532
 Alpha  occ. eigenvalues --   -0.57007  -0.56744  -0.56664  -0.55969  -0.55751
 Alpha  occ. eigenvalues --   -0.55619  -0.55095  -0.54753  -0.54479  -0.54310
 Alpha  occ. eigenvalues --   -0.54148  -0.54062  -0.53729  -0.53676  -0.53424
 Alpha  occ. eigenvalues --   -0.53329  -0.52925  -0.52678  -0.52649  -0.52270
 Alpha  occ. eigenvalues --   -0.52053  -0.51973  -0.51827  -0.51634  -0.51607
 Alpha  occ. eigenvalues --   -0.51093  -0.50810  -0.50720  -0.50555  -0.50398
 Alpha  occ. eigenvalues --   -0.50299  -0.49923  -0.49801  -0.49518  -0.49339
 Alpha  occ. eigenvalues --   -0.49158  -0.48883  -0.48750  -0.48599  -0.48320
 Alpha  occ. eigenvalues --   -0.48171  -0.47902  -0.47860  -0.47587  -0.47537
 Alpha  occ. eigenvalues --   -0.47330  -0.47092  -0.47038  -0.46797  -0.46498
 Alpha  occ. eigenvalues --   -0.46304  -0.46263  -0.46146  -0.45885  -0.45677
 Alpha  occ. eigenvalues --   -0.45660  -0.45449  -0.45142  -0.45043  -0.44857
 Alpha  occ. eigenvalues --   -0.44757  -0.44598  -0.44353  -0.44267  -0.44070
 Alpha  occ. eigenvalues --   -0.43855  -0.43597  -0.43392  -0.43194  -0.43109
 Alpha  occ. eigenvalues --   -0.43020  -0.42617  -0.42161  -0.42071  -0.41845
 Alpha  occ. eigenvalues --   -0.41730  -0.41204  -0.41118  -0.40929  -0.40882
 Alpha  occ. eigenvalues --   -0.40563  -0.40340  -0.40226  -0.39983  -0.39894
 Alpha  occ. eigenvalues --   -0.39253  -0.38948  -0.38690  -0.38379  -0.38034
 Alpha  occ. eigenvalues --   -0.37478  -0.37046  -0.36453  -0.35974  -0.35532
 Alpha  occ. eigenvalues --   -0.35212  -0.34974  -0.34878  -0.33544  -0.33352
 Alpha  occ. eigenvalues --   -0.32550  -0.31678  -0.31593  -0.30435  -0.26062
 Alpha  occ. eigenvalues --   -0.22445
 Alpha virt. eigenvalues --   -0.06917   0.00162   0.02613   0.04929   0.06425
 Alpha virt. eigenvalues --    0.06822   0.08025   0.08236   0.08637   0.09835
 Alpha virt. eigenvalues --    0.10826   0.11873   0.12336   0.12344   0.12953

 Mulliken charges:
               1
     1  Mg   1.002288
     2  C    0.006881
     3  C   -0.107162
     4  C   -0.070943
     5  C   -0.133678
     6  N   -0.429328
     7  C    0.012087
     8  C   -0.011061
     9  C   -0.146814
    10  C    0.127524
    11  C    0.012020
    12  C    0.055460
    13  C   -0.057492
    14  C    0.232028
    15  O   -0.266068
    16  O   -0.328925
    17  N   -0.550566
    18  C    0.183390
    19  C   -0.166222
    20  C   -0.084229
    21  C    0.132921
    22  C    0.057048
    23  C    0.071872
    24  O   -0.222076
    25  C   -0.031775
    26  N   -0.361324
    27  C    0.106953
    28  C   -0.104302
    29  C   -0.014084
    30  C    0.073464
    31  C   -0.006257
    32  C   -0.027448
    33  C   -0.073764
    34  N   -0.410066
    35  C    0.190464
    36  C   -0.194277
    37  C   -0.011876
    38  C    0.114998
    39  C    0.104567
    40  C    0.058762
    41  O   -0.213108
    42  C   -0.104189
    43  C    0.299810
    44  O   -0.249251
    45  O   -0.368257
    46  C    0.146121
    47  C    0.238626
    48  C   -0.135888
    49  C   -0.212420
    50  C    0.041307
    51  C    0.041875
    52  C   -0.061105
    53  C    0.026259
    54  C   -0.195608
    55  C   -0.003143
    56  C    0.059572
    57  C   -0.082765
    58  C    0.021660
    59  C   -0.196672
    60  C    0.041929
    61  C   -0.006100
    62  C   -0.039191
    63  C   -0.004766
    64  C   -0.208305
    65  C    0.010458
    66  C   -0.021546
    67  H    0.004820
    68  H    0.027073
    69  H   -0.011409
    70  H    0.047497
    71  H    0.028263
    72  H    0.045189
    73  H    0.047451
    74  H    0.029348
    75  H    0.028660
    76  H    0.049116
    77  H    0.070194
    78  H    0.054521
    79  H    0.061401
    80  H    0.038933
    81  H    0.038631
    82  H    0.069426
    83  H    0.046533
    84  H    0.059745
    85  H    0.046027
    86  H    0.035190
    87  H    0.042897
    88  H    0.033781
    89  H    0.039249
    90  H    0.038063
    91  H    0.022460
    92  H    0.027565
    93  H    0.030615
    94  H    0.044963
    95  H    0.037519
    96  H    0.070899
    97  H    0.049802
    98  H    0.078315
    99  H    0.046771
   100  H    0.072204
   101  H    0.032666
   102  H    0.053628
   103  H    0.059512
   104  H    0.017263
   105  H    0.038578
   106  H    0.047988
   107  H    0.025539
   108  H    0.018312
   109  H    0.018275
   110  H    0.021439
   111  H    0.022622
   112  H    0.015562
   113  H    0.032425
   114  H    0.025439
   115  H    0.014618
   116  H    0.022536
   117  H    0.032942
   118  H    0.003621
   119  H    0.011726
   120  H    0.018407
   121  H    0.030963
   122  H    0.015007
   123  H    0.017775
   124  H    0.010832
   125  H    0.026917
   126  H    0.015825
   127  H    0.030930
   128  H    0.012899
   129  H    0.015900
   130  H    0.018907
   131  H    0.020897
   132  H    0.020839
   133  H    0.019892
   134  H    0.030442
   135  H    0.027138
   136  H    0.030355
   137  H    0.026500
   138  H    0.034439
   139  H    0.022961
   140  H    0.027478
 Sum of Mulliken charges =  -0.00000

 Dipole moment (field-independent basis, Debye):
    X=             -3.8255    Y=              4.1435    Z=              1.6921  Tot=              5.8878
 Quadrupole moment (field-independent basis, Debye-Ang):
   XX=           -374.3304   YY=           -410.7867   ZZ=           -400.2375
   XY=              9.7038   XZ=             12.3580   YZ=             -3.8648

 Normal termination of Gaussian 16 at Thu Apr 28 20:54:59 2022.
