 Gaussian 16, Revision A.03,
 Gaussian 16:  ES64L-G16RevA.03 25-Dec-2016

 --------------------
 #p ZINDO=(nstates=5)
 --------------------

 -----------------------------
 step_1701_chromophore_7 ZINDO
 -----------------------------
 Symbolic Z-matrix:
 Charge =  0 Multiplicity = 1

                         Standard orientation:
 ---------------------------------------------------------------------
 Center     Atomic      Atomic             Coordinates (Angstroms)
 Number     Number       Type             X           Y           Z
 ---------------------------------------------------------------------
      1         12           0        5.938053    0.633262    0.128690
      2          6           0        3.500223   -2.018272    0.332402
      3          6           0        3.578717    2.873331   -0.590219
      4          6           0        8.451352    2.883599   -0.039550
      5          6           0        8.322570   -1.960756    0.796198
      6          7           0        3.889654    0.415488   -0.063333
      7          6           0        2.994325   -0.685922    0.121500
      8          6           0        1.562448   -0.221792   -0.014006
      9          6           0        1.678828    1.221143   -0.494441
     10          6           0        3.145763    1.535984   -0.393710
     11          6           0        1.122246    1.623085   -1.865740
     12          6           0        0.619384   -0.559135    1.178036
     13          6           0       -0.934787   -0.267994    0.812454
     14          6           0       -1.917908   -1.431713    0.529116
     15          8           0       -1.559365   -2.508563    0.030329
     16          8           0       -3.193662   -1.021715    0.755373
     17          7           0        6.057396    2.475358   -0.405062
     18          6           0        4.937304    3.320026   -0.652942
     19          6           0        5.368169    4.698495   -0.888866
     20          6           0        6.777409    4.739736   -0.705293
     21          6           0        7.135601    3.328284   -0.385004
     22          6           0        4.364051    5.870993   -1.050887
     23          6           0        7.767535    5.883978   -1.054823
     24          8           0        8.959383    5.831067   -0.809596
     25          6           0        7.257861    7.141684   -1.722267
     26          7           0        8.049760    0.419770    0.330709
     27          6           0        8.837838    1.560738    0.231088
     28          6           0       10.329473    1.258866    0.733122
     29          6           0       10.227596   -0.275041    1.028164
     30          6           0        8.769654   -0.657089    0.699308
     31          6           0       11.512437    1.525034   -0.238010
     32          6           0       10.512756   -0.780536    2.464167
     33          6           0       11.485207   -1.972709    2.629789
     34          7           0        5.951702   -1.523848    0.395389
     35          6           0        7.069164   -2.359824    0.554621
     36          6           0        6.680955   -3.698449    0.450382
     37          6           0        5.260926   -3.598125    0.459173
     38          6           0        4.856419   -2.300123    0.432638
     39          6           0        7.612812   -4.894899    0.368991
     40          6           0        4.071896   -4.402325    0.580766
     41          8           0        4.036291   -5.621047    0.768486
     42          6           0        2.819065   -3.367430    0.462122
     43          6           0        1.963226   -3.774364   -0.638684
     44          8           0        2.149892   -3.383977   -1.772105
     45          8           0        0.973266   -4.655398   -0.234643
     46          6           0        0.098225   -5.119497   -1.328211
     47          6           0       -4.171640   -2.043339    0.586651
     48          6           0       -5.014190   -2.026342   -0.669818
     49          6           0       -6.170691   -2.668899   -0.904528
     50          6           0       -6.726858   -3.812757   -0.100711
     51          6           0       -6.886997   -2.286663   -2.215263
     52          6           0       -8.263846   -1.578286   -2.094340
     53          6           0       -8.243435   -0.143092   -2.673466
     54          6           0       -9.720955    0.196190   -2.963630
     55          6           0      -10.010960    0.739839   -4.417034
     56          6           0      -10.228417    1.133490   -1.874783
     57          6           0      -11.199649    0.421591   -0.895146
     58          6           0      -12.628834    1.002784   -0.992994
     59          6           0      -13.549002    0.078900   -0.169973
     60          6           0      -14.717470   -0.415235   -0.952911
     61          6           0      -14.043633    0.782021    1.077826
     62          6           0      -12.974807    0.900567    2.163179
     63          6           0      -12.630363    2.417973    2.435914
     64          6           0      -13.027056    2.755462    3.944163
     65          6           0      -14.308963    3.605380    4.094703
     66          6           0      -11.739121    3.448983    4.526236
     67          1           0        2.798781    3.636738   -0.625665
     68          1           0        9.205325    3.668547    0.053436
     69          1           0        9.021202   -2.764642    1.037051
     70          1           0        1.168671   -0.725356   -0.897090
     71          1           0        1.014360    1.740014    0.197547
     72          1           0        0.475695    0.888520   -2.344325
     73          1           0        1.954825    1.842318   -2.535201
     74          1           0        0.560468    2.555377   -1.810750
     75          1           0        0.744946    0.080097    2.052419
     76          1           0        0.848512   -1.570204    1.515815
     77          1           0       -1.018435    0.482789    0.026410
     78          1           0       -1.321753    0.137387    1.747612
     79          1           0        4.264176    6.381977   -0.093927
     80          1           0        3.361021    5.562264   -1.342870
     81          1           0        4.748092    6.571253   -1.793448
     82          1           0        6.812362    6.931531   -2.694633
     83          1           0        8.054591    7.861010   -1.911427
     84          1           0        6.587774    7.710262   -1.076610
     85          1           0       10.513769    1.983227    1.526448
     86          1           0       10.902626   -0.808176    0.358333
     87          1           0       11.175427    1.456348   -1.272789
     88          1           0       12.356717    0.838969   -0.177443
     89          1           0       11.952870    2.493318   -0.000563
     90          1           0        9.635999   -1.020321    3.066041
     91          1           0       10.962895   -0.027355    3.110825
     92          1           0       12.042067   -1.734518    3.536432
     93          1           0       12.315737   -2.094219    1.935464
     94          1           0       10.976662   -2.932771    2.718265
     95          1           0        8.608431   -4.619707    0.022497
     96          1           0        7.080593   -5.641256   -0.220202
     97          1           0        7.766249   -5.258750    1.384541
     98          1           0        2.422210   -3.580028    1.454786
     99          1           0        0.603654   -5.583084   -2.175026
    100          1           0       -0.680646   -4.400146   -1.584153
    101          1           0       -0.346234   -6.030365   -0.926982
    102          1           0       -4.884364   -2.003476    1.410685
    103          1           0       -3.690972   -3.021976    0.592615
    104          1           0       -4.787961   -1.248787   -1.398956
    105          1           0       -6.569174   -4.732176   -0.665606
    106          1           0       -7.795772   -3.726629    0.089866
    107          1           0       -6.130460   -4.131322    0.754277
    108          1           0       -6.983086   -3.246939   -2.721686
    109          1           0       -6.233810   -1.737620   -2.894003
    110          1           0       -8.543456   -1.487246   -1.044904
    111          1           0       -9.056716   -2.215584   -2.486501
    112          1           0       -7.604900   -0.192118   -3.555724
    113          1           0       -7.703128    0.471752   -1.954224
    114          1           0      -10.378706   -0.672935   -2.969200
    115          1           0      -10.497337   -0.083016   -4.941392
    116          1           0       -9.121564    0.858592   -5.035922
    117          1           0      -10.684160    1.592250   -4.516510
    118          1           0      -10.728201    1.926021   -2.432244
    119          1           0       -9.393675    1.581429   -1.334339
    120          1           0      -10.859453    0.762265    0.082910
    121          1           0      -11.149779   -0.665914   -0.937959
    122          1           0      -12.925373    1.067363   -2.039755
    123          1           0      -12.549567    2.007826   -0.578718
    124          1           0      -12.965262   -0.771729    0.183290
    125          1           0      -14.961913   -1.415665   -0.597544
    126          1           0      -14.412155   -0.524815   -1.993951
    127          1           0      -15.501613    0.330335   -0.818212
    128          1           0      -14.827438    0.213117    1.578535
    129          1           0      -14.368640    1.771590    0.754941
    130          1           0      -12.051692    0.385946    1.895006
    131          1           0      -13.415845    0.349174    2.993546
    132          1           0      -13.162209    3.034676    1.711853
    133          1           0      -11.571809    2.524919    2.195899
    134          1           0      -13.172052    1.884765    4.583009
    135          1           0      -14.731267    3.882312    3.128930
    136          1           0      -14.128647    4.484484    4.714155
    137          1           0      -15.068804    3.004955    4.593935
    138          1           0      -11.744334    4.484018    4.184705
    139          1           0      -10.862965    2.942322    4.121882
    140          1           0      -11.665157    3.292055    5.602810
 ---------------------------------------------------------------------

 SCF Done:  E(RZINDO/S) =  -474.260430991     A.U. after   20 cycles

 Excitation energies and oscillator strengths:

 Excited State   1:      Singlet-A      1.2083 eV 1026.06 nm  f=0.6021  <S**2>=0.000
     175 ->178        -0.19145
     176 ->177         0.66266
 This state for optimization and/or second-order correction.
 Total Energy, E(CIS/TDA) =  -474.216025078
 Copying the excited state density for this state as the 1-particle RhoCI density.

 Excited State   2:      Singlet-A      1.9274 eV  643.27 nm  f=0.0172  <S**2>=0.000
     175 ->177         0.51510
     176 ->178         0.46347

 Excited State   3:      Singlet-A      2.9204 eV  424.54 nm  f=0.0282  <S**2>=0.000
     170 ->177         0.36183
     170 ->178        -0.11920
     170 ->179        -0.33813
     170 ->181         0.24222
     170 ->186        -0.16824
     170 ->187        -0.13321
     172 ->177        -0.10153
     176 ->179        -0.11471

 Excited State   4:      Singlet-A      2.9886 eV  414.86 nm  f=0.1069  <S**2>=0.000
     172 ->177         0.18140
     174 ->177        -0.17924
     175 ->177         0.12979
     176 ->178        -0.10597
     176 ->179         0.57561
     176 ->182         0.10772

 Excited State   5:      Singlet-A      2.9976 eV  413.62 nm  f=0.7364  <S**2>=0.000
     172 ->177         0.30949
     174 ->177        -0.26224
     175 ->177        -0.32975
     176 ->178         0.40657

 The electronic state is 1-A.
 Alpha  occ. eigenvalues --   -1.85253  -1.79051  -1.78305  -1.74402  -1.71085
 Alpha  occ. eigenvalues --   -1.69276  -1.68738  -1.61796  -1.58433  -1.57434
 Alpha  occ. eigenvalues --   -1.54035  -1.51566  -1.49287  -1.48749  -1.46246
 Alpha  occ. eigenvalues --   -1.44721  -1.42469  -1.39547  -1.38273  -1.38193
 Alpha  occ. eigenvalues --   -1.36134  -1.34103  -1.33000  -1.30922  -1.29604
 Alpha  occ. eigenvalues --   -1.28088  -1.24326  -1.22012  -1.20814  -1.17727
 Alpha  occ. eigenvalues --   -1.17260  -1.16630  -1.16130  -1.15090  -1.12831
 Alpha  occ. eigenvalues --   -1.12015  -1.10451  -1.09391  -1.04907  -1.03239
 Alpha  occ. eigenvalues --   -1.02966  -1.00995  -0.99120  -0.97897  -0.97037
 Alpha  occ. eigenvalues --   -0.95383  -0.94326  -0.93481  -0.92680  -0.91808
 Alpha  occ. eigenvalues --   -0.90887  -0.90457  -0.88604  -0.88480  -0.86935
 Alpha  occ. eigenvalues --   -0.85644  -0.83704  -0.83057  -0.81344  -0.80843
 Alpha  occ. eigenvalues --   -0.79304  -0.78530  -0.78066  -0.76036  -0.75735
 Alpha  occ. eigenvalues --   -0.75554  -0.74494  -0.74269  -0.73867  -0.73203
 Alpha  occ. eigenvalues --   -0.72528  -0.71800  -0.71704  -0.71213  -0.70856
 Alpha  occ. eigenvalues --   -0.70576  -0.69131  -0.68758  -0.68069  -0.67416
 Alpha  occ. eigenvalues --   -0.67155  -0.67012  -0.66335  -0.65833  -0.65415
 Alpha  occ. eigenvalues --   -0.65268  -0.64694  -0.64240  -0.63543  -0.63054
 Alpha  occ. eigenvalues --   -0.62684  -0.62242  -0.61910  -0.61706  -0.61633
 Alpha  occ. eigenvalues --   -0.61317  -0.60797  -0.60631  -0.60165  -0.60059
 Alpha  occ. eigenvalues --   -0.59571  -0.59276  -0.58929  -0.58813  -0.58483
 Alpha  occ. eigenvalues --   -0.57615  -0.57459  -0.57339  -0.56816  -0.56535
 Alpha  occ. eigenvalues --   -0.55790  -0.55368  -0.55156  -0.54581  -0.54377
 Alpha  occ. eigenvalues --   -0.53773  -0.53444  -0.53339  -0.52751  -0.52695
 Alpha  occ. eigenvalues --   -0.52491  -0.52119  -0.51891  -0.51779  -0.51447
 Alpha  occ. eigenvalues --   -0.51287  -0.51094  -0.50805  -0.50479  -0.50194
 Alpha  occ. eigenvalues --   -0.49946  -0.49560  -0.49512  -0.49129  -0.48905
 Alpha  occ. eigenvalues --   -0.48733  -0.48644  -0.48322  -0.48274  -0.47778
 Alpha  occ. eigenvalues --   -0.47521  -0.47243  -0.46978  -0.46900  -0.46602
 Alpha  occ. eigenvalues --   -0.46397  -0.46219  -0.45736  -0.45191  -0.44996
 Alpha  occ. eigenvalues --   -0.44955  -0.44879  -0.44451  -0.43999  -0.43614
 Alpha  occ. eigenvalues --   -0.43277  -0.42705  -0.42628  -0.42067  -0.41467
 Alpha  occ. eigenvalues --   -0.41295  -0.41182  -0.40540  -0.39119  -0.38669
 Alpha  occ. eigenvalues --   -0.37809  -0.36567  -0.35473  -0.34810  -0.33984
 Alpha  occ. eigenvalues --   -0.33288  -0.32019  -0.31961  -0.31860  -0.26705
 Alpha  occ. eigenvalues --   -0.21334
 Alpha virt. eigenvalues --   -0.08334  -0.02038  -0.00219   0.01209   0.01592
 Alpha virt. eigenvalues --    0.02776   0.03420   0.03968   0.04954   0.05134
 Alpha virt. eigenvalues --    0.06285   0.06977   0.07361   0.07977   0.08289

 Mulliken charges:
               1
     1  Mg   0.417956
     2  C   -0.040105
     3  C   -0.085293
     4  C   -0.057937
     5  C   -0.050323
     6  N   -0.285547
     7  C    0.125747
     8  C    0.011032
     9  C    0.005944
    10  C    0.133286
    11  C   -0.048460
    12  C   -0.020429
    13  C   -0.007376
    14  C    0.468628
    15  O   -0.518633
    16  O   -0.251494
    17  N   -0.312581
    18  C    0.087097
    19  C   -0.008072
    20  C   -0.055733
    21  C    0.132804
    22  C   -0.045267
    23  C    0.335429
    24  O   -0.513282
    25  C   -0.027764
    26  N   -0.258233
    27  C    0.104441
    28  C   -0.005247
    29  C    0.008340
    30  C    0.141097
    31  C   -0.052939
    32  C   -0.028645
    33  C   -0.062497
    34  N   -0.365136
    35  C    0.114177
    36  C    0.037792
    37  C   -0.044488
    38  C    0.138617
    39  C   -0.036054
    40  C    0.319344
    41  O   -0.527958
    42  C    0.062860
    43  C    0.496909
    44  O   -0.523516
    45  O   -0.259985
    46  C    0.071957
    47  C    0.105999
    48  C   -0.087525
    49  C   -0.007503
    50  C   -0.044006
    51  C   -0.028544
    52  C   -0.033413
    53  C   -0.027769
    54  C   -0.010399
    55  C   -0.069750
    56  C   -0.041078
    57  C   -0.043115
    58  C   -0.032963
    59  C   -0.010798
    60  C   -0.057056
    61  C   -0.036297
    62  C   -0.050006
    63  C   -0.038126
    64  C   -0.017327
    65  C   -0.055454
    66  C   -0.063521
    67  H    0.032093
    68  H    0.052256
    69  H    0.031302
    70  H    0.039953
    71  H    0.020034
    72  H    0.024966
    73  H    0.023377
    74  H    0.013976
    75  H    0.021373
    76  H    0.036943
    77  H    0.054143
    78  H    0.027073
    79  H    0.030507
    80  H    0.025218
    81  H    0.026431
    82  H    0.036849
    83  H    0.029509
    84  H    0.035864
    85  H    0.039053
    86  H    0.034227
    87  H    0.023797
    88  H    0.017678
    89  H    0.020002
    90  H    0.024242
    91  H    0.012868
    92  H    0.012080
    93  H    0.021330
    94  H    0.022077
    95  H    0.029263
    96  H    0.043571
    97  H    0.033921
    98  H    0.058280
    99  H    0.047812
   100  H    0.058459
   101  H    0.019584
   102  H    0.035415
   103  H    0.055328
   104  H    0.028200
   105  H    0.023762
   106  H    0.032927
   107  H    0.024560
   108  H    0.013853
   109  H    0.023940
   110  H    0.012845
   111  H    0.023006
   112  H    0.017766
   113  H    0.028673
   114  H    0.025582
   115  H    0.006080
   116  H    0.018552
   117  H    0.026664
   118  H    0.016649
   119  H    0.018268
   120  H    0.011539
   121  H    0.031561
   122  H    0.021425
   123  H    0.022232
   124  H    0.016915
   125  H    0.017342
   126  H    0.013097
   127  H    0.025902
   128  H    0.012855
   129  H    0.022742
   130  H    0.018140
   131  H    0.019343
   132  H    0.024641
   133  H    0.021264
   134  H    0.025507
   135  H    0.021365
   136  H    0.021514
   137  H    0.014142
   138  H    0.024684
   139  H    0.012841
   140  H    0.016959
 Sum of Mulliken charges =  -0.00000

 Dipole moment (field-independent basis, Debye):
    X=             -5.3553    Y=              4.8754    Z=              3.1930  Tot=              7.9148
 N-N= 4.231284283505D+03 E-N= 0.000000000000D+00  KE=-9.137431214137D+03
 Leave Link  601 at Thu Apr 28 21:07:25 2022, MaxMem=  6710886400 cpu:               3.2 elap:               0.2
 (Enter /sw/apps/gaussian-16.0/g16/l9999.exe)
 1\1\GINC-BP1-COMPUTE150\SP\RZINDO CIS\STO-3G\C55H74Mg1N4O6\OF15641\28-
 Apr-2022\0\\#p ZINDO=(nstates=5)\\step_1701_chromophore_7 ZINDO\\0,1\M
 g,0,26.709,0.161,29.467\C,0,28.722,-0.041,32.454\C,0,23.941,0.657,31.2
 54\C,0,25.09,0.253,26.504\C,0,29.787,-0.501,27.75\N,0,26.435,0.299,31.
 513\C,0,27.33,0.286,32.63\C,0,26.575,0.579,33.906\C,0,25.109,0.574,33.
 485\C,0,25.147,0.492,31.984\C,0,24.144,-0.465,34.069\C,0,27.121,1.755,
 34.768\C,0,26.418,1.802,36.23\C,0,27.186,1.351,37.498\O,0,28.063,0.475

 Normal termination of Gaussian 16 at Thu Apr 28 21:07:25 2022.
