 Gaussian 16, Revision A.03,
 Gaussian 16:  ES64L-G16RevA.03 25-Dec-2016

 ------------------------------
 #p blyp/Def2SVP td=(nstates=5)
 ------------------------------

 -----------------------------------------------
 step_1_chromophore_4 TDDFT with blyp functional
 -----------------------------------------------
 Symbolic Z-matrix:
 Charge =  0 Multiplicity = 1

                         Standard orientation:
 ---------------------------------------------------------------------
 Center     Atomic      Atomic             Coordinates (Angstroms)
 Number     Number       Type             X           Y           Z
 ---------------------------------------------------------------------
      1         12           0        5.826840    0.455700    0.066715
      2          6           0        3.620837   -2.140505    0.218101
      3          6           0        3.077785    2.665719   -0.202417
      4          6           0        7.958262    3.009479   -0.318631
      5          6           0        8.414083   -1.778939    0.400386
      6          7           0        3.642184    0.279546   -0.301830
      7          6           0        2.955259   -0.919704   -0.073809
      8          6           0        1.414807   -0.736923   -0.181295
      9          6           0        1.367050    0.801496   -0.379241
     10          6           0        2.799114    1.304636   -0.359951
     11          6           0        0.569090    1.460621   -1.583746
     12          6           0        0.546756   -1.222915    1.061625
     13          6           0       -0.967817   -0.955319    0.851998
     14          6           0       -1.776551   -2.228219    0.597988
     15          8           0       -1.992356   -3.109132    1.524578
     16          8           0       -2.276073   -2.350380   -0.672700
     17          7           0        5.536147    2.602918   -0.178515
     18          6           0        4.345837    3.279906   -0.021740
     19          6           0        4.659200    4.686376   -0.245454
     20          6           0        6.088145    4.771408   -0.285832
     21          6           0        6.610365    3.441997   -0.238779
     22          6           0        3.587798    5.706320   -0.294737
     23          6           0        6.859480    6.117267   -0.518836
     24          8           0        8.080699    6.180124   -0.767033
     25          6           0        6.108290    7.423086   -0.524969
     26          7           0        7.777189    0.586978    0.016719
     27          6           0        8.506517    1.794588   -0.171805
     28          6           0        9.964376    1.508027   -0.451841
     29          6           0       10.100900    0.150429    0.234803
     30          6           0        8.681205   -0.396211    0.283444
     31          6           0       10.294413    1.453916   -1.981350
     32          6           0       10.617273    0.263507    1.686649
     33          6           0       12.103663    0.320086    1.916715
     34          7           0        6.093660   -1.581724    0.234739
     35          6           0        7.160845   -2.347313    0.514178
     36          6           0        6.753468   -3.718885    0.595880
     37          6           0        5.377551   -3.706648    0.509122
     38          6           0        5.007632   -2.364506    0.330908
     39          6           0        7.716284   -4.827697    0.841761
     40          6           0        4.248653   -4.535036    0.539288
     41          8           0        4.128254   -5.732951    0.709236
     42          6           0        3.018211   -3.529506    0.348334
     43          6           0        2.243317   -3.976944   -0.840180
     44          8           0        2.599679   -3.957104   -1.993173
     45          8           0        0.987281   -4.290606   -0.508717
     46          6           0        0.078345   -4.712037   -1.643394
     47          6           0       -3.386364   -3.285838   -0.712512
     48          6           0       -4.599887   -2.609961   -0.210614
     49          6           0       -5.863653   -3.105921   -0.154671
     50          6           0       -6.339972   -4.513274   -0.481436
     51          6           0       -6.981427   -2.272917    0.529983
     52          6           0       -7.534169   -1.182269   -0.485881
     53          6           0       -7.663977    0.206271    0.078189
     54          6           0       -9.012272    0.916033   -0.095961
     55          6           0       -9.247442    1.165043   -1.628992
     56          6           0       -9.117740    2.221887    0.677262
     57          6           0       -9.661120    1.924246    2.042123
     58          6           0      -10.860033    2.836640    2.459496
     59          6           0      -12.174533    2.073382    2.574319
     60          6           0      -12.806096    2.250535    3.959092
     61          6           0      -13.162683    2.291423    1.382515
     62          6           0      -13.755265    1.067244    0.635242
     63          6           0      -13.167188    0.879918   -0.812193
     64          6           0      -14.220909    1.023074   -1.952541
     65          6           0      -14.806185   -0.352569   -2.447135
     66          6           0      -13.731721    1.737416   -3.146538
     67          1           0        2.185451    3.289932   -0.123268
     68          1           0        8.665522    3.832900   -0.436488
     69          1           0        9.168195   -2.532058    0.636763
     70          1           0        1.070723   -1.238882   -1.085643
     71          1           0        0.928674    1.266755    0.504137
     72          1           0        0.059721    2.400420   -1.368968
     73          1           0       -0.036377    0.703967   -2.083048
     74          1           0        1.350351    1.769427   -2.278147
     75          1           0        0.999361   -0.699341    1.902823
     76          1           0        0.720585   -2.289796    1.201203
     77          1           0       -1.107578   -0.182516    0.096123
     78          1           0       -1.342689   -0.555914    1.793903
     79          1           0        3.527335    6.078174   -1.317740
     80          1           0        3.815919    6.413625    0.502637
     81          1           0        2.629245    5.274990   -0.005877
     82          1           0        6.806978    8.251917   -0.638921
     83          1           0        5.732592    7.511094    0.495370
     84          1           0        5.285391    7.518309   -1.232912
     85          1           0       10.607769    2.268630   -0.008674
     86          1           0       10.732820   -0.549626   -0.311348
     87          1           0        9.919102    0.535774   -2.431625
     88          1           0       11.369250    1.545591   -2.139866
     89          1           0        9.805504    2.327435   -2.411254
     90          1           0       10.219832   -0.512368    2.339756
     91          1           0       10.176733    1.140780    2.160582
     92          1           0       12.303372    1.263934    2.423226
     93          1           0       12.501366    0.451903    0.910337
     94          1           0       12.521258   -0.560550    2.405038
     95          1           0        7.733288   -5.086922    1.899637
     96          1           0        8.719204   -4.747071    0.421406
     97          1           0        7.282642   -5.692719    0.339672
     98          1           0        2.393824   -3.581519    1.240558
     99          1           0        0.160595   -3.947591   -2.416338
    100          1           0       -0.973452   -4.753528   -1.359162
    101          1           0        0.427008   -5.679502   -2.005376
    102          1           0       -3.152666   -4.222888   -0.206075
    103          1           0       -3.453062   -3.413262   -1.793042
    104          1           0       -4.476565   -1.580916    0.126240
    105          1           0       -6.307768   -5.224602    0.343428
    106          1           0       -5.650913   -4.868639   -1.248463
    107          1           0       -7.346550   -4.444119   -0.893553
    108          1           0       -6.466667   -1.828273    1.381363
    109          1           0       -7.901869   -2.785386    0.810291
    110          1           0       -8.475063   -1.598385   -0.846272
    111          1           0       -6.862454   -1.180217   -1.343552
    112          1           0       -6.877124    0.802182   -0.383770
    113          1           0       -7.371814    0.086255    1.121144
    114          1           0       -9.749533    0.130139    0.067936
    115          1           0       -9.575907    2.173901   -1.875257
    116          1           0      -10.016515    0.439649   -1.896480
    117          1           0       -8.335586    0.891069   -2.158531
    118          1           0       -9.607819    3.081670    0.219519
    119          1           0       -8.068506    2.518025    0.681453
    120          1           0       -8.985185    2.162519    2.864050
    121          1           0       -9.937242    0.872583    2.118362
    122          1           0      -11.071611    3.640910    1.755630
    123          1           0      -10.648351    3.393040    3.372940
    124          1           0      -11.919407    1.013974    2.616734
    125          1           0      -12.582936    1.318472    4.479533
    126          1           0      -13.893775    2.218809    3.892215
    127          1           0      -12.445642    2.964405    4.699597
    128          1           0      -12.518604    2.781979    0.653270
    129          1           0      -14.043882    2.881076    1.636882
    130          1           0      -14.841525    1.038601    0.557479
    131          1           0      -13.471489    0.182499    1.205006
    132          1           0      -12.831130   -0.156378   -0.839225
    133          1           0      -12.358040    1.503692   -1.192890
    134          1           0      -15.017289    1.690460   -1.626331
    135          1           0      -15.337283   -0.239038   -3.392063
    136          1           0      -15.544477   -0.743511   -1.747707
    137          1           0      -14.020600   -1.079924   -2.653565
    138          1           0      -12.655983    1.863254   -3.266412
    139          1           0      -14.286021    2.672189   -3.235137
    140          1           0      -13.845717    1.214993   -4.096698
 ---------------------------------------------------------------------

 SCF Done:  E(RB-LYP) =  -3007.34858686     A.U. after   21 cycles

 Excitation energies and oscillator strengths:

 Excited State   1:      Singlet-A      1.7791 eV  696.90 nm  f=0.2931  <S**2>=0.000
     245 -> 248       -0.17352
     246 -> 247        0.69208
     246 <- 247       -0.16573
 This state for optimization and/or second-order correction.
 Total Energy, E(TD-HF/TD-DFT) =  -3007.28320718
 Copying the excited state density for this state as the 1-particle RhoCI density.

 Excited State   2:      Singlet-A      1.7925 eV  691.68 nm  f=0.0069  <S**2>=0.000
     244 -> 247        0.69998

 Excited State   3:      Singlet-A      1.9572 eV  633.47 nm  f=0.0049  <S**2>=0.000
     243 -> 247        0.70453

 Excited State   4:      Singlet-A      2.0410 eV  607.48 nm  f=0.0835  <S**2>=0.000
     245 -> 247        0.64519
     246 -> 248        0.24807

 Excited State   5:      Singlet-A      2.2576 eV  549.17 nm  f=0.0000  <S**2>=0.000
     241 -> 247        0.70707

 The electronic state is 1-A.
 Alpha  occ. eigenvalues --  -46.26082 -18.83650 -18.81734 -18.76987 -18.75928
 Alpha  occ. eigenvalues --  -18.75548 -18.75479 -14.03790 -14.03033 -14.00570
 Alpha  occ. eigenvalues --  -14.00434 -10.05130 -10.03008 -10.00134  -9.99378
 Alpha  occ. eigenvalues --   -9.98532  -9.97813  -9.97469  -9.96833  -9.96425
 Alpha  occ. eigenvalues --   -9.95802  -9.95425  -9.95296  -9.94821  -9.94662
 Alpha  occ. eigenvalues --   -9.94648  -9.94550  -9.94080  -9.94048  -9.94020
 Alpha  occ. eigenvalues --   -9.93622  -9.93493  -9.93468  -9.93459  -9.93433
 Alpha  occ. eigenvalues --   -9.93339  -9.93302  -9.93053  -9.92959  -9.92692
 Alpha  occ. eigenvalues --   -9.92571  -9.92413  -9.92322  -9.92286  -9.92243
 Alpha  occ. eigenvalues --   -9.92235  -9.91959  -9.91922  -9.91826  -9.91734
 Alpha  occ. eigenvalues --   -9.91633  -9.91576  -9.91570  -9.91465  -9.91457
 Alpha  occ. eigenvalues --   -9.91150  -9.91079  -9.90976  -9.90971  -9.90922
 Alpha  occ. eigenvalues --   -9.90895  -9.90754  -9.90665  -9.90629  -9.90326
 Alpha  occ. eigenvalues --   -9.90107  -2.90946  -1.71376  -1.70826  -1.70659
 Alpha  occ. eigenvalues --   -0.98535  -0.98094  -0.91764  -0.90123  -0.89006
 Alpha  occ. eigenvalues --   -0.87615  -0.87597  -0.86318  -0.85578  -0.84637
 Alpha  occ. eigenvalues --   -0.76015  -0.74071  -0.73282  -0.72854  -0.72495
 Alpha  occ. eigenvalues --   -0.72277  -0.72150  -0.71347  -0.71251  -0.70659
 Alpha  occ. eigenvalues --   -0.70108  -0.69386  -0.68382  -0.67980  -0.67437
 Alpha  occ. eigenvalues --   -0.66710  -0.66095  -0.65580  -0.65344  -0.64738
 Alpha  occ. eigenvalues --   -0.64288  -0.63039  -0.62504  -0.62006  -0.60912
 Alpha  occ. eigenvalues --   -0.60550  -0.60100  -0.59884  -0.59746  -0.59328
 Alpha  occ. eigenvalues --   -0.58873  -0.58156  -0.57060  -0.56155  -0.54614
 Alpha  occ. eigenvalues --   -0.54243  -0.53893  -0.52756  -0.52121  -0.51703
 Alpha  occ. eigenvalues --   -0.51335  -0.51035  -0.50711  -0.50539  -0.50052
 Alpha  occ. eigenvalues --   -0.49612  -0.49380  -0.48814  -0.48203  -0.47455
 Alpha  occ. eigenvalues --   -0.46701  -0.46438  -0.46189  -0.45641  -0.44963
 Alpha  occ. eigenvalues --   -0.44579  -0.44278  -0.43425  -0.42714  -0.42634
 Alpha  occ. eigenvalues --   -0.42145  -0.41888  -0.41682  -0.41230  -0.41110
 Alpha  occ. eigenvalues --   -0.40922  -0.40852  -0.40458  -0.40229  -0.40107
 Alpha  occ. eigenvalues --   -0.39977  -0.39850  -0.39667  -0.39396  -0.39282
 Alpha  occ. eigenvalues --   -0.39072  -0.38931  -0.38657  -0.38567  -0.38464
 Alpha  occ. eigenvalues --   -0.38063  -0.37916  -0.37738  -0.37592  -0.37493
 Alpha  occ. eigenvalues --   -0.37136  -0.36982  -0.36812  -0.36680  -0.36590
 Alpha  occ. eigenvalues --   -0.36333  -0.36252  -0.36036  -0.35903  -0.35854
 Alpha  occ. eigenvalues --   -0.35620  -0.35306  -0.35289  -0.35231  -0.35007
 Alpha  occ. eigenvalues --   -0.34944  -0.34900  -0.34573  -0.34418  -0.34395
 Alpha  occ. eigenvalues --   -0.34220  -0.34111  -0.33629  -0.33566  -0.33236
 Alpha  occ. eigenvalues --   -0.33119  -0.32991  -0.32592  -0.32516  -0.32447
 Alpha  occ. eigenvalues --   -0.32268  -0.32107  -0.31938  -0.31915  -0.31662
 Alpha  occ. eigenvalues --   -0.31291  -0.31236  -0.30730  -0.30584  -0.30493
 Alpha  occ. eigenvalues --   -0.30425  -0.30189  -0.30147  -0.29885  -0.29684
 Alpha  occ. eigenvalues --   -0.29628  -0.29473  -0.29458  -0.29397  -0.29121
 Alpha  occ. eigenvalues --   -0.29068  -0.28931  -0.28892  -0.28048  -0.27631
 Alpha  occ. eigenvalues --   -0.27563  -0.26890  -0.26654  -0.26506  -0.26393
 Alpha  occ. eigenvalues --   -0.26222  -0.26090  -0.25421  -0.25289  -0.25076
 Alpha  occ. eigenvalues --   -0.24887  -0.24876  -0.24359  -0.24143  -0.24053
 Alpha  occ. eigenvalues --   -0.23235  -0.22365  -0.21667  -0.21204  -0.21095
 Alpha  occ. eigenvalues --   -0.20222  -0.20018  -0.19010  -0.18463  -0.17755
 Alpha  occ. eigenvalues --   -0.15937
 Alpha virt. eigenvalues --   -0.11926  -0.06898  -0.06201  -0.05102  -0.04674
 Alpha virt. eigenvalues --   -0.02708  -0.02256  -0.01481  -0.00996   0.00040
 Alpha virt. eigenvalues --    0.01022   0.01301   0.01835   0.02374   0.02727

 Mulliken charges:
               1
     1  Mg   0.692633
     2  C    0.036470
     3  C   -0.048884
     4  C   -0.053980
     5  C   -0.087911
     6  N   -0.198494
     7  C   -0.089539
     8  C    0.058966
     9  C   -0.046391
    10  C    0.022969
    11  C    0.123372
    12  C    0.081199
    13  C    0.186117
    14  C    0.092060
    15  O   -0.256312
    16  O   -0.264724
    17  N   -0.276616
    18  C    0.127240
    19  C   -0.201495
    20  C    0.033695
    21  C    0.087843
    22  C    0.208584
    23  C   -0.062279
    24  O   -0.183133
    25  C    0.141349
    26  N   -0.315505
    27  C    0.070261
    28  C    0.038636
    29  C    0.048511
    30  C    0.102094
    31  C    0.141198
    32  C    0.046042
    33  C    0.116640
    34  N   -0.250527
    35  C    0.080989
    36  C   -0.176832
    37  C    0.154691
    38  C    0.067260
    39  C    0.161193
    40  C   -0.083369
    41  O   -0.114182
    42  C    0.021379
    43  C    0.092976
    44  O   -0.180862
    45  O   -0.267887
    46  C    0.218023
    47  C    0.324169
    48  C   -0.107185
    49  C   -0.163078
    50  C    0.145302
    51  C    0.102352
    52  C    0.045571
    53  C    0.108640
    54  C   -0.127015
    55  C    0.102094
    56  C    0.175379
    57  C    0.098835
    58  C    0.089459
    59  C   -0.074376
    60  C    0.108280
    61  C    0.124763
    62  C    0.079418
    63  C    0.093355
    64  C   -0.088898
    65  C    0.090663
    66  C    0.092570
    67  H   -0.061937
    68  H   -0.047220
    69  H   -0.060707
    70  H   -0.013387
    71  H   -0.024076
    72  H   -0.003993
    73  H    0.001980
    74  H   -0.011846
    75  H   -0.022702
    76  H    0.021291
    77  H   -0.017900
    78  H    0.002922
    79  H    0.017293
    80  H    0.002313
    81  H   -0.027797
    82  H   -0.011414
    83  H   -0.001740
    84  H    0.012714
    85  H   -0.036067
    86  H   -0.042146
    87  H   -0.002308
    88  H   -0.004374
    89  H   -0.005706
    90  H   -0.033649
    91  H   -0.034600
    92  H   -0.011721
    93  H   -0.025067
    94  H    0.005679
    95  H    0.011092
    96  H   -0.002550
    97  H   -0.000464
    98  H    0.005513
    99  H    0.015999
   100  H    0.016676
   101  H    0.024564
   102  H    0.033058
   103  H   -0.003558
   104  H   -0.028839
   105  H    0.021357
   106  H   -0.020663
   107  H   -0.006934
   108  H   -0.004199
   109  H   -0.026723
   110  H   -0.035267
   111  H   -0.024555
   112  H   -0.033773
   113  H   -0.042314
   114  H   -0.033661
   115  H   -0.007460
   116  H   -0.014829
   117  H   -0.024059
   118  H   -0.031536
   119  H   -0.048021
   120  H   -0.035272
   121  H   -0.019229
   122  H   -0.042713
   123  H   -0.046298
   124  H   -0.038006
   125  H   -0.038844
   126  H   -0.029568
   127  H   -0.011987
   128  H   -0.035703
   129  H   -0.028139
   130  H   -0.026384
   131  H   -0.040807
   132  H   -0.037230
   133  H   -0.016750
   134  H   -0.039785
   135  H   -0.019464
   136  H   -0.019080
   137  H   -0.013097
   138  H   -0.027224
   139  H   -0.013611
   140  H   -0.037266
 Sum of Mulliken charges =  -0.00000

 Dipole moment (field-independent basis, Debye):
    X=             -3.1243    Y=              2.8962    Z=              0.4263  Tot=              4.2815
 Quadrupole moment (field-independent basis, Debye-Ang):
   XX=           -385.0406   YY=           -431.7802   ZZ=           -411.4587
   XY=             -3.4840   XZ=             18.1088   YZ=              9.9772

 Normal termination of Gaussian 16 at Wed May  4 16:33:09 2022.
