 Gaussian 16, Revision A.03,
 Gaussian 16:  ES64L-G16RevA.03 25-Dec-2016

 -----------------------------------
 #p cam-b3lyp/Def2SVP td=(nstates=5)
 -----------------------------------

 ----------------------------------------------------
 step_1_chromophore_4 TDDFT with cam-b3lyp functional
 ----------------------------------------------------
 Symbolic Z-matrix:
 Charge =  0 Multiplicity = 1

                         Standard orientation:
 ---------------------------------------------------------------------
 Center     Atomic      Atomic             Coordinates (Angstroms)
 Number     Number       Type             X           Y           Z
 ---------------------------------------------------------------------
      1         12           0        5.826840    0.455700    0.066715
      2          6           0        3.620837   -2.140505    0.218101
      3          6           0        3.077785    2.665719   -0.202417
      4          6           0        7.958262    3.009479   -0.318631
      5          6           0        8.414083   -1.778939    0.400386
      6          7           0        3.642184    0.279546   -0.301830
      7          6           0        2.955259   -0.919704   -0.073809
      8          6           0        1.414807   -0.736923   -0.181295
      9          6           0        1.367050    0.801496   -0.379241
     10          6           0        2.799114    1.304636   -0.359951
     11          6           0        0.569090    1.460621   -1.583746
     12          6           0        0.546756   -1.222915    1.061625
     13          6           0       -0.967817   -0.955319    0.851998
     14          6           0       -1.776551   -2.228219    0.597988
     15          8           0       -1.992356   -3.109132    1.524578
     16          8           0       -2.276073   -2.350380   -0.672700
     17          7           0        5.536147    2.602918   -0.178515
     18          6           0        4.345837    3.279906   -0.021740
     19          6           0        4.659200    4.686376   -0.245454
     20          6           0        6.088145    4.771408   -0.285832
     21          6           0        6.610365    3.441997   -0.238779
     22          6           0        3.587798    5.706320   -0.294737
     23          6           0        6.859480    6.117267   -0.518836
     24          8           0        8.080699    6.180124   -0.767033
     25          6           0        6.108290    7.423086   -0.524969
     26          7           0        7.777189    0.586978    0.016719
     27          6           0        8.506517    1.794588   -0.171805
     28          6           0        9.964376    1.508027   -0.451841
     29          6           0       10.100900    0.150429    0.234803
     30          6           0        8.681205   -0.396211    0.283444
     31          6           0       10.294413    1.453916   -1.981350
     32          6           0       10.617273    0.263507    1.686649
     33          6           0       12.103663    0.320086    1.916715
     34          7           0        6.093660   -1.581724    0.234739
     35          6           0        7.160845   -2.347313    0.514178
     36          6           0        6.753468   -3.718885    0.595880
     37          6           0        5.377551   -3.706648    0.509122
     38          6           0        5.007632   -2.364506    0.330908
     39          6           0        7.716284   -4.827697    0.841761
     40          6           0        4.248653   -4.535036    0.539288
     41          8           0        4.128254   -5.732951    0.709236
     42          6           0        3.018211   -3.529506    0.348334
     43          6           0        2.243317   -3.976944   -0.840180
     44          8           0        2.599679   -3.957104   -1.993173
     45          8           0        0.987281   -4.290606   -0.508717
     46          6           0        0.078345   -4.712037   -1.643394
     47          6           0       -3.386364   -3.285838   -0.712512
     48          6           0       -4.599887   -2.609961   -0.210614
     49          6           0       -5.863653   -3.105921   -0.154671
     50          6           0       -6.339972   -4.513274   -0.481436
     51          6           0       -6.981427   -2.272917    0.529983
     52          6           0       -7.534169   -1.182269   -0.485881
     53          6           0       -7.663977    0.206271    0.078189
     54          6           0       -9.012272    0.916033   -0.095961
     55          6           0       -9.247442    1.165043   -1.628992
     56          6           0       -9.117740    2.221887    0.677262
     57          6           0       -9.661120    1.924246    2.042123
     58          6           0      -10.860033    2.836640    2.459496
     59          6           0      -12.174533    2.073382    2.574319
     60          6           0      -12.806096    2.250535    3.959092
     61          6           0      -13.162683    2.291423    1.382515
     62          6           0      -13.755265    1.067244    0.635242
     63          6           0      -13.167188    0.879918   -0.812193
     64          6           0      -14.220909    1.023074   -1.952541
     65          6           0      -14.806185   -0.352569   -2.447135
     66          6           0      -13.731721    1.737416   -3.146538
     67          1           0        2.185451    3.289932   -0.123268
     68          1           0        8.665522    3.832900   -0.436488
     69          1           0        9.168195   -2.532058    0.636763
     70          1           0        1.070723   -1.238882   -1.085643
     71          1           0        0.928674    1.266755    0.504137
     72          1           0        0.059721    2.400420   -1.368968
     73          1           0       -0.036377    0.703967   -2.083048
     74          1           0        1.350351    1.769427   -2.278147
     75          1           0        0.999361   -0.699341    1.902823
     76          1           0        0.720585   -2.289796    1.201203
     77          1           0       -1.107578   -0.182516    0.096123
     78          1           0       -1.342689   -0.555914    1.793903
     79          1           0        3.527335    6.078174   -1.317740
     80          1           0        3.815919    6.413625    0.502637
     81          1           0        2.629245    5.274990   -0.005877
     82          1           0        6.806978    8.251917   -0.638921
     83          1           0        5.732592    7.511094    0.495370
     84          1           0        5.285391    7.518309   -1.232912
     85          1           0       10.607769    2.268630   -0.008674
     86          1           0       10.732820   -0.549626   -0.311348
     87          1           0        9.919102    0.535774   -2.431625
     88          1           0       11.369250    1.545591   -2.139866
     89          1           0        9.805504    2.327435   -2.411254
     90          1           0       10.219832   -0.512368    2.339756
     91          1           0       10.176733    1.140780    2.160582
     92          1           0       12.303372    1.263934    2.423226
     93          1           0       12.501366    0.451903    0.910337
     94          1           0       12.521258   -0.560550    2.405038
     95          1           0        7.733288   -5.086922    1.899637
     96          1           0        8.719204   -4.747071    0.421406
     97          1           0        7.282642   -5.692719    0.339672
     98          1           0        2.393824   -3.581519    1.240558
     99          1           0        0.160595   -3.947591   -2.416338
    100          1           0       -0.973452   -4.753528   -1.359162
    101          1           0        0.427008   -5.679502   -2.005376
    102          1           0       -3.152666   -4.222888   -0.206075
    103          1           0       -3.453062   -3.413262   -1.793042
    104          1           0       -4.476565   -1.580916    0.126240
    105          1           0       -6.307768   -5.224602    0.343428
    106          1           0       -5.650913   -4.868639   -1.248463
    107          1           0       -7.346550   -4.444119   -0.893553
    108          1           0       -6.466667   -1.828273    1.381363
    109          1           0       -7.901869   -2.785386    0.810291
    110          1           0       -8.475063   -1.598385   -0.846272
    111          1           0       -6.862454   -1.180217   -1.343552
    112          1           0       -6.877124    0.802182   -0.383770
    113          1           0       -7.371814    0.086255    1.121144
    114          1           0       -9.749533    0.130139    0.067936
    115          1           0       -9.575907    2.173901   -1.875257
    116          1           0      -10.016515    0.439649   -1.896480
    117          1           0       -8.335586    0.891069   -2.158531
    118          1           0       -9.607819    3.081670    0.219519
    119          1           0       -8.068506    2.518025    0.681453
    120          1           0       -8.985185    2.162519    2.864050
    121          1           0       -9.937242    0.872583    2.118362
    122          1           0      -11.071611    3.640910    1.755630
    123          1           0      -10.648351    3.393040    3.372940
    124          1           0      -11.919407    1.013974    2.616734
    125          1           0      -12.582936    1.318472    4.479533
    126          1           0      -13.893775    2.218809    3.892215
    127          1           0      -12.445642    2.964405    4.699597
    128          1           0      -12.518604    2.781979    0.653270
    129          1           0      -14.043882    2.881076    1.636882
    130          1           0      -14.841525    1.038601    0.557479
    131          1           0      -13.471489    0.182499    1.205006
    132          1           0      -12.831130   -0.156378   -0.839225
    133          1           0      -12.358040    1.503692   -1.192890
    134          1           0      -15.017289    1.690460   -1.626331
    135          1           0      -15.337283   -0.239038   -3.392063
    136          1           0      -15.544477   -0.743511   -1.747707
    137          1           0      -14.020600   -1.079924   -2.653565
    138          1           0      -12.655983    1.863254   -3.266412
    139          1           0      -14.286021    2.672189   -3.235137
    140          1           0      -13.845717    1.214993   -4.096698
 ---------------------------------------------------------------------

 SCF Done:  E(RCAM-B3LYP) =  -3007.15049124     A.U. after   17 cycles

 Excitation energies and oscillator strengths:

 Excited State   1:      Singlet-A      1.6566 eV  748.43 nm  f=0.3820  <S**2>=0.000
     245 -> 248       -0.16023
     246 -> 247        0.69063
     245 <- 248       -0.10347
 This state for optimization and/or second-order correction.
 Total Energy, E(TD-HF/TD-DFT) =  -3007.08961234
 Copying the excited state density for this state as the 1-particle RhoCI density.

 Excited State   2:      Singlet-A      2.2509 eV  550.82 nm  f=0.1148  <S**2>=0.000
     245 -> 247        0.63793
     246 -> 248        0.28864

 Excited State   3:      Singlet-A      3.1764 eV  390.33 nm  f=0.0020  <S**2>=0.000
     244 -> 247        0.68792

 Excited State   4:      Singlet-A      3.4650 eV  357.82 nm  f=0.0112  <S**2>=0.000
     240 -> 247        0.51537
     240 -> 248       -0.11820
     240 -> 249       -0.27477
     240 -> 250        0.14619
     241 -> 247       -0.22056
     242 -> 247        0.19297
     246 -> 248        0.13063

 Excited State   5:      Singlet-A      3.4831 eV  355.96 nm  f=0.2809  <S**2>=0.000
     240 -> 247       -0.25416
     240 -> 249        0.11644
     241 -> 247       -0.27110
     242 -> 247        0.28180
     245 -> 247       -0.17476
     246 -> 248        0.46861

 The electronic state is 1-A.
 Alpha  occ. eigenvalues --  -46.87577 -19.26634 -19.24779 -19.19990 -19.19355
 Alpha  occ. eigenvalues --  -19.18659 -19.18605 -14.42837 -14.41806 -14.38924
 Alpha  occ. eigenvalues --  -14.38919 -10.40650 -10.38440 -10.35266 -10.34922
 Alpha  occ. eigenvalues --  -10.32586 -10.32199 -10.32011 -10.31423 -10.30679
 Alpha  occ. eigenvalues --  -10.30069 -10.29624 -10.29335 -10.29054 -10.29034
 Alpha  occ. eigenvalues --  -10.28979 -10.28751 -10.28559 -10.28141 -10.28127
 Alpha  occ. eigenvalues --  -10.28022 -10.28000 -10.27850 -10.27660 -10.27552
 Alpha  occ. eigenvalues --  -10.27416 -10.27164 -10.26830 -10.26730 -10.26700
 Alpha  occ. eigenvalues --  -10.26414 -10.26378 -10.26251 -10.26177 -10.26074
 Alpha  occ. eigenvalues --  -10.25883 -10.25781 -10.25612 -10.25588 -10.25560
 Alpha  occ. eigenvalues --  -10.25300 -10.25282 -10.25154 -10.25135 -10.25128
 Alpha  occ. eigenvalues --  -10.25054 -10.24808 -10.24767 -10.24629 -10.24598
 Alpha  occ. eigenvalues --  -10.24539 -10.24516 -10.24313 -10.24271 -10.23895
 Alpha  occ. eigenvalues --  -10.23660  -3.16356  -1.91258  -1.90828  -1.90655
 Alpha  occ. eigenvalues --   -1.16983  -1.16786  -1.10408  -1.08331  -1.07032
 Alpha  occ. eigenvalues --   -1.05498  -1.05454  -1.04054  -1.03162  -1.02030
 Alpha  occ. eigenvalues --   -0.93370  -0.90979  -0.90130  -0.89678  -0.89133
 Alpha  occ. eigenvalues --   -0.88998  -0.88775  -0.87982  -0.87956  -0.87244
 Alpha  occ. eigenvalues --   -0.86648  -0.85736  -0.84667  -0.84208  -0.83576
 Alpha  occ. eigenvalues --   -0.82767  -0.82174  -0.81525  -0.81237  -0.80703
 Alpha  occ. eigenvalues --   -0.80099  -0.78823  -0.78115  -0.77532  -0.76410
 Alpha  occ. eigenvalues --   -0.75915  -0.75359  -0.75230  -0.75060  -0.74603
 Alpha  occ. eigenvalues --   -0.73974  -0.73276  -0.71982  -0.71024  -0.69357
 Alpha  occ. eigenvalues --   -0.68868  -0.68382  -0.67163  -0.66479  -0.65946
 Alpha  occ. eigenvalues --   -0.65567  -0.65041  -0.64752  -0.64546  -0.64068
 Alpha  occ. eigenvalues --   -0.63529  -0.63314  -0.62713  -0.62006  -0.61117
 Alpha  occ. eigenvalues --   -0.60292  -0.60182  -0.59646  -0.59166  -0.58457
 Alpha  occ. eigenvalues --   -0.58086  -0.57918  -0.56618  -0.55987  -0.55828
 Alpha  occ. eigenvalues --   -0.55197  -0.55021  -0.54702  -0.54349  -0.53859
 Alpha  occ. eigenvalues --   -0.53538  -0.53506  -0.53293  -0.52985  -0.52755
 Alpha  occ. eigenvalues --   -0.52675  -0.52454  -0.52315  -0.51890  -0.51759
 Alpha  occ. eigenvalues --   -0.51684  -0.51474  -0.51331  -0.51062  -0.50851
 Alpha  occ. eigenvalues --   -0.50487  -0.50311  -0.50048  -0.49980  -0.49824
 Alpha  occ. eigenvalues --   -0.49655  -0.49539  -0.49310  -0.49058  -0.48927
 Alpha  occ. eigenvalues --   -0.48661  -0.48426  -0.48308  -0.48131  -0.47823
 Alpha  occ. eigenvalues --   -0.47761  -0.47512  -0.47294  -0.47144  -0.47112
 Alpha  occ. eigenvalues --   -0.46899  -0.46783  -0.46549  -0.46342  -0.46212
 Alpha  occ. eigenvalues --   -0.46124  -0.46002  -0.45487  -0.45361  -0.45265
 Alpha  occ. eigenvalues --   -0.44959  -0.44727  -0.44437  -0.44087  -0.43931
 Alpha  occ. eigenvalues --   -0.43798  -0.43760  -0.43746  -0.43610  -0.43367
 Alpha  occ. eigenvalues --   -0.42940  -0.42621  -0.42244  -0.41919  -0.41810
 Alpha  occ. eigenvalues --   -0.41734  -0.41559  -0.41374  -0.41361  -0.41027
 Alpha  occ. eigenvalues --   -0.40945  -0.40757  -0.40676  -0.40606  -0.40533
 Alpha  occ. eigenvalues --   -0.40238  -0.40057  -0.40002  -0.39045  -0.38552
 Alpha  occ. eigenvalues --   -0.38513  -0.37753  -0.37615  -0.37452  -0.37129
 Alpha  occ. eigenvalues --   -0.36934  -0.36865  -0.36728  -0.36523  -0.36346
 Alpha  occ. eigenvalues --   -0.35664  -0.35473  -0.34847  -0.34536  -0.34360
 Alpha  occ. eigenvalues --   -0.34080  -0.33931  -0.33317  -0.31527  -0.31225
 Alpha  occ. eigenvalues --   -0.30696  -0.30530  -0.29851  -0.29162  -0.24676
 Alpha  occ. eigenvalues --   -0.21198
 Alpha virt. eigenvalues --   -0.09128  -0.01654   0.00364   0.02339   0.02561
 Alpha virt. eigenvalues --    0.03367   0.04645   0.05118   0.06235   0.06587
 Alpha virt. eigenvalues --    0.07834   0.08015   0.08556   0.08905   0.08962

 Mulliken charges:
               1
     1  Mg   0.829285
     2  C    0.007178
     3  C   -0.060026
     4  C   -0.069023
     5  C   -0.093286
     6  N   -0.267497
     7  C   -0.043206
     8  C    0.014748
     9  C   -0.105141
    10  C    0.040626
    11  C    0.061792
    12  C    0.032935
    13  C    0.112515
    14  C    0.170889
    15  O   -0.296932
    16  O   -0.325194
    17  N   -0.358657
    18  C    0.139268
    19  C   -0.202997
    20  C   -0.035879
    21  C    0.110428
    22  C    0.139580
    23  C    0.019292
    24  O   -0.225492
    25  C    0.055972
    26  N   -0.391465
    27  C    0.083645
    28  C   -0.019389
    29  C   -0.020754
    30  C    0.118652
    31  C    0.088210
    32  C   -0.005072
    33  C    0.053337
    34  N   -0.339688
    35  C    0.089891
    36  C   -0.167861
    37  C    0.069895
    38  C    0.103073
    39  C    0.107898
    40  C    0.019309
    41  O   -0.151716
    42  C   -0.056907
    43  C    0.179697
    44  O   -0.217634
    45  O   -0.331477
    46  C    0.184543
    47  C    0.280412
    48  C   -0.121325
    49  C   -0.187761
    50  C    0.087906
    51  C    0.042164
    52  C   -0.006726
    53  C    0.057382
    54  C   -0.178139
    55  C    0.046659
    56  C    0.114809
    57  C    0.042042
    58  C    0.034773
    59  C   -0.129457
    60  C    0.048834
    61  C    0.071103
    62  C    0.026609
    63  C    0.043627
    64  C   -0.149509
    65  C    0.033642
    66  C    0.031016
    67  H   -0.027819
    68  H   -0.006432
    69  H   -0.026516
    70  H    0.018925
    71  H    0.009649
    72  H    0.020249
    73  H    0.025197
    74  H    0.016484
    75  H    0.009478
    76  H    0.047592
    77  H    0.016121
    78  H    0.037738
    79  H    0.042946
    80  H    0.027854
    81  H    0.000830
    82  H    0.024539
    83  H    0.024925
    84  H    0.039951
    85  H    0.000379
    86  H   -0.003653
    87  H    0.020489
    88  H    0.019386
    89  H    0.019150
    90  H   -0.002277
    91  H   -0.003785
    92  H    0.012789
    93  H   -0.002501
    94  H    0.028937
    95  H    0.038969
    96  H    0.023643
    97  H    0.027815
    98  H    0.050111
    99  H    0.040426
   100  H    0.035481
   101  H    0.048780
   102  H    0.063392
   103  H    0.026135
   104  H    0.002286
   105  H    0.045962
   106  H    0.002220
   107  H    0.016442
   108  H    0.024713
   109  H    0.004756
   110  H   -0.007627
   111  H    0.005116
   112  H   -0.005677
   113  H   -0.013403
   114  H   -0.005406
   115  H    0.015104
   116  H    0.005954
   117  H    0.000703
   118  H   -0.002519
   119  H   -0.017031
   120  H   -0.004893
   121  H    0.006917
   122  H   -0.013780
   123  H   -0.014507
   124  H   -0.007136
   125  H   -0.013603
   126  H   -0.004210
   127  H    0.012344
   128  H   -0.008996
   129  H    0.000969
   130  H    0.001903
   131  H   -0.011548
   132  H   -0.010227
   133  H    0.005339
   134  H   -0.007459
   135  H    0.004977
   136  H    0.004656
   137  H    0.009629
   138  H   -0.003402
   139  H    0.011086
   140  H   -0.010452
 Sum of Mulliken charges =  -0.00000

 Dipole moment (field-independent basis, Debye):
    X=             -3.3950    Y=              2.9106    Z=              0.4829  Tot=              4.4979
 Quadrupole moment (field-independent basis, Debye-Ang):
   XX=           -384.7722   YY=           -428.2816   ZZ=           -411.7356
   XY=             -4.2642   XZ=             19.8675   YZ=             10.4037

 Normal termination of Gaussian 16 at Wed May  4 15:34:35 2022.
