 Gaussian 16, Revision A.03,
 Gaussian 16:  ES64L-G16RevA.03 25-Dec-2016

 ---------------------------------
 #p PBE1PBE/Def2SVP td=(nstates=5)
 ---------------------------------

 --------------------------------------------------
 step_1_chromophore_4 TDDFT with PBE1PBE functional
 --------------------------------------------------
 Symbolic Z-matrix:
 Charge =  0 Multiplicity = 1

                         Standard orientation:
 ---------------------------------------------------------------------
 Center     Atomic      Atomic             Coordinates (Angstroms)
 Number     Number       Type             X           Y           Z
 ---------------------------------------------------------------------
      1         12           0        5.826840    0.455700    0.066715
      2          6           0        3.620837   -2.140505    0.218101
      3          6           0        3.077785    2.665719   -0.202417
      4          6           0        7.958262    3.009479   -0.318631
      5          6           0        8.414083   -1.778939    0.400386
      6          7           0        3.642184    0.279546   -0.301830
      7          6           0        2.955259   -0.919704   -0.073809
      8          6           0        1.414807   -0.736923   -0.181295
      9          6           0        1.367050    0.801496   -0.379241
     10          6           0        2.799114    1.304636   -0.359951
     11          6           0        0.569090    1.460621   -1.583746
     12          6           0        0.546756   -1.222915    1.061625
     13          6           0       -0.967817   -0.955319    0.851998
     14          6           0       -1.776551   -2.228219    0.597988
     15          8           0       -1.992356   -3.109132    1.524578
     16          8           0       -2.276073   -2.350380   -0.672700
     17          7           0        5.536147    2.602918   -0.178515
     18          6           0        4.345837    3.279906   -0.021740
     19          6           0        4.659200    4.686376   -0.245454
     20          6           0        6.088145    4.771408   -0.285832
     21          6           0        6.610365    3.441997   -0.238779
     22          6           0        3.587798    5.706320   -0.294737
     23          6           0        6.859480    6.117267   -0.518836
     24          8           0        8.080699    6.180124   -0.767033
     25          6           0        6.108290    7.423086   -0.524969
     26          7           0        7.777189    0.586978    0.016719
     27          6           0        8.506517    1.794588   -0.171805
     28          6           0        9.964376    1.508027   -0.451841
     29          6           0       10.100900    0.150429    0.234803
     30          6           0        8.681205   -0.396211    0.283444
     31          6           0       10.294413    1.453916   -1.981350
     32          6           0       10.617273    0.263507    1.686649
     33          6           0       12.103663    0.320086    1.916715
     34          7           0        6.093660   -1.581724    0.234739
     35          6           0        7.160845   -2.347313    0.514178
     36          6           0        6.753468   -3.718885    0.595880
     37          6           0        5.377551   -3.706648    0.509122
     38          6           0        5.007632   -2.364506    0.330908
     39          6           0        7.716284   -4.827697    0.841761
     40          6           0        4.248653   -4.535036    0.539288
     41          8           0        4.128254   -5.732951    0.709236
     42          6           0        3.018211   -3.529506    0.348334
     43          6           0        2.243317   -3.976944   -0.840180
     44          8           0        2.599679   -3.957104   -1.993173
     45          8           0        0.987281   -4.290606   -0.508717
     46          6           0        0.078345   -4.712037   -1.643394
     47          6           0       -3.386364   -3.285838   -0.712512
     48          6           0       -4.599887   -2.609961   -0.210614
     49          6           0       -5.863653   -3.105921   -0.154671
     50          6           0       -6.339972   -4.513274   -0.481436
     51          6           0       -6.981427   -2.272917    0.529983
     52          6           0       -7.534169   -1.182269   -0.485881
     53          6           0       -7.663977    0.206271    0.078189
     54          6           0       -9.012272    0.916033   -0.095961
     55          6           0       -9.247442    1.165043   -1.628992
     56          6           0       -9.117740    2.221887    0.677262
     57          6           0       -9.661120    1.924246    2.042123
     58          6           0      -10.860033    2.836640    2.459496
     59          6           0      -12.174533    2.073382    2.574319
     60          6           0      -12.806096    2.250535    3.959092
     61          6           0      -13.162683    2.291423    1.382515
     62          6           0      -13.755265    1.067244    0.635242
     63          6           0      -13.167188    0.879918   -0.812193
     64          6           0      -14.220909    1.023074   -1.952541
     65          6           0      -14.806185   -0.352569   -2.447135
     66          6           0      -13.731721    1.737416   -3.146538
     67          1           0        2.185451    3.289932   -0.123268
     68          1           0        8.665522    3.832900   -0.436488
     69          1           0        9.168195   -2.532058    0.636763
     70          1           0        1.070723   -1.238882   -1.085643
     71          1           0        0.928674    1.266755    0.504137
     72          1           0        0.059721    2.400420   -1.368968
     73          1           0       -0.036377    0.703967   -2.083048
     74          1           0        1.350351    1.769427   -2.278147
     75          1           0        0.999361   -0.699341    1.902823
     76          1           0        0.720585   -2.289796    1.201203
     77          1           0       -1.107578   -0.182516    0.096123
     78          1           0       -1.342689   -0.555914    1.793903
     79          1           0        3.527335    6.078174   -1.317740
     80          1           0        3.815919    6.413625    0.502637
     81          1           0        2.629245    5.274990   -0.005877
     82          1           0        6.806978    8.251917   -0.638921
     83          1           0        5.732592    7.511094    0.495370
     84          1           0        5.285391    7.518309   -1.232912
     85          1           0       10.607769    2.268630   -0.008674
     86          1           0       10.732820   -0.549626   -0.311348
     87          1           0        9.919102    0.535774   -2.431625
     88          1           0       11.369250    1.545591   -2.139866
     89          1           0        9.805504    2.327435   -2.411254
     90          1           0       10.219832   -0.512368    2.339756
     91          1           0       10.176733    1.140780    2.160582
     92          1           0       12.303372    1.263934    2.423226
     93          1           0       12.501366    0.451903    0.910337
     94          1           0       12.521258   -0.560550    2.405038
     95          1           0        7.733288   -5.086922    1.899637
     96          1           0        8.719204   -4.747071    0.421406
     97          1           0        7.282642   -5.692719    0.339672
     98          1           0        2.393824   -3.581519    1.240558
     99          1           0        0.160595   -3.947591   -2.416338
    100          1           0       -0.973452   -4.753528   -1.359162
    101          1           0        0.427008   -5.679502   -2.005376
    102          1           0       -3.152666   -4.222888   -0.206075
    103          1           0       -3.453062   -3.413262   -1.793042
    104          1           0       -4.476565   -1.580916    0.126240
    105          1           0       -6.307768   -5.224602    0.343428
    106          1           0       -5.650913   -4.868639   -1.248463
    107          1           0       -7.346550   -4.444119   -0.893553
    108          1           0       -6.466667   -1.828273    1.381363
    109          1           0       -7.901869   -2.785386    0.810291
    110          1           0       -8.475063   -1.598385   -0.846272
    111          1           0       -6.862454   -1.180217   -1.343552
    112          1           0       -6.877124    0.802182   -0.383770
    113          1           0       -7.371814    0.086255    1.121144
    114          1           0       -9.749533    0.130139    0.067936
    115          1           0       -9.575907    2.173901   -1.875257
    116          1           0      -10.016515    0.439649   -1.896480
    117          1           0       -8.335586    0.891069   -2.158531
    118          1           0       -9.607819    3.081670    0.219519
    119          1           0       -8.068506    2.518025    0.681453
    120          1           0       -8.985185    2.162519    2.864050
    121          1           0       -9.937242    0.872583    2.118362
    122          1           0      -11.071611    3.640910    1.755630
    123          1           0      -10.648351    3.393040    3.372940
    124          1           0      -11.919407    1.013974    2.616734
    125          1           0      -12.582936    1.318472    4.479533
    126          1           0      -13.893775    2.218809    3.892215
    127          1           0      -12.445642    2.964405    4.699597
    128          1           0      -12.518604    2.781979    0.653270
    129          1           0      -14.043882    2.881076    1.636882
    130          1           0      -14.841525    1.038601    0.557479
    131          1           0      -13.471489    0.182499    1.205006
    132          1           0      -12.831130   -0.156378   -0.839225
    133          1           0      -12.358040    1.503692   -1.192890
    134          1           0      -15.017289    1.690460   -1.626331
    135          1           0      -15.337283   -0.239038   -3.392063
    136          1           0      -15.544477   -0.743511   -1.747707
    137          1           0      -14.020600   -1.079924   -2.653565
    138          1           0      -12.655983    1.863254   -3.266412
    139          1           0      -14.286021    2.672189   -3.235137
    140          1           0      -13.845717    1.214993   -4.096698
 ---------------------------------------------------------------------

 SCF Done:  E(RPBE1PBE) =  -3005.33920770     A.U. after   16 cycles

 Excitation energies and oscillator strengths:

 Excited State   1:      Singlet-A      1.8136 eV  683.63 nm  f=0.3649  <S**2>=0.000
     245 -> 248       -0.15512
     246 -> 247        0.69926
     246 <- 247       -0.12444
 This state for optimization and/or second-order correction.
 Total Energy, E(TD-HF/TD-DFT) =  -3005.27255835
 Copying the excited state density for this state as the 1-particle RhoCI density.

 Excited State   2:      Singlet-A      2.2539 eV  550.09 nm  f=0.1129  <S**2>=0.000
     245 -> 247        0.64827
     246 -> 248        0.26445

 Excited State   3:      Singlet-A      2.8258 eV  438.75 nm  f=0.0044  <S**2>=0.000
     244 -> 247        0.69845

 Excited State   4:      Singlet-A      2.9817 eV  415.82 nm  f=0.0007  <S**2>=0.000
     240 -> 247        0.12211
     241 -> 247        0.66505
     241 -> 249       -0.15333

 Excited State   5:      Singlet-A      3.0214 eV  410.35 nm  f=0.0000  <S**2>=0.000
     242 -> 247        0.68342
     242 -> 249        0.12304

 The electronic state is 1-A.
 Alpha  occ. eigenvalues --  -46.90973 -19.27306 -19.25335 -19.20348 -19.19452
 Alpha  occ. eigenvalues --  -19.18934 -19.18791 -14.42258 -14.41429 -14.38663
 Alpha  occ. eigenvalues --  -14.38511 -10.37744 -10.35349 -10.32530 -10.31931
 Alpha  occ. eigenvalues --  -10.29983 -10.29902 -10.29177 -10.29086 -10.28484
 Alpha  occ. eigenvalues --  -10.27898 -10.27395 -10.27221 -10.26767 -10.26610
 Alpha  occ. eigenvalues --  -10.26578 -10.26267 -10.26238 -10.25836 -10.25736
 Alpha  occ. eigenvalues --  -10.25669 -10.25648 -10.25560 -10.25332 -10.25263
 Alpha  occ. eigenvalues --  -10.25167 -10.24984 -10.24605 -10.24337 -10.24223
 Alpha  occ. eigenvalues --  -10.24072 -10.23790 -10.23734 -10.23665 -10.23523
 Alpha  occ. eigenvalues --  -10.23315 -10.23313 -10.23262 -10.23242 -10.23228
 Alpha  occ. eigenvalues --  -10.22956 -10.22849 -10.22840 -10.22674 -10.22587
 Alpha  occ. eigenvalues --  -10.22542 -10.22357 -10.22329 -10.22183 -10.22136
 Alpha  occ. eigenvalues --  -10.22076 -10.21913 -10.21896 -10.21682 -10.21285
 Alpha  occ. eigenvalues --  -10.21044  -3.13327  -1.86172  -1.85720  -1.85548
 Alpha  occ. eigenvalues --   -1.11807  -1.11478  -1.05034  -1.03146  -1.01769
 Alpha  occ. eigenvalues --   -1.00278  -1.00104  -0.98649  -0.97793  -0.96789
 Alpha  occ. eigenvalues --   -0.87642  -0.85082  -0.84277  -0.83829  -0.83434
 Alpha  occ. eigenvalues --   -0.83165  -0.83111  -0.82267  -0.82079  -0.81555
 Alpha  occ. eigenvalues --   -0.80970  -0.79992  -0.78875  -0.78485  -0.77867
 Alpha  occ. eigenvalues --   -0.76972  -0.76429  -0.75726  -0.75489  -0.74977
 Alpha  occ. eigenvalues --   -0.74254  -0.73080  -0.72463  -0.71845  -0.70679
 Alpha  occ. eigenvalues --   -0.70104  -0.69724  -0.69321  -0.69191  -0.68753
 Alpha  occ. eigenvalues --   -0.68287  -0.67680  -0.66396  -0.65363  -0.63823
 Alpha  occ. eigenvalues --   -0.63084  -0.62729  -0.61421  -0.60874  -0.60447
 Alpha  occ. eigenvalues --   -0.59769  -0.59490  -0.59251  -0.59124  -0.58315
 Alpha  occ. eigenvalues --   -0.57891  -0.57527  -0.56885  -0.56528  -0.55422
 Alpha  occ. eigenvalues --   -0.54848  -0.54695  -0.54234  -0.53762  -0.53034
 Alpha  occ. eigenvalues --   -0.52443  -0.52368  -0.51211  -0.50410  -0.50378
 Alpha  occ. eigenvalues --   -0.49752  -0.49548  -0.49215  -0.48891  -0.48328
 Alpha  occ. eigenvalues --   -0.48054  -0.47992  -0.47873  -0.47435  -0.47290
 Alpha  occ. eigenvalues --   -0.47212  -0.46960  -0.46835  -0.46452  -0.46320
 Alpha  occ. eigenvalues --   -0.46214  -0.45992  -0.45891  -0.45619  -0.45340
 Alpha  occ. eigenvalues --   -0.45078  -0.44937  -0.44644  -0.44566  -0.44389
 Alpha  occ. eigenvalues --   -0.44243  -0.44047  -0.43900  -0.43652  -0.43550
 Alpha  occ. eigenvalues --   -0.43226  -0.43073  -0.42969  -0.42772  -0.42412
 Alpha  occ. eigenvalues --   -0.42389  -0.42170  -0.42003  -0.41774  -0.41682
 Alpha  occ. eigenvalues --   -0.41568  -0.41406  -0.41345  -0.40984  -0.40877
 Alpha  occ. eigenvalues --   -0.40784  -0.40730  -0.40145  -0.40082  -0.39948
 Alpha  occ. eigenvalues --   -0.39644  -0.39415  -0.39219  -0.38839  -0.38715
 Alpha  occ. eigenvalues --   -0.38586  -0.38522  -0.38442  -0.38369  -0.38237
 Alpha  occ. eigenvalues --   -0.37780  -0.37381  -0.37054  -0.36798  -0.36720
 Alpha  occ. eigenvalues --   -0.36550  -0.36373  -0.36203  -0.36098  -0.35879
 Alpha  occ. eigenvalues --   -0.35820  -0.35611  -0.35548  -0.35493  -0.35285
 Alpha  occ. eigenvalues --   -0.35135  -0.34895  -0.34775  -0.33808  -0.33436
 Alpha  occ. eigenvalues --   -0.33301  -0.32598  -0.32556  -0.32259  -0.32096
 Alpha  occ. eigenvalues --   -0.31935  -0.31737  -0.31688  -0.31398  -0.31286
 Alpha  occ. eigenvalues --   -0.30552  -0.30301  -0.29754  -0.29583  -0.29397
 Alpha  occ. eigenvalues --   -0.29191  -0.28817  -0.28406  -0.27124  -0.26231
 Alpha  occ. eigenvalues --   -0.25963  -0.25463  -0.25138  -0.24874  -0.21530
 Alpha  occ. eigenvalues --   -0.18862
 Alpha virt. eigenvalues --   -0.11572  -0.05215  -0.03879  -0.02093  -0.02045
 Alpha virt. eigenvalues --    0.00218   0.00308   0.01305   0.01655   0.02966
 Alpha virt. eigenvalues --    0.03734   0.04348   0.04697   0.05277   0.05630

 Mulliken charges:
               1
     1  Mg   0.984146
     2  C   -0.002608
     3  C   -0.064264
     4  C   -0.057973
     5  C   -0.079318
     6  N   -0.378326
     7  C    0.030873
     8  C   -0.052008
     9  C   -0.178114
    10  C    0.082591
    11  C    0.000089
    12  C   -0.023351
    13  C    0.033699
    14  C    0.231755
    15  O   -0.323619
    16  O   -0.354526
    17  N   -0.467612
    18  C    0.183170
    19  C   -0.230218
    20  C   -0.081900
    21  C    0.143948
    22  C    0.068341
    23  C    0.072996
    24  O   -0.260874
    25  C   -0.020556
    26  N   -0.495896
    27  C    0.107333
    28  C   -0.092866
    29  C   -0.112918
    30  C    0.149475
    31  C    0.031480
    32  C   -0.051815
    33  C   -0.020207
    34  N   -0.465654
    35  C    0.114106
    36  C   -0.182836
    37  C    0.009426
    38  C    0.151523
    39  C    0.057218
    40  C    0.119561
    41  O   -0.201447
    42  C   -0.171779
    43  C    0.277525
    44  O   -0.254537
    45  O   -0.365278
    46  C    0.123964
    47  C    0.230563
    48  C   -0.123309
    49  C   -0.234900
    50  C    0.024550
    51  C   -0.020985
    52  C   -0.061338
    53  C    0.002494
    54  C   -0.271224
    55  C   -0.010997
    56  C    0.060809
    57  C   -0.021671
    58  C   -0.017280
    59  C   -0.212741
    60  C   -0.008423
    61  C    0.014151
    62  C   -0.036378
    63  C   -0.013639
    64  C   -0.241227
    65  C   -0.030268
    66  C   -0.024434
    67  H    0.002967
    68  H    0.025144
    69  H    0.005134
    70  H    0.058569
    71  H    0.048659
    72  H    0.046635
    73  H    0.052142
    74  H    0.046195
    75  H    0.041587
    76  H    0.084254
    77  H    0.050745
    78  H    0.070491
    79  H    0.071365
    80  H    0.056845
    81  H    0.030706
    82  H    0.052978
    83  H    0.053107
    84  H    0.066206
    85  H    0.036301
    86  H    0.032379
    87  H    0.048508
    88  H    0.047811
    89  H    0.048179
    90  H    0.031652
    91  H    0.029319
    92  H    0.040709
    93  H    0.026627
    94  H    0.055832
    95  H    0.066554
    96  H    0.047943
    97  H    0.055960
    98  H    0.087032
    99  H    0.061160
   100  H    0.062239
   101  H    0.070691
   102  H    0.088341
   103  H    0.053001
   104  H    0.032279
   105  H    0.072683
   106  H    0.030673
   107  H    0.044292
   108  H    0.056020
   109  H    0.036634
   110  H    0.023979
   111  H    0.037983
   112  H    0.027177
   113  H    0.020448
   114  H    0.033466
   115  H    0.041184
   116  H    0.033607
   117  H    0.029276
   118  H    0.026905
   119  H    0.016923
   120  H    0.028240
   121  H    0.037522
   122  H    0.017799
   123  H    0.017755
   124  H    0.031386
   125  H    0.014541
   126  H    0.024042
   127  H    0.038202
   128  H    0.025999
   129  H    0.032520
   130  H    0.033157
   131  H    0.021490
   132  H    0.022548
   133  H    0.040429
   134  H    0.030348
   135  H    0.032934
   136  H    0.033056
   137  H    0.036846
   138  H    0.022524
   139  H    0.038138
   140  H    0.016557
 Sum of Mulliken charges =  -0.00000

 Dipole moment (field-independent basis, Debye):
    X=             -3.2761    Y=              3.1523    Z=              0.4373  Tot=              4.5674
 Quadrupole moment (field-independent basis, Debye-Ang):
   XX=           -378.3266   YY=           -425.5220   ZZ=           -409.2715
   XY=             -3.0987   XZ=             19.8082   YZ=             10.3341

 Normal termination of Gaussian 16 at Wed May  4 15:51:36 2022.
