 Gaussian 16, Revision A.03,
 Gaussian 16:  ES64L-G16RevA.03 25-Dec-2016

 --------------------------------
 #p wB97XD/Def2SVP td=(nstates=5)
 --------------------------------

 -------------------------------------------------
 step_1_chromophore_4 TDDFT with wB97XD functional
 -------------------------------------------------
 Symbolic Z-matrix:
 Charge =  0 Multiplicity = 1

                         Standard orientation:
 ---------------------------------------------------------------------
 Center     Atomic      Atomic             Coordinates (Angstroms)
 Number     Number       Type             X           Y           Z
 ---------------------------------------------------------------------
      1         12           0        5.826840    0.455700    0.066715
      2          6           0        3.620837   -2.140505    0.218101
      3          6           0        3.077785    2.665719   -0.202417
      4          6           0        7.958262    3.009479   -0.318631
      5          6           0        8.414083   -1.778939    0.400386
      6          7           0        3.642184    0.279546   -0.301830
      7          6           0        2.955259   -0.919704   -0.073809
      8          6           0        1.414807   -0.736923   -0.181295
      9          6           0        1.367050    0.801496   -0.379241
     10          6           0        2.799114    1.304636   -0.359951
     11          6           0        0.569090    1.460621   -1.583746
     12          6           0        0.546756   -1.222915    1.061625
     13          6           0       -0.967817   -0.955319    0.851998
     14          6           0       -1.776551   -2.228219    0.597988
     15          8           0       -1.992356   -3.109132    1.524578
     16          8           0       -2.276073   -2.350380   -0.672700
     17          7           0        5.536147    2.602918   -0.178515
     18          6           0        4.345837    3.279906   -0.021740
     19          6           0        4.659200    4.686376   -0.245454
     20          6           0        6.088145    4.771408   -0.285832
     21          6           0        6.610365    3.441997   -0.238779
     22          6           0        3.587798    5.706320   -0.294737
     23          6           0        6.859480    6.117267   -0.518836
     24          8           0        8.080699    6.180124   -0.767033
     25          6           0        6.108290    7.423086   -0.524969
     26          7           0        7.777189    0.586978    0.016719
     27          6           0        8.506517    1.794588   -0.171805
     28          6           0        9.964376    1.508027   -0.451841
     29          6           0       10.100900    0.150429    0.234803
     30          6           0        8.681205   -0.396211    0.283444
     31          6           0       10.294413    1.453916   -1.981350
     32          6           0       10.617273    0.263507    1.686649
     33          6           0       12.103663    0.320086    1.916715
     34          7           0        6.093660   -1.581724    0.234739
     35          6           0        7.160845   -2.347313    0.514178
     36          6           0        6.753468   -3.718885    0.595880
     37          6           0        5.377551   -3.706648    0.509122
     38          6           0        5.007632   -2.364506    0.330908
     39          6           0        7.716284   -4.827697    0.841761
     40          6           0        4.248653   -4.535036    0.539288
     41          8           0        4.128254   -5.732951    0.709236
     42          6           0        3.018211   -3.529506    0.348334
     43          6           0        2.243317   -3.976944   -0.840180
     44          8           0        2.599679   -3.957104   -1.993173
     45          8           0        0.987281   -4.290606   -0.508717
     46          6           0        0.078345   -4.712037   -1.643394
     47          6           0       -3.386364   -3.285838   -0.712512
     48          6           0       -4.599887   -2.609961   -0.210614
     49          6           0       -5.863653   -3.105921   -0.154671
     50          6           0       -6.339972   -4.513274   -0.481436
     51          6           0       -6.981427   -2.272917    0.529983
     52          6           0       -7.534169   -1.182269   -0.485881
     53          6           0       -7.663977    0.206271    0.078189
     54          6           0       -9.012272    0.916033   -0.095961
     55          6           0       -9.247442    1.165043   -1.628992
     56          6           0       -9.117740    2.221887    0.677262
     57          6           0       -9.661120    1.924246    2.042123
     58          6           0      -10.860033    2.836640    2.459496
     59          6           0      -12.174533    2.073382    2.574319
     60          6           0      -12.806096    2.250535    3.959092
     61          6           0      -13.162683    2.291423    1.382515
     62          6           0      -13.755265    1.067244    0.635242
     63          6           0      -13.167188    0.879918   -0.812193
     64          6           0      -14.220909    1.023074   -1.952541
     65          6           0      -14.806185   -0.352569   -2.447135
     66          6           0      -13.731721    1.737416   -3.146538
     67          1           0        2.185451    3.289932   -0.123268
     68          1           0        8.665522    3.832900   -0.436488
     69          1           0        9.168195   -2.532058    0.636763
     70          1           0        1.070723   -1.238882   -1.085643
     71          1           0        0.928674    1.266755    0.504137
     72          1           0        0.059721    2.400420   -1.368968
     73          1           0       -0.036377    0.703967   -2.083048
     74          1           0        1.350351    1.769427   -2.278147
     75          1           0        0.999361   -0.699341    1.902823
     76          1           0        0.720585   -2.289796    1.201203
     77          1           0       -1.107578   -0.182516    0.096123
     78          1           0       -1.342689   -0.555914    1.793903
     79          1           0        3.527335    6.078174   -1.317740
     80          1           0        3.815919    6.413625    0.502637
     81          1           0        2.629245    5.274990   -0.005877
     82          1           0        6.806978    8.251917   -0.638921
     83          1           0        5.732592    7.511094    0.495370
     84          1           0        5.285391    7.518309   -1.232912
     85          1           0       10.607769    2.268630   -0.008674
     86          1           0       10.732820   -0.549626   -0.311348
     87          1           0        9.919102    0.535774   -2.431625
     88          1           0       11.369250    1.545591   -2.139866
     89          1           0        9.805504    2.327435   -2.411254
     90          1           0       10.219832   -0.512368    2.339756
     91          1           0       10.176733    1.140780    2.160582
     92          1           0       12.303372    1.263934    2.423226
     93          1           0       12.501366    0.451903    0.910337
     94          1           0       12.521258   -0.560550    2.405038
     95          1           0        7.733288   -5.086922    1.899637
     96          1           0        8.719204   -4.747071    0.421406
     97          1           0        7.282642   -5.692719    0.339672
     98          1           0        2.393824   -3.581519    1.240558
     99          1           0        0.160595   -3.947591   -2.416338
    100          1           0       -0.973452   -4.753528   -1.359162
    101          1           0        0.427008   -5.679502   -2.005376
    102          1           0       -3.152666   -4.222888   -0.206075
    103          1           0       -3.453062   -3.413262   -1.793042
    104          1           0       -4.476565   -1.580916    0.126240
    105          1           0       -6.307768   -5.224602    0.343428
    106          1           0       -5.650913   -4.868639   -1.248463
    107          1           0       -7.346550   -4.444119   -0.893553
    108          1           0       -6.466667   -1.828273    1.381363
    109          1           0       -7.901869   -2.785386    0.810291
    110          1           0       -8.475063   -1.598385   -0.846272
    111          1           0       -6.862454   -1.180217   -1.343552
    112          1           0       -6.877124    0.802182   -0.383770
    113          1           0       -7.371814    0.086255    1.121144
    114          1           0       -9.749533    0.130139    0.067936
    115          1           0       -9.575907    2.173901   -1.875257
    116          1           0      -10.016515    0.439649   -1.896480
    117          1           0       -8.335586    0.891069   -2.158531
    118          1           0       -9.607819    3.081670    0.219519
    119          1           0       -8.068506    2.518025    0.681453
    120          1           0       -8.985185    2.162519    2.864050
    121          1           0       -9.937242    0.872583    2.118362
    122          1           0      -11.071611    3.640910    1.755630
    123          1           0      -10.648351    3.393040    3.372940
    124          1           0      -11.919407    1.013974    2.616734
    125          1           0      -12.582936    1.318472    4.479533
    126          1           0      -13.893775    2.218809    3.892215
    127          1           0      -12.445642    2.964405    4.699597
    128          1           0      -12.518604    2.781979    0.653270
    129          1           0      -14.043882    2.881076    1.636882
    130          1           0      -14.841525    1.038601    0.557479
    131          1           0      -13.471489    0.182499    1.205006
    132          1           0      -12.831130   -0.156378   -0.839225
    133          1           0      -12.358040    1.503692   -1.192890
    134          1           0      -15.017289    1.690460   -1.626331
    135          1           0      -15.337283   -0.239038   -3.392063
    136          1           0      -15.544477   -0.743511   -1.747707
    137          1           0      -14.020600   -1.079924   -2.653565
    138          1           0      -12.655983    1.863254   -3.266412
    139          1           0      -14.286021    2.672189   -3.235137
    140          1           0      -13.845717    1.214993   -4.096698
 ---------------------------------------------------------------------

 SCF Done:  E(RwB97XD) =  -3007.85020402     A.U. after   17 cycles

 Excitation energies and oscillator strengths:

 Excited State   1:      Singlet-A      1.6006 eV  774.63 nm  f=0.3814  <S**2>=0.000
     245 -> 248       -0.16575
     246 -> 247        0.68815
     245 <- 248       -0.11196
 This state for optimization and/or second-order correction.
 Total Energy, E(TD-HF/TD-DFT) =  -3007.79138471
 Copying the excited state density for this state as the 1-particle RhoCI density.

 Excited State   2:      Singlet-A      2.1950 eV  564.84 nm  f=0.1121  <S**2>=0.000
     245 -> 247        0.63674
     246 -> 248        0.28983

 Excited State   3:      Singlet-A      3.2175 eV  385.34 nm  f=0.0018  <S**2>=0.000
     244 -> 247        0.67664

 Excited State   4:      Singlet-A      3.4832 eV  355.95 nm  f=0.1183  <S**2>=0.000
     240 -> 247       -0.33426
     240 -> 249       -0.21297
     240 -> 250       -0.10723
     241 -> 247        0.41582
     245 -> 247        0.11204
     246 -> 248       -0.33118

 Excited State   5:      Singlet-A      3.4949 eV  354.76 nm  f=0.2135  <S**2>=0.000
     240 -> 247        0.44706
     240 -> 249        0.23909
     240 -> 250        0.11500
     241 -> 247        0.18280
     245 -> 247        0.14736
     246 -> 248       -0.38054

 The electronic state is 1-A.
 Alpha  occ. eigenvalues --  -46.93929 -19.31884 -19.30006 -19.25014 -19.24468
 Alpha  occ. eigenvalues --  -19.23617 -19.23601 -14.47456 -14.46433 -14.43537
 Alpha  occ. eigenvalues --  -14.43505 -10.44540 -10.42286 -10.39218 -10.38982
 Alpha  occ. eigenvalues --  -10.36492 -10.36288 -10.35799 -10.35471 -10.34641
 Alpha  occ. eigenvalues --  -10.34086 -10.33602 -10.33322 -10.33096 -10.33078
 Alpha  occ. eigenvalues --  -10.33061 -10.32730 -10.32701 -10.32316 -10.32145
 Alpha  occ. eigenvalues --  -10.32111 -10.32041 -10.31931 -10.31684 -10.31615
 Alpha  occ. eigenvalues --  -10.31440 -10.31205 -10.30785 -10.30732 -10.30580
 Alpha  occ. eigenvalues --  -10.30443 -10.30207 -10.30203 -10.30099 -10.30031
 Alpha  occ. eigenvalues --  -10.29725 -10.29632 -10.29573 -10.29542 -10.29529
 Alpha  occ. eigenvalues --  -10.29235 -10.29219 -10.29138 -10.29128 -10.29044
 Alpha  occ. eigenvalues --  -10.28921 -10.28738 -10.28689 -10.28553 -10.28517
 Alpha  occ. eigenvalues --  -10.28447 -10.28347 -10.28239 -10.28114 -10.27713
 Alpha  occ. eigenvalues --  -10.27458  -3.20114  -1.93713  -1.93259  -1.93089
 Alpha  occ. eigenvalues --   -1.19207  -1.18972  -1.12700  -1.10506  -1.09242
 Alpha  occ. eigenvalues --   -1.07675  -1.07574  -1.06067  -1.05157  -1.04045
 Alpha  occ. eigenvalues --   -0.95392  -0.92761  -0.91958  -0.91502  -0.90994
 Alpha  occ. eigenvalues --   -0.90775  -0.90694  -0.89942  -0.89732  -0.89191
 Alpha  occ. eigenvalues --   -0.88560  -0.87633  -0.86527  -0.86121  -0.85474
 Alpha  occ. eigenvalues --   -0.84620  -0.84079  -0.83396  -0.83174  -0.82638
 Alpha  occ. eigenvalues --   -0.81928  -0.80768  -0.80039  -0.79446  -0.78362
 Alpha  occ. eigenvalues --   -0.77787  -0.77292  -0.77015  -0.76870  -0.76425
 Alpha  occ. eigenvalues --   -0.75903  -0.75279  -0.73942  -0.72978  -0.71383
 Alpha  occ. eigenvalues --   -0.70728  -0.70285  -0.69045  -0.68422  -0.67935
 Alpha  occ. eigenvalues --   -0.67410  -0.66978  -0.66733  -0.66548  -0.65917
 Alpha  occ. eigenvalues --   -0.65451  -0.65163  -0.64530  -0.64024  -0.63003
 Alpha  occ. eigenvalues --   -0.62250  -0.62189  -0.61627  -0.61178  -0.60447
 Alpha  occ. eigenvalues --   -0.60044  -0.59869  -0.58602  -0.57907  -0.57807
 Alpha  occ. eigenvalues --   -0.57140  -0.56973  -0.56643  -0.56309  -0.55756
 Alpha  occ. eigenvalues --   -0.55426  -0.55401  -0.55248  -0.54876  -0.54662
 Alpha  occ. eigenvalues --   -0.54582  -0.54336  -0.54247  -0.53806  -0.53722
 Alpha  occ. eigenvalues --   -0.53568  -0.53347  -0.53275  -0.52970  -0.52721
 Alpha  occ. eigenvalues --   -0.52398  -0.52230  -0.51985  -0.51889  -0.51761
 Alpha  occ. eigenvalues --   -0.51597  -0.51439  -0.51219  -0.50932  -0.50857
 Alpha  occ. eigenvalues --   -0.50551  -0.50331  -0.50206  -0.50028  -0.49718
 Alpha  occ. eigenvalues --   -0.49685  -0.49448  -0.49239  -0.49044  -0.48982
 Alpha  occ. eigenvalues --   -0.48823  -0.48658  -0.48461  -0.48226  -0.48131
 Alpha  occ. eigenvalues --   -0.47987  -0.47931  -0.47454  -0.47331  -0.47172
 Alpha  occ. eigenvalues --   -0.46891  -0.46615  -0.46381  -0.45984  -0.45842
 Alpha  occ. eigenvalues --   -0.45686  -0.45673  -0.45655  -0.45556  -0.45301
 Alpha  occ. eigenvalues --   -0.44905  -0.44500  -0.44137  -0.43835  -0.43750
 Alpha  occ. eigenvalues --   -0.43636  -0.43463  -0.43308  -0.43215  -0.43002
 Alpha  occ. eigenvalues --   -0.42892  -0.42606  -0.42590  -0.42488  -0.42395
 Alpha  occ. eigenvalues --   -0.42141  -0.41944  -0.41873  -0.40903  -0.40391
 Alpha  occ. eigenvalues --   -0.40386  -0.39585  -0.39530  -0.39309  -0.39153
 Alpha  occ. eigenvalues --   -0.38967  -0.38724  -0.38651  -0.38569  -0.38278
 Alpha  occ. eigenvalues --   -0.37504  -0.37315  -0.36676  -0.36385  -0.36362
 Alpha  occ. eigenvalues --   -0.36079  -0.35900  -0.35475  -0.33745  -0.33266
 Alpha  occ. eigenvalues --   -0.32853  -0.32481  -0.31897  -0.31308  -0.26607
 Alpha  occ. eigenvalues --   -0.23007
 Alpha virt. eigenvalues --   -0.07480   0.00265   0.02408   0.04447   0.04762
 Alpha virt. eigenvalues --    0.06346   0.06885   0.07659   0.08344   0.09385
 Alpha virt. eigenvalues --    0.10329   0.11185   0.11363   0.12082   0.12250

 Mulliken charges:
               1
     1  Mg   0.971881
     2  C   -0.006222
     3  C   -0.072833
     4  C   -0.076114
     5  C   -0.099404
     6  N   -0.340579
     7  C   -0.001808
     8  C   -0.026981
     9  C   -0.154999
    10  C    0.068022
    11  C    0.011358
    12  C   -0.004567
    13  C    0.052569
    14  C    0.219062
    15  O   -0.321828
    16  O   -0.353003
    17  N   -0.435476
    18  C    0.162682
    19  C   -0.218374
    20  C   -0.077940
    21  C    0.134471
    22  C    0.083742
    23  C    0.066603
    24  O   -0.256507
    25  C   -0.006693
    26  N   -0.468608
    27  C    0.098682
    28  C   -0.069541
    29  C   -0.080689
    30  C    0.140535
    31  C    0.040728
    32  C   -0.043807
    33  C   -0.003970
    34  N   -0.427988
    35  C    0.106976
    36  C   -0.178539
    37  C    0.018256
    38  C    0.136265
    39  C    0.064601
    40  C    0.100852
    41  O   -0.189593
    42  C   -0.129013
    43  C    0.248348
    44  O   -0.247752
    45  O   -0.361815
    46  C    0.142970
    47  C    0.248449
    48  C   -0.138564
    49  C   -0.217516
    50  C    0.039259
    51  C   -0.004670
    52  C   -0.048891
    53  C    0.020600
    54  C   -0.232719
    55  C    0.001308
    56  C    0.073687
    57  C   -0.004159
    58  C   -0.001496
    59  C   -0.183193
    60  C    0.001880
    61  C    0.033317
    62  C   -0.019610
    63  C    0.009850
    64  C   -0.213718
    65  C   -0.015111
    66  C   -0.013955
    67  H   -0.004492
    68  H    0.020083
    69  H   -0.001325
    70  H    0.046033
    71  H    0.034918
    72  H    0.042232
    73  H    0.046835
    74  H    0.038798
    75  H    0.035066
    76  H    0.067224
    77  H    0.041529
    78  H    0.066127
    79  H    0.065814
    80  H    0.049474
    81  H    0.025418
    82  H    0.051381
    83  H    0.045832
    84  H    0.060731
    85  H    0.028227
    86  H    0.023254
    87  H    0.041856
    88  H    0.042273
    89  H    0.041573
    90  H    0.022592
    91  H    0.020716
    92  H    0.035421
    93  H    0.017887
    94  H    0.051438
    95  H    0.063014
    96  H    0.044993
    97  H    0.051888
    98  H    0.081550
    99  H    0.057489
   100  H    0.055180
   101  H    0.067742
   102  H    0.083256
   103  H    0.049249
   104  H    0.027013
   105  H    0.068357
   106  H    0.023889
   107  H    0.038332
   108  H    0.047423
   109  H    0.030946
   110  H    0.015545
   111  H    0.027435
   112  H    0.017196
   113  H    0.008915
   114  H    0.016171
   115  H    0.036169
   116  H    0.025850
   117  H    0.022358
   118  H    0.018075
   119  H    0.007839
   120  H    0.021679
   121  H    0.026117
   122  H    0.007459
   123  H    0.010448
   124  H    0.014181
   125  H    0.008310
   126  H    0.017731
   127  H    0.033140
   128  H    0.009606
   129  H    0.026014
   130  H    0.025594
   131  H    0.012732
   132  H    0.012810
   133  H    0.020380
   134  H    0.019236
   135  H    0.025943
   136  H    0.027109
   137  H    0.030116
   138  H    0.016407
   139  H    0.033547
   140  H    0.009943
 Sum of Mulliken charges =  -0.00000

 Dipole moment (field-independent basis, Debye):
    X=             -3.4353    Y=              2.8480    Z=              0.4693  Tot=              4.4869
 Quadrupole moment (field-independent basis, Debye-Ang):
   XX=           -379.5995   YY=           -424.0555   ZZ=           -408.9369
   XY=             -4.6615   XZ=             20.2340   YZ=             10.4250

 Normal termination of Gaussian 16 at Wed May  4 16:19:30 2022.
