 Gaussian 16, Revision A.03,
 Gaussian 16:  ES64L-G16RevA.03 25-Dec-2016

 --------------------
 #p ZINDO=(nstates=5)
 --------------------

 --------------------------
 step_1_chromophore_4 ZINDO
 --------------------------
 Symbolic Z-matrix:
 Charge =  0 Multiplicity = 1

                         Standard orientation:
 ---------------------------------------------------------------------
 Center     Atomic      Atomic             Coordinates (Angstroms)
 Number     Number       Type             X           Y           Z
 ---------------------------------------------------------------------
      1         12           0        5.826840    0.455700    0.066715
      2          6           0        3.620837   -2.140505    0.218101
      3          6           0        3.077785    2.665719   -0.202417
      4          6           0        7.958262    3.009479   -0.318631
      5          6           0        8.414083   -1.778939    0.400386
      6          7           0        3.642184    0.279546   -0.301830
      7          6           0        2.955259   -0.919704   -0.073809
      8          6           0        1.414807   -0.736923   -0.181295
      9          6           0        1.367050    0.801496   -0.379241
     10          6           0        2.799114    1.304636   -0.359951
     11          6           0        0.569090    1.460621   -1.583746
     12          6           0        0.546756   -1.222915    1.061625
     13          6           0       -0.967817   -0.955319    0.851998
     14          6           0       -1.776551   -2.228219    0.597988
     15          8           0       -1.992356   -3.109132    1.524578
     16          8           0       -2.276073   -2.350380   -0.672700
     17          7           0        5.536147    2.602918   -0.178515
     18          6           0        4.345837    3.279906   -0.021740
     19          6           0        4.659200    4.686376   -0.245454
     20          6           0        6.088145    4.771408   -0.285832
     21          6           0        6.610365    3.441997   -0.238779
     22          6           0        3.587798    5.706320   -0.294737
     23          6           0        6.859480    6.117267   -0.518836
     24          8           0        8.080699    6.180124   -0.767033
     25          6           0        6.108290    7.423086   -0.524969
     26          7           0        7.777189    0.586978    0.016719
     27          6           0        8.506517    1.794588   -0.171805
     28          6           0        9.964376    1.508027   -0.451841
     29          6           0       10.100900    0.150429    0.234803
     30          6           0        8.681205   -0.396211    0.283444
     31          6           0       10.294413    1.453916   -1.981350
     32          6           0       10.617273    0.263507    1.686649
     33          6           0       12.103663    0.320086    1.916715
     34          7           0        6.093660   -1.581724    0.234739
     35          6           0        7.160845   -2.347313    0.514178
     36          6           0        6.753468   -3.718885    0.595880
     37          6           0        5.377551   -3.706648    0.509122
     38          6           0        5.007632   -2.364506    0.330908
     39          6           0        7.716284   -4.827697    0.841761
     40          6           0        4.248653   -4.535036    0.539288
     41          8           0        4.128254   -5.732951    0.709236
     42          6           0        3.018211   -3.529506    0.348334
     43          6           0        2.243317   -3.976944   -0.840180
     44          8           0        2.599679   -3.957104   -1.993173
     45          8           0        0.987281   -4.290606   -0.508717
     46          6           0        0.078345   -4.712037   -1.643394
     47          6           0       -3.386364   -3.285838   -0.712512
     48          6           0       -4.599887   -2.609961   -0.210614
     49          6           0       -5.863653   -3.105921   -0.154671
     50          6           0       -6.339972   -4.513274   -0.481436
     51          6           0       -6.981427   -2.272917    0.529983
     52          6           0       -7.534169   -1.182269   -0.485881
     53          6           0       -7.663977    0.206271    0.078189
     54          6           0       -9.012272    0.916033   -0.095961
     55          6           0       -9.247442    1.165043   -1.628992
     56          6           0       -9.117740    2.221887    0.677262
     57          6           0       -9.661120    1.924246    2.042123
     58          6           0      -10.860033    2.836640    2.459496
     59          6           0      -12.174533    2.073382    2.574319
     60          6           0      -12.806096    2.250535    3.959092
     61          6           0      -13.162683    2.291423    1.382515
     62          6           0      -13.755265    1.067244    0.635242
     63          6           0      -13.167188    0.879918   -0.812193
     64          6           0      -14.220909    1.023074   -1.952541
     65          6           0      -14.806185   -0.352569   -2.447135
     66          6           0      -13.731721    1.737416   -3.146538
     67          1           0        2.185451    3.289932   -0.123268
     68          1           0        8.665522    3.832900   -0.436488
     69          1           0        9.168195   -2.532058    0.636763
     70          1           0        1.070723   -1.238882   -1.085643
     71          1           0        0.928674    1.266755    0.504137
     72          1           0        0.059721    2.400420   -1.368968
     73          1           0       -0.036377    0.703967   -2.083048
     74          1           0        1.350351    1.769427   -2.278147
     75          1           0        0.999361   -0.699341    1.902823
     76          1           0        0.720585   -2.289796    1.201203
     77          1           0       -1.107578   -0.182516    0.096123
     78          1           0       -1.342689   -0.555914    1.793903
     79          1           0        3.527335    6.078174   -1.317740
     80          1           0        3.815919    6.413625    0.502637
     81          1           0        2.629245    5.274990   -0.005877
     82          1           0        6.806978    8.251917   -0.638921
     83          1           0        5.732592    7.511094    0.495370
     84          1           0        5.285391    7.518309   -1.232912
     85          1           0       10.607769    2.268630   -0.008674
     86          1           0       10.732820   -0.549626   -0.311348
     87          1           0        9.919102    0.535774   -2.431625
     88          1           0       11.369250    1.545591   -2.139866
     89          1           0        9.805504    2.327435   -2.411254
     90          1           0       10.219832   -0.512368    2.339756
     91          1           0       10.176733    1.140780    2.160582
     92          1           0       12.303372    1.263934    2.423226
     93          1           0       12.501366    0.451903    0.910337
     94          1           0       12.521258   -0.560550    2.405038
     95          1           0        7.733288   -5.086922    1.899637
     96          1           0        8.719204   -4.747071    0.421406
     97          1           0        7.282642   -5.692719    0.339672
     98          1           0        2.393824   -3.581519    1.240558
     99          1           0        0.160595   -3.947591   -2.416338
    100          1           0       -0.973452   -4.753528   -1.359162
    101          1           0        0.427008   -5.679502   -2.005376
    102          1           0       -3.152666   -4.222888   -0.206075
    103          1           0       -3.453062   -3.413262   -1.793042
    104          1           0       -4.476565   -1.580916    0.126240
    105          1           0       -6.307768   -5.224602    0.343428
    106          1           0       -5.650913   -4.868639   -1.248463
    107          1           0       -7.346550   -4.444119   -0.893553
    108          1           0       -6.466667   -1.828273    1.381363
    109          1           0       -7.901869   -2.785386    0.810291
    110          1           0       -8.475063   -1.598385   -0.846272
    111          1           0       -6.862454   -1.180217   -1.343552
    112          1           0       -6.877124    0.802182   -0.383770
    113          1           0       -7.371814    0.086255    1.121144
    114          1           0       -9.749533    0.130139    0.067936
    115          1           0       -9.575907    2.173901   -1.875257
    116          1           0      -10.016515    0.439649   -1.896480
    117          1           0       -8.335586    0.891069   -2.158531
    118          1           0       -9.607819    3.081670    0.219519
    119          1           0       -8.068506    2.518025    0.681453
    120          1           0       -8.985185    2.162519    2.864050
    121          1           0       -9.937242    0.872583    2.118362
    122          1           0      -11.071611    3.640910    1.755630
    123          1           0      -10.648351    3.393040    3.372940
    124          1           0      -11.919407    1.013974    2.616734
    125          1           0      -12.582936    1.318472    4.479533
    126          1           0      -13.893775    2.218809    3.892215
    127          1           0      -12.445642    2.964405    4.699597
    128          1           0      -12.518604    2.781979    0.653270
    129          1           0      -14.043882    2.881076    1.636882
    130          1           0      -14.841525    1.038601    0.557479
    131          1           0      -13.471489    0.182499    1.205006
    132          1           0      -12.831130   -0.156378   -0.839225
    133          1           0      -12.358040    1.503692   -1.192890
    134          1           0      -15.017289    1.690460   -1.626331
    135          1           0      -15.337283   -0.239038   -3.392063
    136          1           0      -15.544477   -0.743511   -1.747707
    137          1           0      -14.020600   -1.079924   -2.653565
    138          1           0      -12.655983    1.863254   -3.266412
    139          1           0      -14.286021    2.672189   -3.235137
    140          1           0      -13.845717    1.214993   -4.096698
 ---------------------------------------------------------------------

 SCF Done:  E(RZINDO/S) =  -474.552846957     A.U. after   19 cycles

 Excitation energies and oscillator strengths:

 Excited State   1:      Singlet-A      1.2256 eV 1011.64 nm  f=0.6046  <S**2>=0.000
     175 ->178        -0.17103
     176 ->177         0.66695
 This state for optimization and/or second-order correction.
 Total Energy, E(CIS/TDA) =  -474.507808025
 Copying the excited state density for this state as the 1-particle RhoCI density.

 Excited State   2:      Singlet-A      1.9576 eV  633.34 nm  f=0.0389  <S**2>=0.000
     175 ->177         0.54144
     176 ->178         0.41863

 Excited State   3:      Singlet-A      2.9198 eV  424.63 nm  f=0.1307  <S**2>=0.000
     168 ->177         0.34753
     168 ->178        -0.22439
     168 ->179        -0.33955
     168 ->181         0.18490
     168 ->186        -0.17636
     168 ->198         0.11303
     175 ->177         0.13957
     176 ->178        -0.21276
     176 ->179        -0.13440

 Excited State   4:      Singlet-A      2.9338 eV  422.61 nm  f=0.5713  <S**2>=0.000
     168 ->177         0.15688
     168 ->178        -0.10440
     168 ->179        -0.16015
     175 ->177        -0.29657
     176 ->178         0.45763
     176 ->179         0.27033

 Excited State   5:      Singlet-A      3.0772 eV  402.91 nm  f=0.0003  <S**2>=0.000
     167 ->181         0.11419
     170 ->177        -0.20328
     170 ->179        -0.29405
     170 ->181        -0.46735
     170 ->186        -0.20853
     170 ->187        -0.19755

 The electronic state is 1-A.
 Alpha  occ. eigenvalues --   -1.88220  -1.82560  -1.80472  -1.74893  -1.73768
 Alpha  occ. eigenvalues --   -1.71772  -1.66862  -1.60814  -1.60254  -1.56218
 Alpha  occ. eigenvalues --   -1.56006  -1.51580  -1.49408  -1.48911  -1.47346
 Alpha  occ. eigenvalues --   -1.43567  -1.41822  -1.41154  -1.39596  -1.39184
 Alpha  occ. eigenvalues --   -1.36147  -1.35217  -1.33515  -1.31128  -1.29166
 Alpha  occ. eigenvalues --   -1.27976  -1.26113  -1.21616  -1.20098  -1.18608
 Alpha  occ. eigenvalues --   -1.17661  -1.15434  -1.15045  -1.14161  -1.13900
 Alpha  occ. eigenvalues --   -1.12750  -1.12077  -1.09833  -1.05654  -1.03841
 Alpha  occ. eigenvalues --   -1.02860  -1.01972  -0.99589  -0.98609  -0.97081
 Alpha  occ. eigenvalues --   -0.95343  -0.94560  -0.93802  -0.93342  -0.92229
 Alpha  occ. eigenvalues --   -0.91001  -0.90521  -0.89213  -0.88414  -0.88201
 Alpha  occ. eigenvalues --   -0.86537  -0.83788  -0.82988  -0.82382  -0.81073
 Alpha  occ. eigenvalues --   -0.80720  -0.78804  -0.77802  -0.77528  -0.76035
 Alpha  occ. eigenvalues --   -0.75894  -0.75309  -0.74749  -0.74251  -0.73473
 Alpha  occ. eigenvalues --   -0.72831  -0.72342  -0.71928  -0.71188  -0.71035
 Alpha  occ. eigenvalues --   -0.70481  -0.69709  -0.69240  -0.68844  -0.67932
 Alpha  occ. eigenvalues --   -0.67594  -0.67468  -0.67140  -0.66542  -0.65868
 Alpha  occ. eigenvalues --   -0.65452  -0.65215  -0.64451  -0.63963  -0.63898
 Alpha  occ. eigenvalues --   -0.63549  -0.62977  -0.62642  -0.62006  -0.61705
 Alpha  occ. eigenvalues --   -0.61519  -0.60956  -0.60870  -0.60800  -0.60757
 Alpha  occ. eigenvalues --   -0.59765  -0.59311  -0.59122  -0.58550  -0.58426
 Alpha  occ. eigenvalues --   -0.58277  -0.57758  -0.57414  -0.56632  -0.56538
 Alpha  occ. eigenvalues --   -0.56301  -0.55735  -0.55255  -0.55203  -0.54912
 Alpha  occ. eigenvalues --   -0.54871  -0.54391  -0.53521  -0.53377  -0.52994
 Alpha  occ. eigenvalues --   -0.52693  -0.52455  -0.51773  -0.51693  -0.51535
 Alpha  occ. eigenvalues --   -0.51124  -0.51047  -0.50712  -0.50356  -0.50042
 Alpha  occ. eigenvalues --   -0.49672  -0.49590  -0.49034  -0.49005  -0.48876
 Alpha  occ. eigenvalues --   -0.48405  -0.48175  -0.48144  -0.48004  -0.47451
 Alpha  occ. eigenvalues --   -0.47242  -0.47231  -0.46611  -0.46461  -0.46263
 Alpha  occ. eigenvalues --   -0.46141  -0.45879  -0.45803  -0.45352  -0.45187
 Alpha  occ. eigenvalues --   -0.45001  -0.44461  -0.43954  -0.43739  -0.43644
 Alpha  occ. eigenvalues --   -0.43514  -0.43189  -0.43079  -0.42273  -0.41854
 Alpha  occ. eigenvalues --   -0.41789  -0.41495  -0.41429  -0.39127  -0.39072
 Alpha  occ. eigenvalues --   -0.38129  -0.36757  -0.35493  -0.35123  -0.34680
 Alpha  occ. eigenvalues --   -0.33767  -0.32668  -0.31760  -0.31723  -0.27183
 Alpha  occ. eigenvalues --   -0.21803
 Alpha virt. eigenvalues --   -0.08777  -0.02105  -0.00286   0.00229   0.01548
 Alpha virt. eigenvalues --    0.02508   0.02960   0.03515   0.04479   0.04830
 Alpha virt. eigenvalues --    0.06123   0.06591   0.07377   0.07764   0.08033

 Mulliken charges:
               1
     1  Mg   0.420083
     2  C   -0.041783
     3  C   -0.061372
     4  C   -0.049910
     5  C   -0.085611
     6  N   -0.261920
     7  C    0.116934
     8  C    0.003387
     9  C   -0.005438
    10  C    0.120957
    11  C   -0.058438
    12  C   -0.019705
    13  C    0.012459
    14  C    0.472234
    15  O   -0.549206
    16  O   -0.261772
    17  N   -0.326935
    18  C    0.058297
    19  C    0.005434
    20  C   -0.063956
    21  C    0.139135
    22  C   -0.042194
    23  C    0.319024
    24  O   -0.535918
    25  C   -0.028666
    26  N   -0.285246
    27  C    0.113435
    28  C    0.008799
    29  C    0.013780
    30  C    0.166205
    31  C   -0.049789
    32  C   -0.028091
    33  C   -0.058201
    34  N   -0.322059
    35  C    0.120972
    36  C    0.053623
    37  C   -0.031573
    38  C    0.120914
    39  C   -0.040436
    40  C    0.337165
    41  O   -0.508688
    42  C    0.053215
    43  C    0.496614
    44  O   -0.530976
    45  O   -0.270581
    46  C    0.073780
    47  C    0.117984
    48  C   -0.079541
    49  C   -0.012654
    50  C   -0.042259
    51  C   -0.036575
    52  C   -0.036393
    53  C   -0.026143
    54  C   -0.011928
    55  C   -0.070882
    56  C   -0.024298
    57  C   -0.034385
    58  C   -0.037360
    59  C   -0.007136
    60  C   -0.065724
    61  C   -0.037161
    62  C   -0.036032
    63  C   -0.042674
    64  C   -0.010553
    65  C   -0.055960
    66  C   -0.057122
    67  H    0.026471
    68  H    0.039394
    69  H    0.024988
    70  H    0.041558
    71  H    0.016702
    72  H    0.029210
    73  H    0.024695
    74  H    0.019214
    75  H    0.029826
    76  H    0.036807
    77  H    0.038336
    78  H    0.041893
    79  H    0.040517
    80  H    0.030950
    81  H    0.018065
    82  H    0.033699
    83  H    0.030723
    84  H    0.042014
    85  H    0.029665
    86  H    0.026705
    87  H    0.026677
    88  H    0.020317
    89  H    0.026002
    90  H    0.011759
    91  H    0.016481
    92  H    0.022492
    93  H    0.014858
    94  H    0.030294
    95  H    0.039239
    96  H    0.031206
    97  H    0.027416
    98  H    0.052702
    99  H    0.041611
   100  H    0.039359
   101  H    0.050275
   102  H    0.067715
   103  H    0.031347
   104  H    0.032548
   105  H    0.039964
   106  H    0.013748
   107  H    0.026028
   108  H    0.027849
   109  H    0.026917
   110  H    0.016072
   111  H    0.016705
   112  H    0.014183
   113  H    0.012353
   114  H    0.024321
   115  H    0.023610
   116  H    0.014417
   117  H    0.019541
   118  H    0.028283
   119  H    0.013399
   120  H    0.015529
   121  H    0.027676
   122  H    0.015093
   123  H    0.015983
   124  H    0.018045
   125  H    0.002431
   126  H    0.015921
   127  H    0.030020
   128  H    0.018545
   129  H    0.024000
   130  H    0.026496
   131  H    0.014206
   132  H    0.012717
   133  H    0.032189
   134  H    0.019748
   135  H    0.013073
   136  H    0.013345
   137  H    0.022903
   138  H    0.015274
   139  H    0.015753
   140  H    0.008745
 Sum of Mulliken charges =  -0.00000

 Dipole moment (field-independent basis, Debye):
    X=             -4.0649    Y=              3.3637    Z=              1.6996  Tot=              5.5432
 N-N= 4.309149160549D+03 E-N= 0.000000000000D+00  KE=-9.292597353051D+03
 Leave Link  601 at Wed May  4 16:33:17 2022, MaxMem=  6710886400 cpu:               0.8 elap:               0.1
 (Enter /sw/apps/gaussian-16.0/g16/l9999.exe)
 1\1\GINC-BP1-COMPUTE067\SP\RZINDO CIS\STO-3G\C55H74Mg1N4O6\OF15641\04-
 May-2022\0\\#p ZINDO=(nstates=5)\\step_1_chromophore_4 ZINDO\\0,1\Mg,0
 ,8.828,2.979,28.391\C,0,10.365,1.604,31.107\C,0,7.597,5.545,30.492\C,0
 ,7.114,4.233,25.802\C,0,10.134,0.474,26.437\N,0,8.693,3.351,30.578\C,0
 ,9.525,2.685,31.487\C,0,9.406,3.272,32.922\C,0,8.46,4.464,32.618\C,0,8
 .161,4.436,31.13\C,0,7.123,4.696,33.443\C,0,10.76,3.727,33.625\C,0,10.
 509,4.328,35.034\C,0,10.968,3.414,36.171\O,0,12.221,3.189,36.417\O,0,9

 Normal termination of Gaussian 16 at Wed May  4 16:33:17 2022.
