 Gaussian 16, Revision A.03,
 Gaussian 16:  ES64L-G16RevA.03 25-Dec-2016

 ------------------------------
 #p blyp/Def2SVP td=(nstates=5)
 ------------------------------

 --------------------------------------------------
 step_1701_chromophore_1 TDDFT with blyp functional
 --------------------------------------------------
 Symbolic Z-matrix:
 Charge =  0 Multiplicity = 1

                         Standard orientation:
 ---------------------------------------------------------------------
 Center     Atomic      Atomic             Coordinates (Angstroms)
 Number     Number       Type             X           Y           Z
 ---------------------------------------------------------------------
      1         12           0        5.918976    0.425569   -0.013471
      2          6           0        3.929738   -2.382483   -0.563141
      3          6           0        3.460935    2.358320   -1.370959
      4          6           0        7.950941    3.083184    0.224116
      5          6           0        8.610543   -1.679534    0.815809
      6          7           0        3.941819    0.001764   -1.017320
      7          6           0        3.268364   -1.173346   -1.012583
      8          6           0        1.781950   -0.960764   -1.316740
      9          6           0        1.792346    0.590691   -1.813587
     10          6           0        3.149680    1.055332   -1.439380
     11          6           0        1.463394    0.776279   -3.305369
     12          6           0        0.916740   -1.270571   -0.051525
     13          6           0       -0.553827   -0.707333   -0.195326
     14          6           0       -1.654788   -1.780427   -0.456405
     15          8           0       -1.507007   -2.822442   -1.109351
     16          8           0       -2.848444   -1.438612    0.185104
     17          7           0        5.612423    2.464935   -0.405707
     18          6           0        4.607455    3.066940   -0.928568
     19          6           0        4.704565    4.472756   -0.854329
     20          6           0        6.073015    4.741535   -0.489561
     21          6           0        6.606497    3.371473   -0.218515
     22          6           0        3.688216    5.489046   -1.134943
     23          6           0        6.844139    6.006619   -0.289261
     24          8           0        8.042525    6.026536   -0.034563
     25          6           0        6.102178    7.365568   -0.394883
     26          7           0        8.021206    0.591909    0.362874
     27          6           0        8.578804    1.881134    0.445795
     28          6           0       10.123741    1.782235    0.777892
     29          6           0       10.173185    0.210840    1.268537
     30          6           0        8.786843   -0.332037    0.871449
     31          6           0       10.945053    2.085246   -0.512539
     32          6           0       10.470859    0.189807    2.765348
     33          6           0        9.374274    0.597316    3.767525
     34          7           0        6.211072   -1.583686    0.033305
     35          6           0        7.390620   -2.300227    0.426350
     36          6           0        7.200649   -3.724415    0.289619
     37          6           0        5.802532   -3.801658   -0.049738
     38          6           0        5.290872   -2.444618   -0.182515
     39          6           0        8.223258   -4.706192    0.618840
     40          6           0        4.700023   -4.751344   -0.337614
     41          8           0        4.621468   -6.016734   -0.265387
     42          6           0        3.387028   -3.827328   -0.750723
     43          6           0        2.324253   -4.318411    0.066415
     44          8           0        2.193052   -4.210773    1.282692
     45          8           0        1.468489   -5.064984   -0.698778
     46          6           0        0.287798   -5.597230   -0.024730
     47          6           0       -3.967249   -2.316275    0.017627
     48          6           0       -5.181287   -1.538087   -0.615029
     49          6           0       -6.411613   -2.050748   -0.719681
     50          6           0       -6.852718   -3.495883   -0.574657
     51          6           0       -7.517415   -1.124508   -1.013750
     52          6           0       -8.183727   -0.459257    0.261694
     53          6           0       -7.920622    1.082761    0.403577
     54          6           0       -9.274164    1.832237    0.668743
     55          6           0       -9.253753    3.198481   -0.012674
     56          6           0       -9.441101    1.916888    2.245671
     57          6           0      -10.807950    2.359560    2.731735
     58          6           0      -11.610244    1.170368    3.382999
     59          6           0      -12.983929    1.024686    2.792548
     60          6           0      -13.964217    0.683822    3.857161
     61          6           0      -13.004136    0.129142    1.469336
     62          6           0      -13.456098    0.948250    0.237151
     63          6           0      -12.920238    0.389291   -1.044709
     64          6           0      -13.751521    0.968232   -2.190349
     65          6           0      -14.745714   -0.038265   -2.868651
     66          6           0      -12.798185    1.608862   -3.208677
     67          1           0        2.619687    2.959736   -1.720668
     68          1           0        8.729683    3.830422    0.386724
     69          1           0        9.439814   -2.252439    1.236269
     70          1           0        1.432034   -1.606182   -2.121827
     71          1           0        1.204223    1.217838   -1.143620
     72          1           0        0.421050    1.043508   -3.484404
     73          1           0        1.429686   -0.149073   -3.879586
     74          1           0        2.013029    1.584993   -3.787822
     75          1           0        1.439106   -0.785062    0.774205
     76          1           0        0.828629   -2.329973    0.187890
     77          1           0       -0.691264   -0.204316   -1.152916
     78          1           0       -0.899586   -0.028650    0.584398
     79          1           0        2.672391    5.092999   -1.161924
     80          1           0        3.821988    5.957657   -2.108898
     81          1           0        3.668822    6.207668   -0.315444
     82          1           0        5.326686    7.407720    0.370199
     83          1           0        5.735012    7.436516   -1.418915
     84          1           0        6.741393    8.164253   -0.020289
     85          1           0       10.439920    2.393482    1.622882
     86          1           0       11.040442   -0.198814    0.750134
     87          1           0       11.616046    2.921174   -0.315459
     88          1           0       10.252991    2.401095   -1.292992
     89          1           0       11.507816    1.209169   -0.835225
     90          1           0       11.346583    0.755814    3.082436
     91          1           0       10.778293   -0.845537    2.911924
     92          1           0        9.779293    1.298295    4.496767
     93          1           0        8.990002   -0.211205    4.389877
     94          1           0        8.538139    1.098761    3.279365
     95          1           0        8.991876   -4.325682    1.292147
     96          1           0        8.611838   -4.865810   -0.387452
     97          1           0        7.725662   -5.571212    1.057401
     98          1           0        3.272441   -4.133135   -1.790435
     99          1           0       -0.217388   -6.255615   -0.731937
    100          1           0       -0.326751   -4.702430    0.075910
    101          1           0        0.390347   -6.055357    0.959648
    102          1           0       -4.251687   -2.628921    1.022716
    103          1           0       -3.834297   -3.281740   -0.470983
    104          1           0       -5.037364   -0.460936   -0.701111
    105          1           0       -7.182950   -3.636978    0.455118
    106          1           0       -6.069104   -4.240464   -0.711917
    107          1           0       -7.642092   -3.846731   -1.239812
    108          1           0       -8.238903   -1.559153   -1.706450
    109          1           0       -7.061994   -0.259613   -1.495569
    110          1           0       -7.811166   -0.948179    1.162369
    111          1           0       -9.236703   -0.736614    0.313287
    112          1           0       -7.507253    1.424511   -0.544743
    113          1           0       -7.168399    1.322101    1.156480
    114          1           0      -10.148868    1.290038    0.309952
    115          1           0       -9.526119    3.958601    0.718700
    116          1           0       -9.964562    3.227094   -0.838699
    117          1           0       -8.247378    3.403046   -0.378069
    118          1           0       -8.663581    2.598013    2.591617
    119          1           0       -9.160304    1.109701    2.921046
    120          1           0      -11.395554    2.753411    1.902523
    121          1           0      -10.582202    3.144736    3.452983
    122          1           0      -11.516750    1.204206    4.469077
    123          1           0      -11.150717    0.199435    3.198897
    124          1           0      -13.284919    2.025919    2.485829
    125          1           0      -13.571350    0.136702    4.713263
    126          1           0      -14.801590    0.189353    3.363450
    127          1           0      -14.344551    1.663944    4.145058
    128          1           0      -13.642998   -0.752878    1.505199
    129          1           0      -12.062664   -0.382812    1.270314
    130          1           0      -13.053126    1.961676    0.239482
    131          1           0      -14.543089    1.018845    0.220480
    132          1           0      -13.084727   -0.687835   -1.012181
    133          1           0      -11.857859    0.621695   -1.114517
    134          1           0      -14.325934    1.841144   -1.879921
    135          1           0      -14.626106    0.018013   -3.951279
    136          1           0      -15.701490    0.421872   -2.616881
    137          1           0      -14.722823   -1.110038   -2.668879
    138          1           0      -12.187054    2.328689   -2.664674
    139          1           0      -13.293465    2.043696   -4.076330
    140          1           0      -11.998212    1.014877   -3.651285
 ---------------------------------------------------------------------

 SCF Done:  E(RB-LYP) =  -3007.35223600     A.U. after   22 cycles

 Excitation energies and oscillator strengths:

 Excited State   1:      Singlet-A      1.7929 eV  691.54 nm  f=0.0541  <S**2>=0.000
     244 -> 247        0.61611
     245 -> 247       -0.14039
     246 -> 247       -0.29704
 This state for optimization and/or second-order correction.
 Total Energy, E(TD-HF/TD-DFT) =  -3007.28634893
 Copying the excited state density for this state as the 1-particle RhoCI density.

 Excited State   2:      Singlet-A      1.8185 eV  681.79 nm  f=0.0875  <S**2>=0.000
     243 -> 247        0.55956
     244 -> 247        0.24936
     246 -> 247        0.34468

 Excited State   3:      Singlet-A      1.8422 eV  673.03 nm  f=0.1950  <S**2>=0.000
     243 -> 247       -0.42067
     244 -> 247        0.19681
     245 -> 248        0.13692
     246 -> 247        0.52191
     246 <- 247       -0.11773

 Excited State   4:      Singlet-A      2.0240 eV  612.58 nm  f=0.1076  <S**2>=0.000
     241 -> 247        0.12136
     244 -> 247        0.13437
     245 -> 247        0.63975
     246 -> 248       -0.19668

 Excited State   5:      Singlet-A      2.2305 eV  555.85 nm  f=0.0001  <S**2>=0.000
     242 -> 247        0.70701

 The electronic state is 1-A.
 Alpha  occ. eigenvalues --  -46.27574 -18.82833 -18.80358 -18.77735 -18.75872
 Alpha  occ. eigenvalues --  -18.75363 -18.74846 -14.03109 -14.02980 -14.01532
 Alpha  occ. eigenvalues --  -14.01260 -10.05133 -10.02138 -10.00187  -9.99784
 Alpha  occ. eigenvalues --   -9.98031  -9.97247  -9.96204  -9.96117  -9.96052
 Alpha  occ. eigenvalues --   -9.95951  -9.95734  -9.95658  -9.95079  -9.95041
 Alpha  occ. eigenvalues --   -9.94775  -9.94714  -9.94430  -9.94292  -9.94215
 Alpha  occ. eigenvalues --   -9.93894  -9.93592  -9.93492  -9.93468  -9.93331
 Alpha  occ. eigenvalues --   -9.92868  -9.92863  -9.92834  -9.92676  -9.92596
 Alpha  occ. eigenvalues --   -9.92529  -9.92523  -9.92453  -9.92410  -9.92341
 Alpha  occ. eigenvalues --   -9.92239  -9.92201  -9.92171  -9.91880  -9.91880
 Alpha  occ. eigenvalues --   -9.91847  -9.91811  -9.91718  -9.91690  -9.91573
 Alpha  occ. eigenvalues --   -9.91228  -9.91196  -9.91086  -9.91081  -9.91023
 Alpha  occ. eigenvalues --   -9.90998  -9.90798  -9.90794  -9.90691  -9.90661
 Alpha  occ. eigenvalues --   -9.90337  -2.92225  -1.72645  -1.72099  -1.71946
 Alpha  occ. eigenvalues --   -0.97784  -0.96257  -0.91218  -0.90176  -0.88706
 Alpha  occ. eigenvalues --   -0.88202  -0.87770  -0.86917  -0.85882  -0.85406
 Alpha  occ. eigenvalues --   -0.74319  -0.73803  -0.73507  -0.72483  -0.72358
 Alpha  occ. eigenvalues --   -0.72182  -0.71785  -0.71457  -0.71367  -0.71231
 Alpha  occ. eigenvalues --   -0.70961  -0.68997  -0.67791  -0.67384  -0.66994
 Alpha  occ. eigenvalues --   -0.66430  -0.65761  -0.65256  -0.65059  -0.64530
 Alpha  occ. eigenvalues --   -0.64039  -0.63002  -0.62635  -0.61610  -0.60865
 Alpha  occ. eigenvalues --   -0.60692  -0.60394  -0.59646  -0.59603  -0.59111
 Alpha  occ. eigenvalues --   -0.58571  -0.58052  -0.57118  -0.55862  -0.54671
 Alpha  occ. eigenvalues --   -0.54034  -0.53480  -0.53099  -0.52323  -0.51704
 Alpha  occ. eigenvalues --   -0.51406  -0.51344  -0.50562  -0.50364  -0.49935
 Alpha  occ. eigenvalues --   -0.49925  -0.49760  -0.48884  -0.47161  -0.46605
 Alpha  occ. eigenvalues --   -0.46516  -0.45906  -0.45794  -0.44954  -0.44308
 Alpha  occ. eigenvalues --   -0.44056  -0.43599  -0.43128  -0.42564  -0.42026
 Alpha  occ. eigenvalues --   -0.41986  -0.41854  -0.41620  -0.41259  -0.41095
 Alpha  occ. eigenvalues --   -0.40885  -0.40421  -0.40389  -0.40148  -0.39994
 Alpha  occ. eigenvalues --   -0.39798  -0.39517  -0.39486  -0.39303  -0.39110
 Alpha  occ. eigenvalues --   -0.38829  -0.38660  -0.38564  -0.38494  -0.38259
 Alpha  occ. eigenvalues --   -0.38025  -0.37953  -0.37785  -0.37516  -0.37370
 Alpha  occ. eigenvalues --   -0.37241  -0.36901  -0.36830  -0.36474  -0.36457
 Alpha  occ. eigenvalues --   -0.36311  -0.36034  -0.35848  -0.35703  -0.35604
 Alpha  occ. eigenvalues --   -0.35463  -0.35214  -0.35026  -0.35016  -0.34929
 Alpha  occ. eigenvalues --   -0.34865  -0.34299  -0.34231  -0.34181  -0.34128
 Alpha  occ. eigenvalues --   -0.33947  -0.33709  -0.33509  -0.33393  -0.32909
 Alpha  occ. eigenvalues --   -0.32847  -0.32650  -0.32522  -0.32328  -0.32213
 Alpha  occ. eigenvalues --   -0.32048  -0.32014  -0.31810  -0.31638  -0.31491
 Alpha  occ. eigenvalues --   -0.31386  -0.30889  -0.30640  -0.30510  -0.30407
 Alpha  occ. eigenvalues --   -0.30368  -0.30126  -0.29942  -0.29878  -0.29697
 Alpha  occ. eigenvalues --   -0.29542  -0.29484  -0.29388  -0.29323  -0.29059
 Alpha  occ. eigenvalues --   -0.28985  -0.28721  -0.28608  -0.28344  -0.28233
 Alpha  occ. eigenvalues --   -0.27622  -0.27486  -0.26828  -0.26811  -0.26547
 Alpha  occ. eigenvalues --   -0.26329  -0.25905  -0.25879  -0.25081  -0.24894
 Alpha  occ. eigenvalues --   -0.24659  -0.24291  -0.23836  -0.23731  -0.23311
 Alpha  occ. eigenvalues --   -0.23073  -0.22710  -0.22462  -0.20895  -0.20825
 Alpha  occ. eigenvalues --   -0.20337  -0.20071  -0.18457  -0.18442  -0.17406
 Alpha  occ. eigenvalues --   -0.16152
 Alpha virt. eigenvalues --   -0.11875  -0.06757  -0.06186  -0.04560  -0.03336
 Alpha virt. eigenvalues --   -0.02929  -0.01913  -0.01878  -0.01114   0.00547
 Alpha virt. eigenvalues --    0.01302   0.01342   0.01956   0.02449   0.02551

 Mulliken charges:
               1
     1  Mg   0.700748
     2  C    0.002812
     3  C   -0.099120
     4  C    0.015290
     5  C   -0.105603
     6  N   -0.207920
     7  C   -0.056120
     8  C    0.014735
     9  C    0.027835
    10  C    0.002170
    11  C    0.136097
    12  C    0.132884
    13  C    0.120930
    14  C    0.062699
    15  O   -0.199243
    16  O   -0.261526
    17  N   -0.201435
    18  C    0.143866
    19  C   -0.159076
    20  C    0.044195
    21  C    0.104396
    22  C    0.190136
    23  C   -0.098569
    24  O   -0.163185
    25  C    0.126318
    26  N   -0.214903
    27  C   -0.055727
    28  C   -0.027414
    29  C    0.022084
    30  C    0.070090
    31  C    0.137284
    32  C    0.062251
    33  C    0.064171
    34  N   -0.249867
    35  C    0.147614
    36  C   -0.172828
    37  C    0.062170
    38  C    0.088370
    39  C    0.189874
    40  C   -0.040870
    41  O   -0.174182
    42  C    0.046021
    43  C    0.110171
    44  O   -0.211506
    45  O   -0.267600
    46  C    0.233596
    47  C    0.279648
    48  C   -0.086688
    49  C   -0.134723
    50  C    0.139340
    51  C    0.135190
    52  C    0.070571
    53  C    0.114295
    54  C   -0.095831
    55  C    0.126303
    56  C    0.060525
    57  C    0.098359
    58  C    0.105516
    59  C   -0.072544
    60  C    0.137644
    61  C    0.118899
    62  C    0.005270
    63  C    0.137498
    64  C   -0.071197
    65  C    0.110394
    66  C    0.063358
    67  H   -0.078142
    68  H   -0.045168
    69  H   -0.055877
    70  H   -0.021323
    71  H   -0.018134
    72  H   -0.024323
    73  H   -0.006235
    74  H   -0.000876
    75  H   -0.019901
    76  H    0.029444
    77  H    0.011414
    78  H   -0.000800
    79  H   -0.028799
    80  H    0.006156
    81  H   -0.002737
    82  H   -0.000586
    83  H    0.018978
    84  H   -0.015995
    85  H   -0.018547
    86  H   -0.035282
    87  H   -0.001831
    88  H    0.002863
    89  H   -0.008872
    90  H   -0.020881
    91  H   -0.034456
    92  H   -0.016449
    93  H   -0.007229
    94  H    0.003970
    95  H   -0.000710
    96  H    0.018013
    97  H    0.023810
    98  H    0.002890
    99  H    0.005982
   100  H   -0.004038
   101  H    0.016928
   102  H   -0.007362
   103  H    0.008046
   104  H   -0.035299
   105  H   -0.002492
   106  H   -0.019592
   107  H   -0.004168
   108  H   -0.031082
   109  H   -0.035451
   110  H   -0.034154
   111  H   -0.024179
   112  H   -0.037106
   113  H   -0.021030
   114  H   -0.017797
   115  H   -0.018307
   116  H   -0.009321
   117  H   -0.016617
   118  H   -0.061160
   119  H   -0.044292
   120  H   -0.026405
   121  H   -0.033433
   122  H   -0.043042
   123  H   -0.040838
   124  H   -0.036647
   125  H   -0.009147
   126  H   -0.034230
   127  H   -0.025660
   128  H   -0.043438
   129  H   -0.038006
   130  H   -0.024283
   131  H   -0.024152
   132  H   -0.042935
   133  H   -0.027641
   134  H   -0.030242
   135  H   -0.027058
   136  H   -0.013258
   137  H   -0.007172
   138  H   -0.022775
   139  H   -0.018969
   140  H   -0.026496
 Sum of Mulliken charges =  -0.00000

 Dipole moment (field-independent basis, Debye):
    X=             -3.0930    Y=              3.9820    Z=              0.2318  Tot=              5.0474
 Quadrupole moment (field-independent basis, Debye-Ang):
   XX=           -370.2262   YY=           -439.1973   ZZ=           -404.6867
   XY=             -0.8361   XZ=              9.0570   YZ=             -1.7153

 Normal termination of Gaussian 16 at Thu Apr 28 18:55:42 2022.
