 Gaussian 16, Revision A.03,
 Gaussian 16:  ES64L-G16RevA.03 25-Dec-2016

 -----------------------------------
 #p cam-b3lyp/Def2SVP td=(nstates=5)
 -----------------------------------

 -------------------------------------------------------
 step_1701_chromophore_1 TDDFT with cam-b3lyp functional
 -------------------------------------------------------
 Symbolic Z-matrix:
 Charge =  0 Multiplicity = 1

                         Standard orientation:
 ---------------------------------------------------------------------
 Center     Atomic      Atomic             Coordinates (Angstroms)
 Number     Number       Type             X           Y           Z
 ---------------------------------------------------------------------
      1         12           0        5.918976    0.425569   -0.013471
      2          6           0        3.929738   -2.382483   -0.563141
      3          6           0        3.460935    2.358320   -1.370959
      4          6           0        7.950941    3.083184    0.224116
      5          6           0        8.610543   -1.679534    0.815809
      6          7           0        3.941819    0.001764   -1.017320
      7          6           0        3.268364   -1.173346   -1.012583
      8          6           0        1.781950   -0.960764   -1.316740
      9          6           0        1.792346    0.590691   -1.813587
     10          6           0        3.149680    1.055332   -1.439380
     11          6           0        1.463394    0.776279   -3.305369
     12          6           0        0.916740   -1.270571   -0.051525
     13          6           0       -0.553827   -0.707333   -0.195326
     14          6           0       -1.654788   -1.780427   -0.456405
     15          8           0       -1.507007   -2.822442   -1.109351
     16          8           0       -2.848444   -1.438612    0.185104
     17          7           0        5.612423    2.464935   -0.405707
     18          6           0        4.607455    3.066940   -0.928568
     19          6           0        4.704565    4.472756   -0.854329
     20          6           0        6.073015    4.741535   -0.489561
     21          6           0        6.606497    3.371473   -0.218515
     22          6           0        3.688216    5.489046   -1.134943
     23          6           0        6.844139    6.006619   -0.289261
     24          8           0        8.042525    6.026536   -0.034563
     25          6           0        6.102178    7.365568   -0.394883
     26          7           0        8.021206    0.591909    0.362874
     27          6           0        8.578804    1.881134    0.445795
     28          6           0       10.123741    1.782235    0.777892
     29          6           0       10.173185    0.210840    1.268537
     30          6           0        8.786843   -0.332037    0.871449
     31          6           0       10.945053    2.085246   -0.512539
     32          6           0       10.470859    0.189807    2.765348
     33          6           0        9.374274    0.597316    3.767525
     34          7           0        6.211072   -1.583686    0.033305
     35          6           0        7.390620   -2.300227    0.426350
     36          6           0        7.200649   -3.724415    0.289619
     37          6           0        5.802532   -3.801658   -0.049738
     38          6           0        5.290872   -2.444618   -0.182515
     39          6           0        8.223258   -4.706192    0.618840
     40          6           0        4.700023   -4.751344   -0.337614
     41          8           0        4.621468   -6.016734   -0.265387
     42          6           0        3.387028   -3.827328   -0.750723
     43          6           0        2.324253   -4.318411    0.066415
     44          8           0        2.193052   -4.210773    1.282692
     45          8           0        1.468489   -5.064984   -0.698778
     46          6           0        0.287798   -5.597230   -0.024730
     47          6           0       -3.967249   -2.316275    0.017627
     48          6           0       -5.181287   -1.538087   -0.615029
     49          6           0       -6.411613   -2.050748   -0.719681
     50          6           0       -6.852718   -3.495883   -0.574657
     51          6           0       -7.517415   -1.124508   -1.013750
     52          6           0       -8.183727   -0.459257    0.261694
     53          6           0       -7.920622    1.082761    0.403577
     54          6           0       -9.274164    1.832237    0.668743
     55          6           0       -9.253753    3.198481   -0.012674
     56          6           0       -9.441101    1.916888    2.245671
     57          6           0      -10.807950    2.359560    2.731735
     58          6           0      -11.610244    1.170368    3.382999
     59          6           0      -12.983929    1.024686    2.792548
     60          6           0      -13.964217    0.683822    3.857161
     61          6           0      -13.004136    0.129142    1.469336
     62          6           0      -13.456098    0.948250    0.237151
     63          6           0      -12.920238    0.389291   -1.044709
     64          6           0      -13.751521    0.968232   -2.190349
     65          6           0      -14.745714   -0.038265   -2.868651
     66          6           0      -12.798185    1.608862   -3.208677
     67          1           0        2.619687    2.959736   -1.720668
     68          1           0        8.729683    3.830422    0.386724
     69          1           0        9.439814   -2.252439    1.236269
     70          1           0        1.432034   -1.606182   -2.121827
     71          1           0        1.204223    1.217838   -1.143620
     72          1           0        0.421050    1.043508   -3.484404
     73          1           0        1.429686   -0.149073   -3.879586
     74          1           0        2.013029    1.584993   -3.787822
     75          1           0        1.439106   -0.785062    0.774205
     76          1           0        0.828629   -2.329973    0.187890
     77          1           0       -0.691264   -0.204316   -1.152916
     78          1           0       -0.899586   -0.028650    0.584398
     79          1           0        2.672391    5.092999   -1.161924
     80          1           0        3.821988    5.957657   -2.108898
     81          1           0        3.668822    6.207668   -0.315444
     82          1           0        5.326686    7.407720    0.370199
     83          1           0        5.735012    7.436516   -1.418915
     84          1           0        6.741393    8.164253   -0.020289
     85          1           0       10.439920    2.393482    1.622882
     86          1           0       11.040442   -0.198814    0.750134
     87          1           0       11.616046    2.921174   -0.315459
     88          1           0       10.252991    2.401095   -1.292992
     89          1           0       11.507816    1.209169   -0.835225
     90          1           0       11.346583    0.755814    3.082436
     91          1           0       10.778293   -0.845537    2.911924
     92          1           0        9.779293    1.298295    4.496767
     93          1           0        8.990002   -0.211205    4.389877
     94          1           0        8.538139    1.098761    3.279365
     95          1           0        8.991876   -4.325682    1.292147
     96          1           0        8.611838   -4.865810   -0.387452
     97          1           0        7.725662   -5.571212    1.057401
     98          1           0        3.272441   -4.133135   -1.790435
     99          1           0       -0.217388   -6.255615   -0.731937
    100          1           0       -0.326751   -4.702430    0.075910
    101          1           0        0.390347   -6.055357    0.959648
    102          1           0       -4.251687   -2.628921    1.022716
    103          1           0       -3.834297   -3.281740   -0.470983
    104          1           0       -5.037364   -0.460936   -0.701111
    105          1           0       -7.182950   -3.636978    0.455118
    106          1           0       -6.069104   -4.240464   -0.711917
    107          1           0       -7.642092   -3.846731   -1.239812
    108          1           0       -8.238903   -1.559153   -1.706450
    109          1           0       -7.061994   -0.259613   -1.495569
    110          1           0       -7.811166   -0.948179    1.162369
    111          1           0       -9.236703   -0.736614    0.313287
    112          1           0       -7.507253    1.424511   -0.544743
    113          1           0       -7.168399    1.322101    1.156480
    114          1           0      -10.148868    1.290038    0.309952
    115          1           0       -9.526119    3.958601    0.718700
    116          1           0       -9.964562    3.227094   -0.838699
    117          1           0       -8.247378    3.403046   -0.378069
    118          1           0       -8.663581    2.598013    2.591617
    119          1           0       -9.160304    1.109701    2.921046
    120          1           0      -11.395554    2.753411    1.902523
    121          1           0      -10.582202    3.144736    3.452983
    122          1           0      -11.516750    1.204206    4.469077
    123          1           0      -11.150717    0.199435    3.198897
    124          1           0      -13.284919    2.025919    2.485829
    125          1           0      -13.571350    0.136702    4.713263
    126          1           0      -14.801590    0.189353    3.363450
    127          1           0      -14.344551    1.663944    4.145058
    128          1           0      -13.642998   -0.752878    1.505199
    129          1           0      -12.062664   -0.382812    1.270314
    130          1           0      -13.053126    1.961676    0.239482
    131          1           0      -14.543089    1.018845    0.220480
    132          1           0      -13.084727   -0.687835   -1.012181
    133          1           0      -11.857859    0.621695   -1.114517
    134          1           0      -14.325934    1.841144   -1.879921
    135          1           0      -14.626106    0.018013   -3.951279
    136          1           0      -15.701490    0.421872   -2.616881
    137          1           0      -14.722823   -1.110038   -2.668879
    138          1           0      -12.187054    2.328689   -2.664674
    139          1           0      -13.293465    2.043696   -4.076330
    140          1           0      -11.998212    1.014877   -3.651285
 ---------------------------------------------------------------------

 SCF Done:  E(RCAM-B3LYP) =  -3007.14559667     A.U. after   18 cycles

 Excitation energies and oscillator strengths:

 Excited State   1:      Singlet-A      1.7268 eV  717.99 nm  f=0.4033  <S**2>=0.000
     245 -> 248        0.16501
     246 -> 247        0.68892
     245 <- 248        0.10255
 This state for optimization and/or second-order correction.
 Total Energy, E(TD-HF/TD-DFT) =  -3007.08213738
 Copying the excited state density for this state as the 1-particle RhoCI density.

 Excited State   2:      Singlet-A      2.2318 eV  555.53 nm  f=0.1689  <S**2>=0.000
     245 -> 247        0.65676
     246 -> 248       -0.25140

 Excited State   3:      Singlet-A      3.1944 eV  388.13 nm  f=0.0002  <S**2>=0.000
     240 -> 247        0.54320
     240 -> 249       -0.27070
     240 -> 251        0.14621
     241 -> 247       -0.25610
     241 -> 249        0.12450

 Excited State   4:      Singlet-A      3.4150 eV  363.05 nm  f=0.0017  <S**2>=0.000
     240 -> 247        0.29145
     241 -> 247        0.55668
     242 -> 247        0.17924
     243 -> 247       -0.20649
     246 -> 248        0.10439

 Excited State   5:      Singlet-A      3.5445 eV  349.79 nm  f=0.0138  <S**2>=0.000
     241 -> 247        0.15287
     243 -> 247        0.62726
     246 -> 248        0.22533

 The electronic state is 1-A.
 Alpha  occ. eigenvalues --  -46.89173 -19.25727 -19.23467 -19.20785 -19.19407
 Alpha  occ. eigenvalues --  -19.18237 -19.18189 -14.41953 -14.41916 -14.39904
 Alpha  occ. eigenvalues --  -14.39764 -10.40645 -10.37827 -10.36115 -10.34670
 Alpha  occ. eigenvalues --  -10.32137 -10.32039 -10.30959 -10.30620 -10.30255
 Alpha  occ. eigenvalues --  -10.30097 -10.29815 -10.29793 -10.29681 -10.29419
 Alpha  occ. eigenvalues --  -10.28958 -10.28849 -10.28680 -10.28547 -10.28337
 Alpha  occ. eigenvalues --  -10.28168 -10.27984 -10.27556 -10.27546 -10.27223
 Alpha  occ. eigenvalues --  -10.27075 -10.26999 -10.26917 -10.26682 -10.26461
 Alpha  occ. eigenvalues --  -10.26376 -10.26370 -10.26243 -10.26225 -10.26195
 Alpha  occ. eigenvalues --  -10.26156 -10.26011 -10.25870 -10.25830 -10.25751
 Alpha  occ. eigenvalues --  -10.25499 -10.25423 -10.25419 -10.25340 -10.25254
 Alpha  occ. eigenvalues --  -10.24908 -10.24902 -10.24665 -10.24650 -10.24644
 Alpha  occ. eigenvalues --  -10.24639 -10.24456 -10.24410 -10.24293 -10.24285
 Alpha  occ. eigenvalues --  -10.23864  -3.17725  -1.92621  -1.92166  -1.92042
 Alpha  occ. eigenvalues --   -1.16239  -1.15013  -1.09291  -1.08092  -1.07306
 Alpha  occ. eigenvalues --   -1.05932  -1.05534  -1.04879  -1.03601  -1.03041
 Alpha  occ. eigenvalues --   -0.91562  -0.90687  -0.90343  -0.89357  -0.89112
 Alpha  occ. eigenvalues --   -0.88983  -0.88393  -0.88165  -0.88019  -0.87826
 Alpha  occ. eigenvalues --   -0.87353  -0.85278  -0.84019  -0.83641  -0.83095
 Alpha  occ. eigenvalues --   -0.82484  -0.81779  -0.81234  -0.80995  -0.80338
 Alpha  occ. eigenvalues --   -0.79917  -0.78785  -0.78154  -0.77066  -0.76242
 Alpha  occ. eigenvalues --   -0.75973  -0.75741  -0.75090  -0.74885  -0.74334
 Alpha  occ. eigenvalues --   -0.73722  -0.73117  -0.71990  -0.70649  -0.69368
 Alpha  occ. eigenvalues --   -0.68629  -0.67981  -0.67609  -0.66654  -0.65858
 Alpha  occ. eigenvalues --   -0.65569  -0.65417  -0.64583  -0.64446  -0.63988
 Alpha  occ. eigenvalues --   -0.63914  -0.63544  -0.62770  -0.60989  -0.60071
 Alpha  occ. eigenvalues --   -0.59989  -0.59629  -0.59308  -0.58333  -0.57946
 Alpha  occ. eigenvalues --   -0.57575  -0.57192  -0.56213  -0.55867  -0.55172
 Alpha  occ. eigenvalues --   -0.54824  -0.54800  -0.54608  -0.54460  -0.54043
 Alpha  occ. eigenvalues --   -0.53738  -0.53715  -0.52919  -0.52865  -0.52677
 Alpha  occ. eigenvalues --   -0.52419  -0.52291  -0.51947  -0.51817  -0.51785
 Alpha  occ. eigenvalues --   -0.51658  -0.51255  -0.51023  -0.50964  -0.50735
 Alpha  occ. eigenvalues --   -0.50532  -0.50115  -0.50076  -0.49806  -0.49708
 Alpha  occ. eigenvalues --   -0.49340  -0.49224  -0.49127  -0.48952  -0.48638
 Alpha  occ. eigenvalues --   -0.48469  -0.48378  -0.48106  -0.47960  -0.47690
 Alpha  occ. eigenvalues --   -0.47601  -0.47469  -0.47299  -0.47174  -0.46859
 Alpha  occ. eigenvalues --   -0.46689  -0.46306  -0.46145  -0.46060  -0.45889
 Alpha  occ. eigenvalues --   -0.45759  -0.45383  -0.45303  -0.45023  -0.44686
 Alpha  occ. eigenvalues --   -0.44565  -0.44409  -0.44266  -0.44120  -0.43736
 Alpha  occ. eigenvalues --   -0.43489  -0.43461  -0.43430  -0.43148  -0.43046
 Alpha  occ. eigenvalues --   -0.42841  -0.42710  -0.42405  -0.41925  -0.41782
 Alpha  occ. eigenvalues --   -0.41721  -0.41496  -0.41307  -0.41264  -0.41156
 Alpha  occ. eigenvalues --   -0.41054  -0.40786  -0.40741  -0.40567  -0.40441
 Alpha  occ. eigenvalues --   -0.40156  -0.40092  -0.39768  -0.39336  -0.39273
 Alpha  occ. eigenvalues --   -0.38483  -0.38331  -0.37974  -0.37616  -0.37205
 Alpha  occ. eigenvalues --   -0.37067  -0.37012  -0.36637  -0.36237  -0.35651
 Alpha  occ. eigenvalues --   -0.35200  -0.34867  -0.34766  -0.34707  -0.34139
 Alpha  occ. eigenvalues --   -0.34118  -0.33360  -0.33069  -0.31651  -0.30587
 Alpha  occ. eigenvalues --   -0.30444  -0.30353  -0.29785  -0.29661  -0.24187
 Alpha  occ. eigenvalues --   -0.21529
 Alpha virt. eigenvalues --   -0.09124  -0.01304   0.00238   0.01983   0.02363
 Alpha virt. eigenvalues --    0.04604   0.05341   0.05557   0.05854   0.06927
 Alpha virt. eigenvalues --    0.07377   0.08231   0.08619   0.08654   0.09058

 Mulliken charges:
               1
     1  Mg   0.833721
     2  C   -0.017941
     3  C   -0.102771
     4  C    0.001807
     5  C   -0.106429
     6  N   -0.278999
     7  C   -0.002445
     8  C   -0.034080
     9  C   -0.035694
    10  C    0.021090
    11  C    0.078321
    12  C    0.080220
    13  C    0.048216
    14  C    0.151574
    15  O   -0.242710
    16  O   -0.327490
    17  N   -0.289296
    18  C    0.143714
    19  C   -0.162735
    20  C   -0.027526
    21  C    0.118443
    22  C    0.128044
    23  C   -0.020409
    24  O   -0.207743
    25  C    0.048061
    26  N   -0.283463
    27  C   -0.049284
    28  C   -0.071381
    29  C   -0.037279
    30  C    0.083450
    31  C    0.078951
    32  C    0.010722
    33  C    0.000235
    34  N   -0.344542
    35  C    0.152654
    36  C   -0.158065
    37  C   -0.018190
    38  C    0.124498
    39  C    0.130400
    40  C    0.066637
    41  O   -0.210669
    42  C   -0.040134
    43  C    0.200809
    44  O   -0.246777
    45  O   -0.330042
    46  C    0.194212
    47  C    0.249627
    48  C   -0.109361
    49  C   -0.156688
    50  C    0.077632
    51  C    0.071279
    52  C    0.023099
    53  C    0.057733
    54  C   -0.141970
    55  C    0.068329
    56  C    0.010093
    57  C    0.043070
    58  C    0.049779
    59  C   -0.129393
    60  C    0.078211
    61  C    0.063535
    62  C   -0.040896
    63  C    0.082658
    64  C   -0.132622
    65  C    0.049531
    66  C    0.010364
    67  H   -0.044824
    68  H   -0.004004
    69  H   -0.019592
    70  H    0.014627
    71  H    0.016777
    72  H    0.000137
    73  H    0.018558
    74  H    0.025776
    75  H    0.013764
    76  H    0.053355
    77  H    0.039604
    78  H    0.036244
    79  H   -0.001397
    80  H    0.031074
    81  H    0.021328
    82  H    0.026299
    83  H    0.044049
    84  H    0.018515
    85  H    0.014626
    86  H    0.001904
    87  H    0.021722
    88  H    0.029198
    89  H    0.013424
    90  H    0.009691
    91  H   -0.006705
    92  H    0.009190
    93  H    0.017576
    94  H    0.025285
    95  H    0.025982
    96  H    0.046452
    97  H    0.052238
    98  H    0.048384
    99  H    0.031054
   100  H    0.016428
   101  H    0.042346
   102  H    0.019250
   103  H    0.037473
   104  H   -0.001729
   105  H    0.021720
   106  H    0.005568
   107  H    0.021709
   108  H   -0.000475
   109  H   -0.004818
   110  H   -0.006044
   111  H    0.001106
   112  H   -0.009149
   113  H    0.006953
   114  H    0.002823
   115  H    0.006274
   116  H    0.011825
   117  H    0.007988
   118  H   -0.030395
   119  H   -0.014529
   120  H   -0.002947
   121  H   -0.002402
   122  H   -0.011030
   123  H   -0.012528
   124  H   -0.003803
   125  H    0.014173
   126  H   -0.008562
   127  H   -0.000374
   128  H   -0.012843
   129  H   -0.011547
   130  H   -0.001819
   131  H    0.003113
   132  H   -0.014082
   133  H   -0.001973
   134  H    0.002144
   135  H   -0.002005
   136  H    0.009816
   137  H    0.016810
   138  H   -0.002306
   139  H    0.005877
   140  H   -0.002040
 Sum of Mulliken charges =  -0.00000

 Dipole moment (field-independent basis, Debye):
    X=             -2.9816    Y=              3.4917    Z=              0.3688  Tot=              4.6063
 Quadrupole moment (field-independent basis, Debye-Ang):
   XX=           -368.3328   YY=           -436.6715   ZZ=           -404.5606
   XY=             -4.2182   XZ=             11.1861   YZ=             -1.8246

 Normal termination of Gaussian 16 at Thu Apr 28 17:48:54 2022.
