 Gaussian 16, Revision A.03,
 Gaussian 16:  ES64L-G16RevA.03 25-Dec-2016

 ---------------------------------
 #p PBE1PBE/Def2SVP td=(nstates=5)
 ---------------------------------

 -----------------------------------------------------
 step_1701_chromophore_1 TDDFT with PBE1PBE functional
 -----------------------------------------------------
 Symbolic Z-matrix:
 Charge =  0 Multiplicity = 1

                         Standard orientation:
 ---------------------------------------------------------------------
 Center     Atomic      Atomic             Coordinates (Angstroms)
 Number     Number       Type             X           Y           Z
 ---------------------------------------------------------------------
      1         12           0        5.918976    0.425569   -0.013471
      2          6           0        3.929738   -2.382483   -0.563141
      3          6           0        3.460935    2.358320   -1.370959
      4          6           0        7.950941    3.083184    0.224116
      5          6           0        8.610543   -1.679534    0.815809
      6          7           0        3.941819    0.001764   -1.017320
      7          6           0        3.268364   -1.173346   -1.012583
      8          6           0        1.781950   -0.960764   -1.316740
      9          6           0        1.792346    0.590691   -1.813587
     10          6           0        3.149680    1.055332   -1.439380
     11          6           0        1.463394    0.776279   -3.305369
     12          6           0        0.916740   -1.270571   -0.051525
     13          6           0       -0.553827   -0.707333   -0.195326
     14          6           0       -1.654788   -1.780427   -0.456405
     15          8           0       -1.507007   -2.822442   -1.109351
     16          8           0       -2.848444   -1.438612    0.185104
     17          7           0        5.612423    2.464935   -0.405707
     18          6           0        4.607455    3.066940   -0.928568
     19          6           0        4.704565    4.472756   -0.854329
     20          6           0        6.073015    4.741535   -0.489561
     21          6           0        6.606497    3.371473   -0.218515
     22          6           0        3.688216    5.489046   -1.134943
     23          6           0        6.844139    6.006619   -0.289261
     24          8           0        8.042525    6.026536   -0.034563
     25          6           0        6.102178    7.365568   -0.394883
     26          7           0        8.021206    0.591909    0.362874
     27          6           0        8.578804    1.881134    0.445795
     28          6           0       10.123741    1.782235    0.777892
     29          6           0       10.173185    0.210840    1.268537
     30          6           0        8.786843   -0.332037    0.871449
     31          6           0       10.945053    2.085246   -0.512539
     32          6           0       10.470859    0.189807    2.765348
     33          6           0        9.374274    0.597316    3.767525
     34          7           0        6.211072   -1.583686    0.033305
     35          6           0        7.390620   -2.300227    0.426350
     36          6           0        7.200649   -3.724415    0.289619
     37          6           0        5.802532   -3.801658   -0.049738
     38          6           0        5.290872   -2.444618   -0.182515
     39          6           0        8.223258   -4.706192    0.618840
     40          6           0        4.700023   -4.751344   -0.337614
     41          8           0        4.621468   -6.016734   -0.265387
     42          6           0        3.387028   -3.827328   -0.750723
     43          6           0        2.324253   -4.318411    0.066415
     44          8           0        2.193052   -4.210773    1.282692
     45          8           0        1.468489   -5.064984   -0.698778
     46          6           0        0.287798   -5.597230   -0.024730
     47          6           0       -3.967249   -2.316275    0.017627
     48          6           0       -5.181287   -1.538087   -0.615029
     49          6           0       -6.411613   -2.050748   -0.719681
     50          6           0       -6.852718   -3.495883   -0.574657
     51          6           0       -7.517415   -1.124508   -1.013750
     52          6           0       -8.183727   -0.459257    0.261694
     53          6           0       -7.920622    1.082761    0.403577
     54          6           0       -9.274164    1.832237    0.668743
     55          6           0       -9.253753    3.198481   -0.012674
     56          6           0       -9.441101    1.916888    2.245671
     57          6           0      -10.807950    2.359560    2.731735
     58          6           0      -11.610244    1.170368    3.382999
     59          6           0      -12.983929    1.024686    2.792548
     60          6           0      -13.964217    0.683822    3.857161
     61          6           0      -13.004136    0.129142    1.469336
     62          6           0      -13.456098    0.948250    0.237151
     63          6           0      -12.920238    0.389291   -1.044709
     64          6           0      -13.751521    0.968232   -2.190349
     65          6           0      -14.745714   -0.038265   -2.868651
     66          6           0      -12.798185    1.608862   -3.208677
     67          1           0        2.619687    2.959736   -1.720668
     68          1           0        8.729683    3.830422    0.386724
     69          1           0        9.439814   -2.252439    1.236269
     70          1           0        1.432034   -1.606182   -2.121827
     71          1           0        1.204223    1.217838   -1.143620
     72          1           0        0.421050    1.043508   -3.484404
     73          1           0        1.429686   -0.149073   -3.879586
     74          1           0        2.013029    1.584993   -3.787822
     75          1           0        1.439106   -0.785062    0.774205
     76          1           0        0.828629   -2.329973    0.187890
     77          1           0       -0.691264   -0.204316   -1.152916
     78          1           0       -0.899586   -0.028650    0.584398
     79          1           0        2.672391    5.092999   -1.161924
     80          1           0        3.821988    5.957657   -2.108898
     81          1           0        3.668822    6.207668   -0.315444
     82          1           0        5.326686    7.407720    0.370199
     83          1           0        5.735012    7.436516   -1.418915
     84          1           0        6.741393    8.164253   -0.020289
     85          1           0       10.439920    2.393482    1.622882
     86          1           0       11.040442   -0.198814    0.750134
     87          1           0       11.616046    2.921174   -0.315459
     88          1           0       10.252991    2.401095   -1.292992
     89          1           0       11.507816    1.209169   -0.835225
     90          1           0       11.346583    0.755814    3.082436
     91          1           0       10.778293   -0.845537    2.911924
     92          1           0        9.779293    1.298295    4.496767
     93          1           0        8.990002   -0.211205    4.389877
     94          1           0        8.538139    1.098761    3.279365
     95          1           0        8.991876   -4.325682    1.292147
     96          1           0        8.611838   -4.865810   -0.387452
     97          1           0        7.725662   -5.571212    1.057401
     98          1           0        3.272441   -4.133135   -1.790435
     99          1           0       -0.217388   -6.255615   -0.731937
    100          1           0       -0.326751   -4.702430    0.075910
    101          1           0        0.390347   -6.055357    0.959648
    102          1           0       -4.251687   -2.628921    1.022716
    103          1           0       -3.834297   -3.281740   -0.470983
    104          1           0       -5.037364   -0.460936   -0.701111
    105          1           0       -7.182950   -3.636978    0.455118
    106          1           0       -6.069104   -4.240464   -0.711917
    107          1           0       -7.642092   -3.846731   -1.239812
    108          1           0       -8.238903   -1.559153   -1.706450
    109          1           0       -7.061994   -0.259613   -1.495569
    110          1           0       -7.811166   -0.948179    1.162369
    111          1           0       -9.236703   -0.736614    0.313287
    112          1           0       -7.507253    1.424511   -0.544743
    113          1           0       -7.168399    1.322101    1.156480
    114          1           0      -10.148868    1.290038    0.309952
    115          1           0       -9.526119    3.958601    0.718700
    116          1           0       -9.964562    3.227094   -0.838699
    117          1           0       -8.247378    3.403046   -0.378069
    118          1           0       -8.663581    2.598013    2.591617
    119          1           0       -9.160304    1.109701    2.921046
    120          1           0      -11.395554    2.753411    1.902523
    121          1           0      -10.582202    3.144736    3.452983
    122          1           0      -11.516750    1.204206    4.469077
    123          1           0      -11.150717    0.199435    3.198897
    124          1           0      -13.284919    2.025919    2.485829
    125          1           0      -13.571350    0.136702    4.713263
    126          1           0      -14.801590    0.189353    3.363450
    127          1           0      -14.344551    1.663944    4.145058
    128          1           0      -13.642998   -0.752878    1.505199
    129          1           0      -12.062664   -0.382812    1.270314
    130          1           0      -13.053126    1.961676    0.239482
    131          1           0      -14.543089    1.018845    0.220480
    132          1           0      -13.084727   -0.687835   -1.012181
    133          1           0      -11.857859    0.621695   -1.114517
    134          1           0      -14.325934    1.841144   -1.879921
    135          1           0      -14.626106    0.018013   -3.951279
    136          1           0      -15.701490    0.421872   -2.616881
    137          1           0      -14.722823   -1.110038   -2.668879
    138          1           0      -12.187054    2.328689   -2.664674
    139          1           0      -13.293465    2.043696   -4.076330
    140          1           0      -11.998212    1.014877   -3.651285
 ---------------------------------------------------------------------

 SCF Done:  E(RPBE1PBE) =  -3005.33437803     A.U. after   15 cycles

 Excitation energies and oscillator strengths:

 Excited State   1:      Singlet-A      1.8675 eV  663.92 nm  f=0.3908  <S**2>=0.000
     245 -> 248        0.16157
     246 -> 247        0.69555
     246 <- 247       -0.11122
 This state for optimization and/or second-order correction.
 Total Energy, E(TD-HF/TD-DFT) =  -3005.26574991
 Copying the excited state density for this state as the 1-particle RhoCI density.

 Excited State   2:      Singlet-A      2.2351 eV  554.72 nm  f=0.1573  <S**2>=0.000
     245 -> 247        0.66441
     246 -> 248       -0.22881

 Excited State   3:      Singlet-A      2.7589 eV  449.40 nm  f=0.0001  <S**2>=0.000
     243 -> 247        0.67680
     243 -> 249       -0.16279

 Excited State   4:      Singlet-A      2.9653 eV  418.12 nm  f=0.0003  <S**2>=0.000
     242 -> 247        0.67901
     242 -> 249        0.12446

 Excited State   5:      Singlet-A      3.1113 eV  398.49 nm  f=0.0001  <S**2>=0.000
     240 -> 247       -0.36166
     241 -> 247        0.59345

 The electronic state is 1-A.
 Alpha  occ. eigenvalues --  -46.92549 -19.26420 -19.24026 -19.21029 -19.19442
 Alpha  occ. eigenvalues --  -19.18706 -19.18289 -14.41487 -14.41364 -14.39520
 Alpha  occ. eigenvalues --  -14.39408 -10.37664 -10.34680 -10.33118 -10.32045
 Alpha  occ. eigenvalues --  -10.29673 -10.29456 -10.28338 -10.28264 -10.28199
 Alpha  occ. eigenvalues --  -10.28066 -10.27594 -10.27173 -10.26963 -10.26728
 Alpha  occ. eigenvalues --  -10.26709 -10.26680 -10.26397 -10.26355 -10.26216
 Alpha  occ. eigenvalues --  -10.25652 -10.25554 -10.25465 -10.25334 -10.25305
 Alpha  occ. eigenvalues --  -10.24490 -10.24484 -10.24484 -10.24300 -10.24101
 Alpha  occ. eigenvalues --  -10.24038 -10.23993 -10.23962 -10.23884 -10.23810
 Alpha  occ. eigenvalues --  -10.23803 -10.23560 -10.23559 -10.23397 -10.23222
 Alpha  occ. eigenvalues --  -10.23092 -10.23034 -10.22972 -10.22822 -10.22697
 Alpha  occ. eigenvalues --  -10.22594 -10.22482 -10.22187 -10.22169 -10.22069
 Alpha  occ. eigenvalues --  -10.22054 -10.22040 -10.21951 -10.21864 -10.21685
 Alpha  occ. eigenvalues --  -10.21229  -3.14682  -1.87519  -1.87042  -1.86922
 Alpha  occ. eigenvalues --   -1.11031  -1.09663  -1.04259  -1.02918  -1.01810
 Alpha  occ. eigenvalues --   -1.00624  -1.00518  -0.99380  -0.98161  -0.97644
 Alpha  occ. eigenvalues --   -0.85767  -0.84802  -0.84453  -0.83541  -0.83269
 Alpha  occ. eigenvalues --   -0.83150  -0.82763  -0.82390  -0.82302  -0.81954
 Alpha  occ. eigenvalues --   -0.81864  -0.79589  -0.78245  -0.77837  -0.77352
 Alpha  occ. eigenvalues --   -0.76670  -0.75982  -0.75468  -0.75312  -0.74601
 Alpha  occ. eigenvalues --   -0.74149  -0.73039  -0.72522  -0.71392  -0.70468
 Alpha  occ. eigenvalues --   -0.70296  -0.69833  -0.69321  -0.69041  -0.68526
 Alpha  occ. eigenvalues --   -0.68067  -0.67488  -0.66390  -0.65033  -0.63669
 Alpha  occ. eigenvalues --   -0.63096  -0.62252  -0.62109  -0.60874  -0.60302
 Alpha  occ. eigenvalues --   -0.59996  -0.59770  -0.59113  -0.58591  -0.58439
 Alpha  occ. eigenvalues --   -0.58059  -0.58021  -0.56995  -0.55465  -0.54753
 Alpha  occ. eigenvalues --   -0.54371  -0.54073  -0.53949  -0.52917  -0.52353
 Alpha  occ. eigenvalues --   -0.51960  -0.51646  -0.50842  -0.50337  -0.49674
 Alpha  occ. eigenvalues --   -0.49343  -0.49184  -0.49092  -0.48917  -0.48564
 Alpha  occ. eigenvalues --   -0.48212  -0.48148  -0.47500  -0.47421  -0.47185
 Alpha  occ. eigenvalues --   -0.46897  -0.46721  -0.46468  -0.46389  -0.46335
 Alpha  occ. eigenvalues --   -0.46162  -0.45856  -0.45527  -0.45497  -0.45404
 Alpha  occ. eigenvalues --   -0.45100  -0.44754  -0.44611  -0.44425  -0.44279
 Alpha  occ. eigenvalues --   -0.43890  -0.43883  -0.43675  -0.43551  -0.43316
 Alpha  occ. eigenvalues --   -0.43165  -0.43131  -0.42704  -0.42626  -0.42242
 Alpha  occ. eigenvalues --   -0.42135  -0.42082  -0.42004  -0.41789  -0.41496
 Alpha  occ. eigenvalues --   -0.41291  -0.41024  -0.40918  -0.40791  -0.40607
 Alpha  occ. eigenvalues --   -0.40500  -0.40210  -0.40064  -0.39695  -0.39405
 Alpha  occ. eigenvalues --   -0.39249  -0.39041  -0.38980  -0.38779  -0.38460
 Alpha  occ. eigenvalues --   -0.38440  -0.38260  -0.38135  -0.38002  -0.37920
 Alpha  occ. eigenvalues --   -0.37580  -0.37401  -0.37152  -0.36789  -0.36595
 Alpha  occ. eigenvalues --   -0.36544  -0.36298  -0.36162  -0.36060  -0.35932
 Alpha  occ. eigenvalues --   -0.35803  -0.35611  -0.35566  -0.35312  -0.35169
 Alpha  occ. eigenvalues --   -0.35040  -0.34913  -0.34533  -0.34286  -0.34060
 Alpha  occ. eigenvalues --   -0.33255  -0.33088  -0.33028  -0.32443  -0.32272
 Alpha  occ. eigenvalues --   -0.32063  -0.31802  -0.31497  -0.31145  -0.30738
 Alpha  occ. eigenvalues --   -0.30126  -0.29720  -0.29666  -0.29536  -0.29329
 Alpha  occ. eigenvalues --   -0.29070  -0.28838  -0.27894  -0.27207  -0.25915
 Alpha  occ. eigenvalues --   -0.25730  -0.25324  -0.25291  -0.24944  -0.21108
 Alpha  occ. eigenvalues --   -0.19133
 Alpha virt. eigenvalues --   -0.11548  -0.04958  -0.03964  -0.02066  -0.00746
 Alpha virt. eigenvalues --   -0.00044   0.00854   0.01131   0.01706   0.03514
 Alpha virt. eigenvalues --    0.03981   0.04129   0.04991   0.05362   0.05413

 Mulliken charges:
               1
     1  Mg   0.978139
     2  C   -0.002805
     3  C   -0.089450
     4  C    0.007225
     5  C   -0.083605
     6  N   -0.380254
     7  C    0.073911
     8  C   -0.102974
     9  C   -0.121219
    10  C    0.065651
    11  C    0.025724
    12  C    0.021208
    13  C   -0.030209
    14  C    0.219263
    15  O   -0.275343
    16  O   -0.360069
    17  N   -0.413217
    18  C    0.166181
    19  C   -0.184384
    20  C   -0.072759
    21  C    0.150940
    22  C    0.068182
    23  C    0.030563
    24  O   -0.242755
    25  C   -0.026403
    26  N   -0.390416
    27  C   -0.023434
    28  C   -0.138083
    29  C   -0.119745
    30  C    0.121535
    31  C    0.022607
    32  C   -0.045114
    33  C   -0.072390
    34  N   -0.475988
    35  C    0.158694
    36  C   -0.173307
    37  C   -0.064186
    38  C    0.161524
    39  C    0.070747
    40  C    0.157898
    41  O   -0.253066
    42  C   -0.152891
    43  C    0.291059
    44  O   -0.283291
    45  O   -0.363303
    46  C    0.134316
    47  C    0.213910
    48  C   -0.122984
    49  C   -0.200196
    50  C    0.017684
    51  C    0.001358
    52  C   -0.032539
    53  C    0.001639
    54  C   -0.245875
    55  C    0.007282
    56  C   -0.036203
    57  C   -0.023679
    58  C   -0.000367
    59  C   -0.218825
    60  C    0.016693
    61  C    0.012595
    62  C   -0.108416
    63  C    0.020853
    64  C   -0.225755
    65  C   -0.008207
    66  C   -0.053432
    67  H   -0.011624
    68  H    0.028102
    69  H    0.009810
    70  H    0.050625
    71  H    0.053572
    72  H    0.028027
    73  H    0.045896
    74  H    0.052076
    75  H    0.046987
    76  H    0.096151
    77  H    0.073899
    78  H    0.066415
    79  H    0.028097
    80  H    0.060342
    81  H    0.050404
    82  H    0.053456
    83  H    0.070845
    84  H    0.047182
    85  H    0.049826
    86  H    0.037718
    87  H    0.049269
    88  H    0.057302
    89  H    0.041313
    90  H    0.041504
    91  H    0.027306
    92  H    0.036401
    93  H    0.045517
    94  H    0.055138
    95  H    0.051141
    96  H    0.074345
    97  H    0.078268
    98  H    0.084851
    99  H    0.053171
   100  H    0.044327
   101  H    0.064018
   102  H    0.047229
   103  H    0.062650
   104  H    0.027724
   105  H    0.049553
   106  H    0.033014
   107  H    0.047386
   108  H    0.031288
   109  H    0.029280
   110  H    0.027007
   111  H    0.034065
   112  H    0.022884
   113  H    0.037972
   114  H    0.054101
   115  H    0.034026
   116  H    0.040916
   117  H    0.035133
   118  H    0.002938
   119  H    0.017655
   120  H    0.030799
   121  H    0.030919
   122  H    0.020820
   123  H    0.020098
   124  H    0.034852
   125  H    0.040739
   126  H    0.020600
   127  H    0.028395
   128  H    0.019406
   129  H    0.020987
   130  H    0.032508
   131  H    0.036856
   132  H    0.020145
   133  H    0.033535
   134  H    0.038979
   135  H    0.025602
   136  H    0.037000
   137  H    0.042358
   138  H    0.028599
   139  H    0.033762
   140  H    0.026303
 Sum of Mulliken charges =  -0.00000

 Dipole moment (field-independent basis, Debye):
    X=             -3.0605    Y=              4.1671    Z=              0.3466  Tot=              5.1818
 Quadrupole moment (field-independent basis, Debye-Ang):
   XX=           -363.6643   YY=           -433.2055   ZZ=           -401.9116
   XY=             -0.5535   XZ=             11.5114   YZ=             -2.2066

 Normal termination of Gaussian 16 at Thu Apr 28 18:09:16 2022.
