 Gaussian 16, Revision A.03,
 Gaussian 16:  ES64L-G16RevA.03 25-Dec-2016

 --------------------------------
 #p wB97XD/Def2SVP td=(nstates=5)
 --------------------------------

 ----------------------------------------------------
 step_1701_chromophore_1 TDDFT with wB97XD functional
 ----------------------------------------------------
 Symbolic Z-matrix:
 Charge =  0 Multiplicity = 1

                         Standard orientation:
 ---------------------------------------------------------------------
 Center     Atomic      Atomic             Coordinates (Angstroms)
 Number     Number       Type             X           Y           Z
 ---------------------------------------------------------------------
      1         12           0        5.918976    0.425569   -0.013471
      2          6           0        3.929738   -2.382483   -0.563141
      3          6           0        3.460935    2.358320   -1.370959
      4          6           0        7.950941    3.083184    0.224116
      5          6           0        8.610543   -1.679534    0.815809
      6          7           0        3.941819    0.001764   -1.017320
      7          6           0        3.268364   -1.173346   -1.012583
      8          6           0        1.781950   -0.960764   -1.316740
      9          6           0        1.792346    0.590691   -1.813587
     10          6           0        3.149680    1.055332   -1.439380
     11          6           0        1.463394    0.776279   -3.305369
     12          6           0        0.916740   -1.270571   -0.051525
     13          6           0       -0.553827   -0.707333   -0.195326
     14          6           0       -1.654788   -1.780427   -0.456405
     15          8           0       -1.507007   -2.822442   -1.109351
     16          8           0       -2.848444   -1.438612    0.185104
     17          7           0        5.612423    2.464935   -0.405707
     18          6           0        4.607455    3.066940   -0.928568
     19          6           0        4.704565    4.472756   -0.854329
     20          6           0        6.073015    4.741535   -0.489561
     21          6           0        6.606497    3.371473   -0.218515
     22          6           0        3.688216    5.489046   -1.134943
     23          6           0        6.844139    6.006619   -0.289261
     24          8           0        8.042525    6.026536   -0.034563
     25          6           0        6.102178    7.365568   -0.394883
     26          7           0        8.021206    0.591909    0.362874
     27          6           0        8.578804    1.881134    0.445795
     28          6           0       10.123741    1.782235    0.777892
     29          6           0       10.173185    0.210840    1.268537
     30          6           0        8.786843   -0.332037    0.871449
     31          6           0       10.945053    2.085246   -0.512539
     32          6           0       10.470859    0.189807    2.765348
     33          6           0        9.374274    0.597316    3.767525
     34          7           0        6.211072   -1.583686    0.033305
     35          6           0        7.390620   -2.300227    0.426350
     36          6           0        7.200649   -3.724415    0.289619
     37          6           0        5.802532   -3.801658   -0.049738
     38          6           0        5.290872   -2.444618   -0.182515
     39          6           0        8.223258   -4.706192    0.618840
     40          6           0        4.700023   -4.751344   -0.337614
     41          8           0        4.621468   -6.016734   -0.265387
     42          6           0        3.387028   -3.827328   -0.750723
     43          6           0        2.324253   -4.318411    0.066415
     44          8           0        2.193052   -4.210773    1.282692
     45          8           0        1.468489   -5.064984   -0.698778
     46          6           0        0.287798   -5.597230   -0.024730
     47          6           0       -3.967249   -2.316275    0.017627
     48          6           0       -5.181287   -1.538087   -0.615029
     49          6           0       -6.411613   -2.050748   -0.719681
     50          6           0       -6.852718   -3.495883   -0.574657
     51          6           0       -7.517415   -1.124508   -1.013750
     52          6           0       -8.183727   -0.459257    0.261694
     53          6           0       -7.920622    1.082761    0.403577
     54          6           0       -9.274164    1.832237    0.668743
     55          6           0       -9.253753    3.198481   -0.012674
     56          6           0       -9.441101    1.916888    2.245671
     57          6           0      -10.807950    2.359560    2.731735
     58          6           0      -11.610244    1.170368    3.382999
     59          6           0      -12.983929    1.024686    2.792548
     60          6           0      -13.964217    0.683822    3.857161
     61          6           0      -13.004136    0.129142    1.469336
     62          6           0      -13.456098    0.948250    0.237151
     63          6           0      -12.920238    0.389291   -1.044709
     64          6           0      -13.751521    0.968232   -2.190349
     65          6           0      -14.745714   -0.038265   -2.868651
     66          6           0      -12.798185    1.608862   -3.208677
     67          1           0        2.619687    2.959736   -1.720668
     68          1           0        8.729683    3.830422    0.386724
     69          1           0        9.439814   -2.252439    1.236269
     70          1           0        1.432034   -1.606182   -2.121827
     71          1           0        1.204223    1.217838   -1.143620
     72          1           0        0.421050    1.043508   -3.484404
     73          1           0        1.429686   -0.149073   -3.879586
     74          1           0        2.013029    1.584993   -3.787822
     75          1           0        1.439106   -0.785062    0.774205
     76          1           0        0.828629   -2.329973    0.187890
     77          1           0       -0.691264   -0.204316   -1.152916
     78          1           0       -0.899586   -0.028650    0.584398
     79          1           0        2.672391    5.092999   -1.161924
     80          1           0        3.821988    5.957657   -2.108898
     81          1           0        3.668822    6.207668   -0.315444
     82          1           0        5.326686    7.407720    0.370199
     83          1           0        5.735012    7.436516   -1.418915
     84          1           0        6.741393    8.164253   -0.020289
     85          1           0       10.439920    2.393482    1.622882
     86          1           0       11.040442   -0.198814    0.750134
     87          1           0       11.616046    2.921174   -0.315459
     88          1           0       10.252991    2.401095   -1.292992
     89          1           0       11.507816    1.209169   -0.835225
     90          1           0       11.346583    0.755814    3.082436
     91          1           0       10.778293   -0.845537    2.911924
     92          1           0        9.779293    1.298295    4.496767
     93          1           0        8.990002   -0.211205    4.389877
     94          1           0        8.538139    1.098761    3.279365
     95          1           0        8.991876   -4.325682    1.292147
     96          1           0        8.611838   -4.865810   -0.387452
     97          1           0        7.725662   -5.571212    1.057401
     98          1           0        3.272441   -4.133135   -1.790435
     99          1           0       -0.217388   -6.255615   -0.731937
    100          1           0       -0.326751   -4.702430    0.075910
    101          1           0        0.390347   -6.055357    0.959648
    102          1           0       -4.251687   -2.628921    1.022716
    103          1           0       -3.834297   -3.281740   -0.470983
    104          1           0       -5.037364   -0.460936   -0.701111
    105          1           0       -7.182950   -3.636978    0.455118
    106          1           0       -6.069104   -4.240464   -0.711917
    107          1           0       -7.642092   -3.846731   -1.239812
    108          1           0       -8.238903   -1.559153   -1.706450
    109          1           0       -7.061994   -0.259613   -1.495569
    110          1           0       -7.811166   -0.948179    1.162369
    111          1           0       -9.236703   -0.736614    0.313287
    112          1           0       -7.507253    1.424511   -0.544743
    113          1           0       -7.168399    1.322101    1.156480
    114          1           0      -10.148868    1.290038    0.309952
    115          1           0       -9.526119    3.958601    0.718700
    116          1           0       -9.964562    3.227094   -0.838699
    117          1           0       -8.247378    3.403046   -0.378069
    118          1           0       -8.663581    2.598013    2.591617
    119          1           0       -9.160304    1.109701    2.921046
    120          1           0      -11.395554    2.753411    1.902523
    121          1           0      -10.582202    3.144736    3.452983
    122          1           0      -11.516750    1.204206    4.469077
    123          1           0      -11.150717    0.199435    3.198897
    124          1           0      -13.284919    2.025919    2.485829
    125          1           0      -13.571350    0.136702    4.713263
    126          1           0      -14.801590    0.189353    3.363450
    127          1           0      -14.344551    1.663944    4.145058
    128          1           0      -13.642998   -0.752878    1.505199
    129          1           0      -12.062664   -0.382812    1.270314
    130          1           0      -13.053126    1.961676    0.239482
    131          1           0      -14.543089    1.018845    0.220480
    132          1           0      -13.084727   -0.687835   -1.012181
    133          1           0      -11.857859    0.621695   -1.114517
    134          1           0      -14.325934    1.841144   -1.879921
    135          1           0      -14.626106    0.018013   -3.951279
    136          1           0      -15.701490    0.421872   -2.616881
    137          1           0      -14.722823   -1.110038   -2.668879
    138          1           0      -12.187054    2.328689   -2.664674
    139          1           0      -13.293465    2.043696   -4.076330
    140          1           0      -11.998212    1.014877   -3.651285
 ---------------------------------------------------------------------

 SCF Done:  E(RwB97XD) =  -3007.84583850     A.U. after   19 cycles

 Excitation energies and oscillator strengths:

 Excited State   1:      Singlet-A      1.6832 eV  736.58 nm  f=0.4027  <S**2>=0.000
     245 -> 248        0.16924
     246 -> 247        0.68658
     245 <- 248        0.11049
 This state for optimization and/or second-order correction.
 Total Energy, E(TD-HF/TD-DFT) =  -3007.78398023
 Copying the excited state density for this state as the 1-particle RhoCI density.

 Excited State   2:      Singlet-A      2.1800 eV  568.72 nm  f=0.1644  <S**2>=0.000
     245 -> 247        0.65457
     246 -> 248       -0.25456

 Excited State   3:      Singlet-A      3.2168 eV  385.43 nm  f=0.0002  <S**2>=0.000
     240 -> 247        0.25379
     240 -> 249       -0.13941
     241 -> 247        0.53759
     241 -> 249       -0.28826
     241 -> 250        0.14422

 Excited State   4:      Singlet-A      3.4220 eV  362.32 nm  f=0.0018  <S**2>=0.000
     240 -> 247        0.59565
     241 -> 247       -0.27748
     243 -> 247       -0.14580
     246 -> 248        0.13307

 Excited State   5:      Singlet-A      3.6101 eV  343.44 nm  f=0.0824  <S**2>=0.000
     243 -> 247        0.58051
     243 -> 249        0.11218
     246 -> 248        0.33954

 The electronic state is 1-A.
 Alpha  occ. eigenvalues --  -46.95520 -19.30988 -19.28746 -19.25729 -19.24594
 Alpha  occ. eigenvalues --  -19.23195 -19.23183 -14.46563 -14.46503 -14.44551
 Alpha  occ. eigenvalues --  -14.44274 -10.44479 -10.41711 -10.40281 -10.38564
 Alpha  occ. eigenvalues --  -10.36225 -10.35938 -10.35137 -10.34665 -10.34245
 Alpha  occ. eigenvalues --  -10.34044 -10.33891 -10.33658 -10.33620 -10.33580
 Alpha  occ. eigenvalues --  -10.33033 -10.32799 -10.32726 -10.32548 -10.32376
 Alpha  occ. eigenvalues --  -10.32269 -10.32002 -10.31616 -10.31607 -10.31230
 Alpha  occ. eigenvalues --  -10.31199 -10.31164 -10.30867 -10.30658 -10.30383
 Alpha  occ. eigenvalues --  -10.30306 -10.30248 -10.30228 -10.30194 -10.30156
 Alpha  occ. eigenvalues --  -10.30025 -10.29986 -10.29824 -10.29778 -10.29562
 Alpha  occ. eigenvalues --  -10.29441 -10.29379 -10.29252 -10.29184 -10.29165
 Alpha  occ. eigenvalues --  -10.28869 -10.28842 -10.28556 -10.28545 -10.28474
 Alpha  occ. eigenvalues --  -10.28470 -10.28393 -10.28314 -10.28219 -10.28102
 Alpha  occ. eigenvalues --  -10.27663  -3.21509  -1.95095  -1.94620  -1.94495
 Alpha  occ. eigenvalues --   -1.18433  -1.17229  -1.11425  -1.10293  -1.09639
 Alpha  occ. eigenvalues --   -1.08180  -1.07506  -1.06972  -1.05606  -1.05065
 Alpha  occ. eigenvalues --   -0.93564  -0.92473  -0.92110  -0.91329  -0.90951
 Alpha  occ. eigenvalues --   -0.90803  -0.90322  -0.90076  -0.89901  -0.89605
 Alpha  occ. eigenvalues --   -0.89220  -0.87174  -0.85914  -0.85517  -0.84960
 Alpha  occ. eigenvalues --   -0.84309  -0.83700  -0.83146  -0.82879  -0.82198
 Alpha  occ. eigenvalues --   -0.81865  -0.80732  -0.80031  -0.78973  -0.78108
 Alpha  occ. eigenvalues --   -0.77882  -0.77519  -0.77046  -0.76699  -0.76171
 Alpha  occ. eigenvalues --   -0.75687  -0.75075  -0.73921  -0.72599  -0.71292
 Alpha  occ. eigenvalues --   -0.70603  -0.69867  -0.69607  -0.68505  -0.67811
 Alpha  occ. eigenvalues --   -0.67430  -0.67398  -0.66556  -0.66251  -0.65977
 Alpha  occ. eigenvalues --   -0.65718  -0.65506  -0.64604  -0.63025  -0.62055
 Alpha  occ. eigenvalues --   -0.61901  -0.61628  -0.61303  -0.60321  -0.59914
 Alpha  occ. eigenvalues --   -0.59506  -0.59192  -0.58186  -0.57781  -0.57129
 Alpha  occ. eigenvalues --   -0.56754  -0.56679  -0.56517  -0.56393  -0.55995
 Alpha  occ. eigenvalues --   -0.55735  -0.55572  -0.54799  -0.54758  -0.54609
 Alpha  occ. eigenvalues --   -0.54322  -0.54222  -0.53838  -0.53768  -0.53673
 Alpha  occ. eigenvalues --   -0.53584  -0.53149  -0.52946  -0.52884  -0.52622
 Alpha  occ. eigenvalues --   -0.52418  -0.51990  -0.51970  -0.51726  -0.51605
 Alpha  occ. eigenvalues --   -0.51199  -0.51144  -0.51096  -0.50865  -0.50562
 Alpha  occ. eigenvalues --   -0.50372  -0.50271  -0.50065  -0.49876  -0.49637
 Alpha  occ. eigenvalues --   -0.49511  -0.49329  -0.49197  -0.49095  -0.48766
 Alpha  occ. eigenvalues --   -0.48531  -0.48233  -0.48052  -0.47969  -0.47731
 Alpha  occ. eigenvalues --   -0.47679  -0.47296  -0.47251  -0.46891  -0.46594
 Alpha  occ. eigenvalues --   -0.46485  -0.46365  -0.46176  -0.45964  -0.45628
 Alpha  occ. eigenvalues --   -0.45390  -0.45341  -0.45284  -0.45112  -0.44951
 Alpha  occ. eigenvalues --   -0.44815  -0.44563  -0.44383  -0.43877  -0.43682
 Alpha  occ. eigenvalues --   -0.43628  -0.43482  -0.43257  -0.43213  -0.43100
 Alpha  occ. eigenvalues --   -0.42948  -0.42700  -0.42624  -0.42417  -0.42281
 Alpha  occ. eigenvalues --   -0.42036  -0.41970  -0.41637  -0.41214  -0.41120
 Alpha  occ. eigenvalues --   -0.40307  -0.40154  -0.39900  -0.39479  -0.39360
 Alpha  occ. eigenvalues --   -0.38985  -0.38834  -0.38524  -0.38155  -0.37595
 Alpha  occ. eigenvalues --   -0.37027  -0.36819  -0.36713  -0.36594  -0.36124
 Alpha  occ. eigenvalues --   -0.35971  -0.35543  -0.35134  -0.33867  -0.32765
 Alpha  occ. eigenvalues --   -0.32611  -0.32227  -0.31879  -0.31682  -0.26123
 Alpha  occ. eigenvalues --   -0.23352
 Alpha virt. eigenvalues --   -0.07477   0.00640   0.02274   0.04434   0.05179
 Alpha virt. eigenvalues --    0.06801   0.07380   0.07824   0.08401   0.09819
 Alpha virt. eigenvalues --    0.10591   0.10720   0.11760   0.12029   0.12129

 Mulliken charges:
               1
     1  Mg   0.969494
     2  C   -0.023722
     3  C   -0.106095
     4  C   -0.005757
     5  C   -0.107213
     6  N   -0.347095
     7  C    0.043945
     8  C   -0.078590
     9  C   -0.091180
    10  C    0.048325
    11  C    0.033331
    12  C    0.039601
    13  C   -0.011718
    14  C    0.208684
    15  O   -0.272376
    16  O   -0.358842
    17  N   -0.375643
    18  C    0.156026
    19  C   -0.178117
    20  C   -0.070100
    21  C    0.136139
    22  C    0.079975
    23  C    0.025780
    24  O   -0.240035
    25  C   -0.012934
    26  N   -0.353239
    27  C   -0.035104
    28  C   -0.116493
    29  C   -0.089715
    30  C    0.105439
    31  C    0.032549
    32  C   -0.034918
    33  C   -0.054428
    34  N   -0.438895
    35  C    0.161427
    36  C   -0.163735
    37  C   -0.064054
    38  C    0.156862
    39  C    0.081099
    40  C    0.140799
    41  O   -0.242511
    42  C   -0.110763
    43  C    0.265924
    44  O   -0.275271
    45  O   -0.361084
    46  C    0.154155
    47  C    0.226103
    48  C   -0.132074
    49  C   -0.186539
    50  C    0.029298
    51  C    0.026817
    52  C   -0.020279
    53  C    0.018368
    54  C   -0.190407
    55  C    0.018258
    56  C   -0.024277
    57  C   -0.003158
    58  C    0.011815
    59  C   -0.182335
    60  C    0.028125
    61  C    0.023819
    62  C   -0.083008
    63  C    0.040350
    64  C   -0.195805
    65  C    0.000935
    66  C   -0.037847
    67  H   -0.021502
    68  H    0.023745
    69  H    0.004690
    70  H    0.041459
    71  H    0.041801
    72  H    0.021569
    73  H    0.039777
    74  H    0.047359
    75  H    0.040227
    76  H    0.075846
    77  H    0.063769
    78  H    0.064059
    79  H    0.021897
    80  H    0.054188
    81  H    0.042191
    82  H    0.046995
    83  H    0.065012
    84  H    0.044660
    85  H    0.040305
    86  H    0.028909
    87  H    0.044100
    88  H    0.050567
    89  H    0.034340
    90  H    0.035039
    91  H    0.018306
    92  H    0.032077
    93  H    0.040152
    94  H    0.044356
    95  H    0.047927
    96  H    0.070512
    97  H    0.076376
    98  H    0.079542
    99  H    0.050731
   100  H    0.033960
   101  H    0.060924
   102  H    0.041738
   103  H    0.057307
   104  H    0.024348
   105  H    0.043446
   106  H    0.027323
   107  H    0.043387
   108  H    0.025355
   109  H    0.017026
   110  H    0.017552
   111  H    0.024585
   112  H    0.010678
   113  H    0.030542
   114  H    0.016178
   115  H    0.027562
   116  H    0.035640
   117  H    0.029401
   118  H   -0.007109
   119  H    0.007907
   120  H    0.014804
   121  H    0.024905
   122  H    0.014543
   123  H    0.007469
   124  H    0.019716
   125  H    0.035502
   126  H    0.013995
   127  H    0.022646
   128  H    0.012062
   129  H    0.008626
   130  H    0.017528
   131  H    0.027241
   132  H    0.009726
   133  H    0.021221
   134  H    0.027430
   135  H    0.019559
   136  H    0.031208
   137  H    0.037886
   138  H    0.019245
   139  H    0.028374
   140  H    0.019494
 Sum of Mulliken charges =  -0.00000

 Dipole moment (field-independent basis, Debye):
    X=             -2.9865    Y=              3.3371    Z=              0.4670  Tot=              4.5026
 Quadrupole moment (field-independent basis, Debye-Ang):
   XX=           -363.0948   YY=           -432.3896   ZZ=           -401.5879
   XY=             -5.2450   XZ=             12.0508   YZ=             -1.9649

 Normal termination of Gaussian 16 at Thu Apr 28 18:42:09 2022.
