 Gaussian 16, Revision A.03,
 Gaussian 16:  ES64L-G16RevA.03 25-Dec-2016

 --------------------
 #p ZINDO=(nstates=5)
 --------------------

 -----------------------------
 step_1701_chromophore_1 ZINDO
 -----------------------------
 Symbolic Z-matrix:
 Charge =  0 Multiplicity = 1

                         Standard orientation:
 ---------------------------------------------------------------------
 Center     Atomic      Atomic             Coordinates (Angstroms)
 Number     Number       Type             X           Y           Z
 ---------------------------------------------------------------------
      1         12           0        5.918976    0.425569   -0.013471
      2          6           0        3.929738   -2.382483   -0.563141
      3          6           0        3.460935    2.358320   -1.370959
      4          6           0        7.950941    3.083184    0.224116
      5          6           0        8.610543   -1.679534    0.815809
      6          7           0        3.941819    0.001764   -1.017320
      7          6           0        3.268364   -1.173346   -1.012583
      8          6           0        1.781950   -0.960764   -1.316740
      9          6           0        1.792346    0.590691   -1.813587
     10          6           0        3.149680    1.055332   -1.439380
     11          6           0        1.463394    0.776279   -3.305369
     12          6           0        0.916740   -1.270571   -0.051525
     13          6           0       -0.553827   -0.707333   -0.195326
     14          6           0       -1.654788   -1.780427   -0.456405
     15          8           0       -1.507007   -2.822442   -1.109351
     16          8           0       -2.848444   -1.438612    0.185104
     17          7           0        5.612423    2.464935   -0.405707
     18          6           0        4.607455    3.066940   -0.928568
     19          6           0        4.704565    4.472756   -0.854329
     20          6           0        6.073015    4.741535   -0.489561
     21          6           0        6.606497    3.371473   -0.218515
     22          6           0        3.688216    5.489046   -1.134943
     23          6           0        6.844139    6.006619   -0.289261
     24          8           0        8.042525    6.026536   -0.034563
     25          6           0        6.102178    7.365568   -0.394883
     26          7           0        8.021206    0.591909    0.362874
     27          6           0        8.578804    1.881134    0.445795
     28          6           0       10.123741    1.782235    0.777892
     29          6           0       10.173185    0.210840    1.268537
     30          6           0        8.786843   -0.332037    0.871449
     31          6           0       10.945053    2.085246   -0.512539
     32          6           0       10.470859    0.189807    2.765348
     33          6           0        9.374274    0.597316    3.767525
     34          7           0        6.211072   -1.583686    0.033305
     35          6           0        7.390620   -2.300227    0.426350
     36          6           0        7.200649   -3.724415    0.289619
     37          6           0        5.802532   -3.801658   -0.049738
     38          6           0        5.290872   -2.444618   -0.182515
     39          6           0        8.223258   -4.706192    0.618840
     40          6           0        4.700023   -4.751344   -0.337614
     41          8           0        4.621468   -6.016734   -0.265387
     42          6           0        3.387028   -3.827328   -0.750723
     43          6           0        2.324253   -4.318411    0.066415
     44          8           0        2.193052   -4.210773    1.282692
     45          8           0        1.468489   -5.064984   -0.698778
     46          6           0        0.287798   -5.597230   -0.024730
     47          6           0       -3.967249   -2.316275    0.017627
     48          6           0       -5.181287   -1.538087   -0.615029
     49          6           0       -6.411613   -2.050748   -0.719681
     50          6           0       -6.852718   -3.495883   -0.574657
     51          6           0       -7.517415   -1.124508   -1.013750
     52          6           0       -8.183727   -0.459257    0.261694
     53          6           0       -7.920622    1.082761    0.403577
     54          6           0       -9.274164    1.832237    0.668743
     55          6           0       -9.253753    3.198481   -0.012674
     56          6           0       -9.441101    1.916888    2.245671
     57          6           0      -10.807950    2.359560    2.731735
     58          6           0      -11.610244    1.170368    3.382999
     59          6           0      -12.983929    1.024686    2.792548
     60          6           0      -13.964217    0.683822    3.857161
     61          6           0      -13.004136    0.129142    1.469336
     62          6           0      -13.456098    0.948250    0.237151
     63          6           0      -12.920238    0.389291   -1.044709
     64          6           0      -13.751521    0.968232   -2.190349
     65          6           0      -14.745714   -0.038265   -2.868651
     66          6           0      -12.798185    1.608862   -3.208677
     67          1           0        2.619687    2.959736   -1.720668
     68          1           0        8.729683    3.830422    0.386724
     69          1           0        9.439814   -2.252439    1.236269
     70          1           0        1.432034   -1.606182   -2.121827
     71          1           0        1.204223    1.217838   -1.143620
     72          1           0        0.421050    1.043508   -3.484404
     73          1           0        1.429686   -0.149073   -3.879586
     74          1           0        2.013029    1.584993   -3.787822
     75          1           0        1.439106   -0.785062    0.774205
     76          1           0        0.828629   -2.329973    0.187890
     77          1           0       -0.691264   -0.204316   -1.152916
     78          1           0       -0.899586   -0.028650    0.584398
     79          1           0        2.672391    5.092999   -1.161924
     80          1           0        3.821988    5.957657   -2.108898
     81          1           0        3.668822    6.207668   -0.315444
     82          1           0        5.326686    7.407720    0.370199
     83          1           0        5.735012    7.436516   -1.418915
     84          1           0        6.741393    8.164253   -0.020289
     85          1           0       10.439920    2.393482    1.622882
     86          1           0       11.040442   -0.198814    0.750134
     87          1           0       11.616046    2.921174   -0.315459
     88          1           0       10.252991    2.401095   -1.292992
     89          1           0       11.507816    1.209169   -0.835225
     90          1           0       11.346583    0.755814    3.082436
     91          1           0       10.778293   -0.845537    2.911924
     92          1           0        9.779293    1.298295    4.496767
     93          1           0        8.990002   -0.211205    4.389877
     94          1           0        8.538139    1.098761    3.279365
     95          1           0        8.991876   -4.325682    1.292147
     96          1           0        8.611838   -4.865810   -0.387452
     97          1           0        7.725662   -5.571212    1.057401
     98          1           0        3.272441   -4.133135   -1.790435
     99          1           0       -0.217388   -6.255615   -0.731937
    100          1           0       -0.326751   -4.702430    0.075910
    101          1           0        0.390347   -6.055357    0.959648
    102          1           0       -4.251687   -2.628921    1.022716
    103          1           0       -3.834297   -3.281740   -0.470983
    104          1           0       -5.037364   -0.460936   -0.701111
    105          1           0       -7.182950   -3.636978    0.455118
    106          1           0       -6.069104   -4.240464   -0.711917
    107          1           0       -7.642092   -3.846731   -1.239812
    108          1           0       -8.238903   -1.559153   -1.706450
    109          1           0       -7.061994   -0.259613   -1.495569
    110          1           0       -7.811166   -0.948179    1.162369
    111          1           0       -9.236703   -0.736614    0.313287
    112          1           0       -7.507253    1.424511   -0.544743
    113          1           0       -7.168399    1.322101    1.156480
    114          1           0      -10.148868    1.290038    0.309952
    115          1           0       -9.526119    3.958601    0.718700
    116          1           0       -9.964562    3.227094   -0.838699
    117          1           0       -8.247378    3.403046   -0.378069
    118          1           0       -8.663581    2.598013    2.591617
    119          1           0       -9.160304    1.109701    2.921046
    120          1           0      -11.395554    2.753411    1.902523
    121          1           0      -10.582202    3.144736    3.452983
    122          1           0      -11.516750    1.204206    4.469077
    123          1           0      -11.150717    0.199435    3.198897
    124          1           0      -13.284919    2.025919    2.485829
    125          1           0      -13.571350    0.136702    4.713263
    126          1           0      -14.801590    0.189353    3.363450
    127          1           0      -14.344551    1.663944    4.145058
    128          1           0      -13.642998   -0.752878    1.505199
    129          1           0      -12.062664   -0.382812    1.270314
    130          1           0      -13.053126    1.961676    0.239482
    131          1           0      -14.543089    1.018845    0.220480
    132          1           0      -13.084727   -0.687835   -1.012181
    133          1           0      -11.857859    0.621695   -1.114517
    134          1           0      -14.325934    1.841144   -1.879921
    135          1           0      -14.626106    0.018013   -3.951279
    136          1           0      -15.701490    0.421872   -2.616881
    137          1           0      -14.722823   -1.110038   -2.668879
    138          1           0      -12.187054    2.328689   -2.664674
    139          1           0      -13.293465    2.043696   -4.076330
    140          1           0      -11.998212    1.014877   -3.651285
 ---------------------------------------------------------------------

 SCF Done:  E(RZINDO/S) =  -474.316735736     A.U. after   19 cycles

 Excitation energies and oscillator strengths:

 Excited State   1:      Singlet-A      1.2650 eV  980.11 nm  f=0.6034  <S**2>=0.000
     175 ->178        -0.16594
     176 ->177         0.66996
 This state for optimization and/or second-order correction.
 Total Energy, E(CIS/TDA) =  -474.270247794
 Copying the excited state density for this state as the 1-particle RhoCI density.

 Excited State   2:      Singlet-A      1.9482 eV  636.39 nm  f=0.1057  <S**2>=0.000
     175 ->177         0.58388
     176 ->178         0.35671

 Excited State   3:      Singlet-A      2.8791 eV  430.64 nm  f=0.0020  <S**2>=0.000
     168 ->177         0.40534
     168 ->178        -0.13803
     168 ->179        -0.40743
     168 ->180         0.19184
     168 ->186        -0.18777

 Excited State   4:      Singlet-A      3.0121 eV  411.62 nm  f=0.8870  <S**2>=0.000
     171 ->177        -0.16245
     175 ->177        -0.32450
     176 ->178         0.54779
     176 ->180        -0.11172

 Excited State   5:      Singlet-A      3.0416 eV  407.63 nm  f=0.0055  <S**2>=0.000
     170 ->177         0.25684
     170 ->178        -0.12273
     170 ->179         0.27770
     170 ->180         0.41247
     170 ->183        -0.11680
     170 ->184        -0.11256
     170 ->186         0.18133
     170 ->188         0.19807
     170 ->201        -0.12500

 The electronic state is 1-A.
 Alpha  occ. eigenvalues --   -1.84459  -1.83295  -1.80200  -1.73098  -1.72070
 Alpha  occ. eigenvalues --   -1.70354  -1.66943  -1.60666  -1.57378  -1.56876
 Alpha  occ. eigenvalues --   -1.55023  -1.51999  -1.48720  -1.46426  -1.45602
 Alpha  occ. eigenvalues --   -1.43918  -1.41226  -1.40915  -1.39355  -1.38108
 Alpha  occ. eigenvalues --   -1.36845  -1.36216  -1.33986  -1.31306  -1.28685
 Alpha  occ. eigenvalues --   -1.28239  -1.24377  -1.21453  -1.20503  -1.18303
 Alpha  occ. eigenvalues --   -1.18178  -1.16279  -1.15697  -1.14458  -1.13409
 Alpha  occ. eigenvalues --   -1.12403  -1.11164  -1.10405  -1.05416  -1.03875
 Alpha  occ. eigenvalues --   -1.02605  -1.01534  -0.99981  -0.98378  -0.97652
 Alpha  occ. eigenvalues --   -0.96646  -0.94641  -0.94264  -0.93267  -0.92278
 Alpha  occ. eigenvalues --   -0.91171  -0.89853  -0.89687  -0.87444  -0.86407
 Alpha  occ. eigenvalues --   -0.85210  -0.84232  -0.82972  -0.81336  -0.80310
 Alpha  occ. eigenvalues --   -0.79819  -0.78682  -0.76684  -0.76621  -0.76342
 Alpha  occ. eigenvalues --   -0.76180  -0.75318  -0.74748  -0.74280  -0.73917
 Alpha  occ. eigenvalues --   -0.73107  -0.72415  -0.71556  -0.71196  -0.70672
 Alpha  occ. eigenvalues --   -0.70160  -0.68902  -0.68342  -0.68174  -0.67992
 Alpha  occ. eigenvalues --   -0.66957  -0.66809  -0.66661  -0.66494  -0.66381
 Alpha  occ. eigenvalues --   -0.65702  -0.65390  -0.64593  -0.64432  -0.63559
 Alpha  occ. eigenvalues --   -0.62882  -0.62312  -0.62235  -0.61769  -0.61545
 Alpha  occ. eigenvalues --   -0.61284  -0.61046  -0.60710  -0.60472  -0.60264
 Alpha  occ. eigenvalues --   -0.60131  -0.59671  -0.59284  -0.58930  -0.57720
 Alpha  occ. eigenvalues --   -0.57664  -0.57549  -0.56778  -0.56452  -0.56161
 Alpha  occ. eigenvalues --   -0.55821  -0.55568  -0.55409  -0.55221  -0.54454
 Alpha  occ. eigenvalues --   -0.54106  -0.54053  -0.53618  -0.52981  -0.52772
 Alpha  occ. eigenvalues --   -0.52630  -0.52217  -0.52104  -0.51612  -0.51405
 Alpha  occ. eigenvalues --   -0.51015  -0.50939  -0.50670  -0.50272  -0.50188
 Alpha  occ. eigenvalues --   -0.49784  -0.49689  -0.49200  -0.49053  -0.48968
 Alpha  occ. eigenvalues --   -0.48811  -0.48511  -0.48209  -0.48123  -0.47804
 Alpha  occ. eigenvalues --   -0.47220  -0.47131  -0.46990  -0.46843  -0.46580
 Alpha  occ. eigenvalues --   -0.46370  -0.46294  -0.46003  -0.45077  -0.44863
 Alpha  occ. eigenvalues --   -0.44430  -0.44284  -0.44092  -0.44072  -0.43770
 Alpha  occ. eigenvalues --   -0.43702  -0.42605  -0.41985  -0.41877  -0.41636
 Alpha  occ. eigenvalues --   -0.41604  -0.41235  -0.40463  -0.39190  -0.39103
 Alpha  occ. eigenvalues --   -0.37916  -0.37065  -0.35679  -0.34994  -0.34264
 Alpha  occ. eigenvalues --   -0.33489  -0.32919  -0.32182  -0.31530  -0.26864
 Alpha  occ. eigenvalues --   -0.22104
 Alpha virt. eigenvalues --   -0.08914  -0.01639  -0.00718   0.01350   0.01694
 Alpha virt. eigenvalues --    0.01766   0.02760   0.03456   0.04682   0.04857
 Alpha virt. eigenvalues --    0.06376   0.06780   0.07231   0.07548   0.08350

 Mulliken charges:
               1
     1  Mg   0.433989
     2  C   -0.091056
     3  C   -0.079528
     4  C   -0.040411
     5  C   -0.064922
     6  N   -0.308786
     7  C    0.167455
     8  C    0.006777
     9  C    0.003523
    10  C    0.105753
    11  C   -0.051795
    12  C   -0.015309
    13  C    0.000117
    14  C    0.460247
    15  O   -0.526290
    16  O   -0.268089
    17  N   -0.280134
    18  C    0.110863
    19  C   -0.019260
    20  C   -0.076724
    21  C    0.096118
    22  C   -0.039584
    23  C    0.324639
    24  O   -0.535399
    25  C   -0.037744
    26  N   -0.257719
    27  C    0.079974
    28  C   -0.019731
    29  C   -0.008874
    30  C    0.172924
    31  C   -0.050458
    32  C   -0.024422
    33  C   -0.054555
    34  N   -0.317535
    35  C    0.098307
    36  C    0.072348
    37  C   -0.063612
    38  C    0.172237
    39  C   -0.029207
    40  C    0.319897
    41  O   -0.520063
    42  C    0.056957
    43  C    0.507599
    44  O   -0.543363
    45  O   -0.266828
    46  C    0.073008
    47  C    0.099494
    48  C   -0.102953
    49  C    0.016344
    50  C   -0.041543
    51  C   -0.024824
    52  C   -0.035833
    53  C   -0.033167
    54  C   -0.009234
    55  C   -0.055152
    56  C   -0.046358
    57  C   -0.040757
    58  C   -0.035330
    59  C   -0.005677
    60  C   -0.055092
    61  C   -0.042793
    62  C   -0.033555
    63  C   -0.028120
    64  C   -0.007143
    65  C   -0.063242
    66  C   -0.061794
    67  H    0.009565
    68  H    0.054169
    69  H    0.036222
    70  H    0.037346
    71  H    0.033852
    72  H    0.008379
    73  H    0.027489
    74  H    0.030012
    75  H    0.028598
    76  H    0.052223
    77  H    0.044292
    78  H    0.044189
    79  H    0.011582
    80  H    0.030747
    81  H    0.027165
    82  H    0.030961
    83  H    0.044869
    84  H    0.035797
    85  H    0.038277
    86  H    0.032071
    87  H    0.022535
    88  H    0.028790
    89  H    0.021252
    90  H    0.021167
    91  H    0.004758
    92  H    0.015410
    93  H    0.020476
    94  H    0.025421
    95  H    0.033824
    96  H    0.048215
    97  H    0.044233
    98  H    0.057643
    99  H    0.032092
   100  H    0.038337
   101  H    0.055943
   102  H    0.030686
   103  H    0.059327
   104  H    0.035801
   105  H    0.028255
   106  H    0.018500
   107  H    0.026868
   108  H    0.022881
   109  H    0.017706
   110  H    0.013858
   111  H    0.020500
   112  H    0.015896
   113  H    0.028785
   114  H    0.026609
   115  H    0.018767
   116  H    0.019574
   117  H    0.021375
   118  H    0.002854
   119  H    0.022547
   120  H    0.023212
   121  H    0.019152
   122  H    0.019143
   123  H    0.011641
   124  H    0.014576
   125  H    0.028094
   126  H    0.012749
   127  H    0.014474
   128  H    0.016403
   129  H    0.017736
   130  H    0.016031
   131  H    0.021542
   132  H    0.015893
   133  H    0.025824
   134  H    0.022889
   135  H    0.013726
   136  H    0.017019
   137  H    0.030349
   138  H    0.008322
   139  H    0.014729
   140  H    0.013193
 Sum of Mulliken charges =   0.00000

 Dipole moment (field-independent basis, Debye):
    X=             -3.3022    Y=              3.0686    Z=              0.0833  Tot=              4.5086
 N-N= 4.277971127664D+03 E-N= 0.000000000000D+00  KE=-9.230450224667D+03
 Leave Link  601 at Thu Apr 28 18:55:49 2022, MaxMem=  6710886400 cpu:               1.3 elap:               0.1
 (Enter /sw/apps/gaussian-16.0/g16/l9999.exe)
 1\1\GINC-BP1-COMPUTE159\SP\RZINDO CIS\STO-3G\C55H74Mg1N4O6\OF15641\28-
 Apr-2022\0\\#p ZINDO=(nstates=5)\\step_1701_chromophore_1 ZINDO\\0,1\M
 g,0,-1.993,17.213,26.464\C,0,-2.202,14.927,29.086\C,0,-2.871,19.691,28
 .634\C,0,-2.1,19.358,23.888\C,0,-1.678,14.542,24.199\N,0,-2.63,17.272,
 28.629\C,0,-2.515,16.27,29.533\C,0,-2.546,16.811,30.966\C,0,-3.023,18.
 346,30.701\C,0,-2.894,18.49,29.231\C,0,-4.43,18.669,31.234\C,0,-1.149,
 16.634,31.646\C,0,-1.022,17.506,32.959\C,0,-1.091,16.708,34.297\O,0,-1

 Normal termination of Gaussian 16 at Thu Apr 28 18:55:49 2022.
