 Gaussian 16, Revision A.03,
 Gaussian 16:  ES64L-G16RevA.03 25-Dec-2016

 ------------------------------
 #p blyp/Def2SVP td=(nstates=5)
 ------------------------------

 --------------------------------------------------
 step_1001_chromophore_3 TDDFT with blyp functional
 --------------------------------------------------
 Symbolic Z-matrix:
 Charge =  0 Multiplicity = 1

                         Standard orientation:
 ---------------------------------------------------------------------
 Center     Atomic      Atomic             Coordinates (Angstroms)
 Number     Number       Type             X           Y           Z
 ---------------------------------------------------------------------
      1         12           0       -5.540174    0.913158    0.072671
      2          6           0       -3.960795   -2.334095    0.157435
      3          6           0       -2.364973    2.156964    0.141017
      4          6           0       -6.910027    3.704295    0.055885
      5          6           0       -8.526964   -0.839454    0.670923
      6          7           0       -3.361627   -0.070899    0.218874
      7          6           0       -2.956642   -1.373557    0.094407
      8          6           0       -1.479097   -1.468031   -0.341896
      9          6           0       -0.990892   -0.031542   -0.037487
     10          6           0       -2.316564    0.760068    0.088159
     11          6           0       -0.203807    0.210424    1.231013
     12          6           0       -1.417554   -1.840824   -1.830627
     13          6           0       -0.382268   -2.854331   -2.177380
     14          6           0        0.754767   -3.090909   -1.157846
     15          8           0        0.792345   -3.988615   -0.305516
     16          8           0        1.812161   -2.266364   -1.421044
     17          7           0       -4.731026    2.729091    0.236445
     18          6           0       -3.451466    3.081172    0.236523
     19          6           0       -3.304916    4.485177    0.250626
     20          6           0       -4.566685    4.949448    0.130202
     21          6           0       -5.499637    3.755458    0.163084
     22          6           0       -2.027332    5.200344    0.353556
     23          6           0       -5.081445    6.349717   -0.019717
     24          8           0       -6.248432    6.498375   -0.171492
     25          6           0       -4.301092    7.593912   -0.058684
     26          7           0       -7.463563    1.376628    0.486741
     27          6           0       -7.796608    2.679465    0.330387
     28          6           0       -9.313681    2.875263    0.345820
     29          6           0       -9.812016    1.438137    0.306601
     30          6           0       -8.569765    0.562141    0.549608
     31          6           0       -9.768781    3.585040    1.672248
     32          6           0      -10.499114    1.081408   -1.060757
     33          6           0      -12.027099    0.789550   -1.027806
     34          7           0       -6.192263   -1.200567    0.198204
     35          6           0       -7.412805   -1.709439    0.476906
     36          6           0       -7.395214   -3.185011    0.456747
     37          6           0       -6.042115   -3.462603    0.274993
     38          6           0       -5.359677   -2.211607    0.239527
     39          6           0       -8.530650   -4.183417    0.673684
     40          6           0       -5.072345   -4.586124    0.227059
     41          8           0       -5.265899   -5.758980    0.395599
     42          6           0       -3.649059   -3.855120   -0.053057
     43          6           0       -2.691658   -4.396483    0.981023
     44          8           0       -2.272862   -3.875139    1.994911
     45          8           0       -2.281504   -5.659391    0.414954
     46          6           0       -1.084413   -6.182393    1.017060
     47          6           0        3.079504   -2.457159   -0.800566
     48          6           0        4.185165   -2.275667   -1.823874
     49          6           0        5.503613   -2.609045   -1.691588
     50          6           0        6.083137   -3.285147   -0.400635
     51          6           0        6.539043   -2.160285   -2.752474
     52          6           0        6.814744   -0.635557   -2.732706
     53          6           0        8.234020   -0.180881   -3.197993
     54          6           0        9.016286    0.374644   -2.032458
     55          6           0        9.424943   -0.636477   -0.953704
     56          6           0       10.241929    1.217728   -2.550989
     57          6           0       10.353392    2.710238   -2.003217
     58          6           0       11.844828    3.248564   -1.788833
     59          6           0       12.405351    3.017270   -0.350168
     60          6           0       13.508893    4.138261   -0.042345
     61          6           0       12.775202    1.545716    0.183015
     62          6           0       13.104252    1.518100    1.758744
     63          6           0       12.745725    0.153329    2.330514
     64          6           0       12.647150    0.071976    3.927172
     65          6           0       13.554728   -1.030891    4.538731
     66          6           0       11.117058   -0.003813    4.414850
     67          1           0       -1.363039    2.572066    0.014435
     68          1           0       -7.533626    4.562855   -0.202747
     69          1           0       -9.448737   -1.343947    0.374798
     70          1           0       -1.017529   -2.225159    0.291407
     71          1           0       -0.503139    0.412886   -0.904898
     72          1           0       -0.300398    1.233350    1.595695
     73          1           0        0.860171   -0.014054    1.160711
     74          1           0       -0.468647   -0.462941    2.045519
     75          1           0       -1.359407   -0.926111   -2.420656
     76          1           0       -2.324721   -2.313127   -2.208382
     77          1           0        0.050796   -2.618253   -3.150409
     78          1           0       -0.854604   -3.836626   -2.201964
     79          1           0       -1.200903    4.526792    0.581046
     80          1           0       -1.926501    6.008255    1.079578
     81          1           0       -1.841033    5.614728   -0.636886
     82          1           0       -4.862550    8.446430    0.324912
     83          1           0       -3.947758    7.677987   -1.086000
     84          1           0       -3.407513    7.580611    0.565916
     85          1           0       -9.665005    3.348455   -0.571137
     86          1           0      -10.476278    1.302658    1.160806
     87          1           0       -9.068080    3.648702    2.504704
     88          1           0      -10.693401    3.154706    2.056700
     89          1           0       -9.999077    4.638539    1.518327
     90          1           0      -10.075123    0.154210   -1.447596
     91          1           0      -10.363932    1.856025   -1.815928
     92          1           0      -12.340547    1.258837   -0.095367
     93          1           0      -12.151252   -0.277127   -1.212218
     94          1           0      -12.569803    1.347825   -1.791614
     95          1           0       -8.942762   -3.974497    1.660426
     96          1           0       -7.961756   -5.102797    0.533079
     97          1           0       -9.273773   -4.144385   -0.123723
     98          1           0       -3.181413   -4.190749   -0.978285
     99          1           0       -0.426260   -5.490782    1.543627
    100          1           0       -0.510853   -6.701848    0.250347
    101          1           0       -1.477709   -7.015867    1.598857
    102          1           0        3.131708   -3.444725   -0.343469
    103          1           0        3.197869   -1.825247    0.079660
    104          1           0        3.918684   -1.997061   -2.843691
    105          1           0        5.355559   -3.327306    0.410047
    106          1           0        6.967027   -2.703692   -0.139876
    107          1           0        6.387018   -4.310229   -0.613214
    108          1           0        6.269274   -2.386456   -3.784195
    109          1           0        7.484244   -2.650763   -2.522266
    110          1           0        6.400324   -0.215463   -1.816294
    111          1           0        6.242308   -0.148870   -3.522615
    112          1           0        8.083588    0.479938   -4.050576
    113          1           0        8.670447   -1.085051   -3.621927
    114          1           0        8.421306    1.148501   -1.547266
    115          1           0        9.579856   -0.266348    0.059647
    116          1           0       10.390051   -1.072817   -1.210504
    117          1           0        8.674630   -1.423639   -1.029283
    118          1           0       10.274420    1.245427   -3.639751
    119          1           0       11.145880    0.692370   -2.243607
    120          1           0        9.805500    2.685592   -1.061172
    121          1           0        9.850000    3.438860   -2.638315
    122          1           0       11.719651    4.315996   -1.969303
    123          1           0       12.518041    2.732948   -2.473738
    124          1           0       11.589406    3.412549    0.256097
    125          1           0       13.933425    4.530579   -0.965726
    126          1           0       14.291341    3.596770    0.489415
    127          1           0       13.212034    4.985404    0.576318
    128          1           0       13.581037    1.198719   -0.464197
    129          1           0       11.946566    0.854197    0.030157
    130          1           0       12.703947    2.330491    2.364097
    131          1           0       14.193668    1.552156    1.783379
    132          1           0       13.584226   -0.490706    2.066267
    133          1           0       11.899342   -0.331876    1.844385
    134          1           0       12.964256    1.045633    4.301463
    135          1           0       12.947763   -1.813135    4.996264
    136          1           0       14.125173   -0.708295    5.409403
    137          1           0       14.263225   -1.425209    3.810668
    138          1           0       10.977656    0.879081    5.039916
    139          1           0       10.920440   -0.933225    4.948765
    140          1           0       10.440784    0.086827    3.564493
 ---------------------------------------------------------------------

 SCF Done:  E(RB-LYP) =  -3007.35504372     A.U. after   20 cycles

 Excitation energies and oscillator strengths:

 Excited State   1:      Singlet-A      1.8773 eV  660.43 nm  f=0.3025  <S**2>=0.000
     245 -> 248        0.19731
     246 -> 247        0.68143
     246 <- 247       -0.14254
 This state for optimization and/or second-order correction.
 Total Energy, E(TD-HF/TD-DFT) =  -3007.28605317
 Copying the excited state density for this state as the 1-particle RhoCI density.

 Excited State   2:      Singlet-A      1.9458 eV  637.18 nm  f=0.0181  <S**2>=0.000
     244 -> 247        0.65820
     245 -> 247        0.23426

 Excited State   3:      Singlet-A      2.1087 eV  587.96 nm  f=0.0693  <S**2>=0.000
     243 -> 247        0.16912
     244 -> 247       -0.23762
     245 -> 247        0.58420
     246 -> 248       -0.24608

 Excited State   4:      Singlet-A      2.2276 eV  556.59 nm  f=0.0055  <S**2>=0.000
     243 -> 247        0.68485
     245 -> 247       -0.13663

 Excited State   5:      Singlet-A      2.5335 eV  489.38 nm  f=0.0001  <S**2>=0.000
     242 -> 247        0.70701

 The electronic state is 1-A.
 Alpha  occ. eigenvalues --  -46.27748 -18.83038 -18.79689 -18.77871 -18.76974
 Alpha  occ. eigenvalues --  -18.76354 -18.74430 -14.02503 -14.02381 -14.01183
 Alpha  occ. eigenvalues --  -14.00295 -10.05240 -10.02985  -9.99997  -9.98665
 Alpha  occ. eigenvalues --   -9.98569  -9.96251  -9.95833  -9.95743  -9.95678
 Alpha  occ. eigenvalues --   -9.95536  -9.95102  -9.94912  -9.94829  -9.94125
 Alpha  occ. eigenvalues --   -9.94062  -9.93901  -9.93851  -9.93760  -9.93643
 Alpha  occ. eigenvalues --   -9.93607  -9.93579  -9.93218  -9.93086  -9.93049
 Alpha  occ. eigenvalues --   -9.93036  -9.92942  -9.92653  -9.92645  -9.92642
 Alpha  occ. eigenvalues --   -9.92571  -9.92421  -9.92361  -9.92292  -9.92239
 Alpha  occ. eigenvalues --   -9.92090  -9.92060  -9.92053  -9.91961  -9.91953
 Alpha  occ. eigenvalues --   -9.91881  -9.91782  -9.91751  -9.91656  -9.91655
 Alpha  occ. eigenvalues --   -9.91624  -9.91549  -9.91511  -9.91480  -9.91340
 Alpha  occ. eigenvalues --   -9.91236  -9.91210  -9.91066  -9.90923  -9.90779
 Alpha  occ. eigenvalues --   -9.90643  -2.92425  -1.72828  -1.72327  -1.72136
 Alpha  occ. eigenvalues --   -0.98954  -0.95277  -0.93291  -0.92576  -0.90545
 Alpha  occ. eigenvalues --   -0.89047  -0.88910  -0.86900  -0.85729  -0.85413
 Alpha  occ. eigenvalues --   -0.74363  -0.73927  -0.73472  -0.72775  -0.72028
 Alpha  occ. eigenvalues --   -0.71911  -0.71498  -0.70754  -0.70688  -0.69989
 Alpha  occ. eigenvalues --   -0.69419  -0.69345  -0.67961  -0.66970  -0.66759
 Alpha  occ. eigenvalues --   -0.66405  -0.65809  -0.65401  -0.64534  -0.64007
 Alpha  occ. eigenvalues --   -0.63771  -0.62839  -0.62383  -0.61433  -0.60968
 Alpha  occ. eigenvalues --   -0.60350  -0.60072  -0.59530  -0.58879  -0.58848
 Alpha  occ. eigenvalues --   -0.58610  -0.57741  -0.56355  -0.55927  -0.54063
 Alpha  occ. eigenvalues --   -0.53893  -0.53592  -0.53077  -0.52620  -0.51793
 Alpha  occ. eigenvalues --   -0.51274  -0.51100  -0.50865  -0.50415  -0.50072
 Alpha  occ. eigenvalues --   -0.49868  -0.49420  -0.48016  -0.47132  -0.46723
 Alpha  occ. eigenvalues --   -0.46473  -0.45998  -0.45845  -0.45030  -0.44230
 Alpha  occ. eigenvalues --   -0.43390  -0.43190  -0.42921  -0.42707  -0.42554
 Alpha  occ. eigenvalues --   -0.42196  -0.41727  -0.41380  -0.41184  -0.40866
 Alpha  occ. eigenvalues --   -0.40629  -0.40488  -0.40476  -0.40325  -0.40032
 Alpha  occ. eigenvalues --   -0.39854  -0.39664  -0.39565  -0.39262  -0.39202
 Alpha  occ. eigenvalues --   -0.38838  -0.38768  -0.38752  -0.38240  -0.38181
 Alpha  occ. eigenvalues --   -0.37878  -0.37716  -0.37532  -0.37451  -0.36982
 Alpha  occ. eigenvalues --   -0.36926  -0.36829  -0.36635  -0.36487  -0.36405
 Alpha  occ. eigenvalues --   -0.36141  -0.36089  -0.35942  -0.35827  -0.35659
 Alpha  occ. eigenvalues --   -0.35279  -0.35136  -0.35121  -0.34743  -0.34698
 Alpha  occ. eigenvalues --   -0.34493  -0.34236  -0.34027  -0.33966  -0.33674
 Alpha  occ. eigenvalues --   -0.33507  -0.33399  -0.33230  -0.33200  -0.32974
 Alpha  occ. eigenvalues --   -0.32833  -0.32818  -0.32715  -0.32366  -0.32141
 Alpha  occ. eigenvalues --   -0.32028  -0.31956  -0.31748  -0.31636  -0.31501
 Alpha  occ. eigenvalues --   -0.31275  -0.31106  -0.31010  -0.30736  -0.30627
 Alpha  occ. eigenvalues --   -0.30452  -0.30325  -0.30285  -0.30071  -0.30054
 Alpha  occ. eigenvalues --   -0.29438  -0.29290  -0.29216  -0.29044  -0.28805
 Alpha  occ. eigenvalues --   -0.28727  -0.28710  -0.28500  -0.28295  -0.28143
 Alpha  occ. eigenvalues --   -0.28007  -0.27481  -0.27073  -0.26544  -0.26280
 Alpha  occ. eigenvalues --   -0.26065  -0.26000  -0.25856  -0.25805  -0.25277
 Alpha  occ. eigenvalues --   -0.25168  -0.25018  -0.23689  -0.23355  -0.23159
 Alpha  occ. eigenvalues --   -0.22830  -0.22280  -0.22248  -0.21733  -0.21272
 Alpha  occ. eigenvalues --   -0.20389  -0.20119  -0.18865  -0.17918  -0.16823
 Alpha  occ. eigenvalues --   -0.15321
 Alpha virt. eigenvalues --   -0.10809  -0.06243  -0.05436  -0.04250  -0.03834
 Alpha virt. eigenvalues --   -0.03066  -0.02557  -0.02005  -0.00615   0.01012
 Alpha virt. eigenvalues --    0.01680   0.01791   0.02153   0.02786   0.03032

 Mulliken charges:
               1
     1  Mg   0.698510
     2  C    0.033774
     3  C   -0.080004
     4  C   -0.039087
     5  C   -0.048607
     6  N   -0.166802
     7  C   -0.127879
     8  C    0.032416
     9  C    0.050370
    10  C   -0.062768
    11  C    0.137545
    12  C    0.143950
    13  C    0.162546
    14  C    0.062672
    15  O   -0.199570
    16  O   -0.253937
    17  N   -0.225067
    18  C    0.123733
    19  C   -0.121978
    20  C    0.062505
    21  C    0.114834
    22  C    0.166575
    23  C   -0.120654
    24  O   -0.145658
    25  C    0.150217
    26  N   -0.276175
    27  C   -0.004115
    28  C    0.039536
    29  C    0.052508
    30  C    0.001224
    31  C    0.114555
    32  C    0.060466
    33  C    0.067374
    34  N   -0.159731
    35  C    0.040754
    36  C   -0.200190
    37  C    0.039818
    38  C    0.100466
    39  C    0.176876
    40  C   -0.006464
    41  O   -0.093982
    42  C   -0.054305
    43  C    0.143355
    44  O   -0.162282
    45  O   -0.313948
    46  C    0.229714
    47  C    0.302646
    48  C   -0.083346
    49  C   -0.164668
    50  C    0.127892
    51  C    0.135883
    52  C    0.045876
    53  C    0.097117
    54  C   -0.059004
    55  C    0.121038
    56  C    0.095166
    57  C    0.046172
    58  C    0.104271
    59  C   -0.079902
    60  C    0.080970
    61  C    0.086968
    62  C    0.069667
    63  C    0.067610
    64  C   -0.087847
    65  C    0.101948
    66  C    0.089054
    67  H   -0.069814
    68  H   -0.045574
    69  H   -0.044060
    70  H    0.004293
    71  H   -0.035146
    72  H   -0.013769
    73  H   -0.019386
    74  H   -0.002530
    75  H   -0.029062
    76  H   -0.016817
    77  H   -0.007582
    78  H    0.002792
    79  H   -0.016919
    80  H    0.011404
    81  H   -0.003074
    82  H    0.002866
    83  H    0.011749
    84  H   -0.034631
    85  H   -0.020669
    86  H   -0.027804
    87  H    0.001808
    88  H   -0.013192
    89  H   -0.010844
    90  H   -0.019397
    91  H   -0.019436
    92  H   -0.009424
    93  H    0.007164
    94  H   -0.016299
    95  H    0.016280
    96  H    0.010532
    97  H   -0.002798
    98  H    0.013011
    99  H    0.031783
   100  H   -0.009932
   101  H   -0.009854
   102  H    0.001751
   103  H    0.003796
   104  H   -0.033537
   105  H   -0.010184
   106  H   -0.000383
   107  H    0.008524
   108  H   -0.019498
   109  H   -0.032666
   110  H   -0.023010
   111  H   -0.041203
   112  H   -0.031076
   113  H   -0.038271
   114  H   -0.036592
   115  H    0.005123
   116  H   -0.021600
   117  H   -0.024178
   118  H   -0.038775
   119  H   -0.041855
   120  H   -0.033401
   121  H   -0.030391
   122  H   -0.031719
   123  H   -0.024009
   124  H   -0.044325
   125  H   -0.018327
   126  H   -0.026178
   127  H   -0.008586
   128  H   -0.023220
   129  H   -0.025053
   130  H   -0.011698
   131  H   -0.016981
   132  H   -0.047883
   133  H   -0.026387
   134  H   -0.031687
   135  H   -0.020995
   136  H   -0.019967
   137  H   -0.009073
   138  H   -0.009941
   139  H   -0.008321
   140  H   -0.014494
 Sum of Mulliken charges =  -0.00000

 Dipole moment (field-independent basis, Debye):
    X=              3.6202    Y=              4.1622    Z=             -3.5399  Tot=              6.5544
 Quadrupole moment (field-independent basis, Debye-Ang):
   XX=           -378.0822   YY=           -437.0630   ZZ=           -400.9331
   XY=            -15.7258   XZ=             13.1390   YZ=             11.2914

 Normal termination of Gaussian 16 at Tue Apr 26 23:35:31 2022.
