 Gaussian 16, Revision A.03,
 Gaussian 16:  ES64L-G16RevA.03 25-Dec-2016

 -----------------------------------
 #p cam-b3lyp/Def2SVP td=(nstates=5)
 -----------------------------------

 -------------------------------------------------------
 step_1001_chromophore_3 TDDFT with cam-b3lyp functional
 -------------------------------------------------------
 Symbolic Z-matrix:
 Charge =  0 Multiplicity = 1

                         Standard orientation:
 ---------------------------------------------------------------------
 Center     Atomic      Atomic             Coordinates (Angstroms)
 Number     Number       Type             X           Y           Z
 ---------------------------------------------------------------------
      1         12           0       -5.540174    0.913158    0.072671
      2          6           0       -3.960795   -2.334095    0.157435
      3          6           0       -2.364973    2.156964    0.141017
      4          6           0       -6.910027    3.704295    0.055885
      5          6           0       -8.526964   -0.839454    0.670923
      6          7           0       -3.361627   -0.070899    0.218874
      7          6           0       -2.956642   -1.373557    0.094407
      8          6           0       -1.479097   -1.468031   -0.341896
      9          6           0       -0.990892   -0.031542   -0.037487
     10          6           0       -2.316564    0.760068    0.088159
     11          6           0       -0.203807    0.210424    1.231013
     12          6           0       -1.417554   -1.840824   -1.830627
     13          6           0       -0.382268   -2.854331   -2.177380
     14          6           0        0.754767   -3.090909   -1.157846
     15          8           0        0.792345   -3.988615   -0.305516
     16          8           0        1.812161   -2.266364   -1.421044
     17          7           0       -4.731026    2.729091    0.236445
     18          6           0       -3.451466    3.081172    0.236523
     19          6           0       -3.304916    4.485177    0.250626
     20          6           0       -4.566685    4.949448    0.130202
     21          6           0       -5.499637    3.755458    0.163084
     22          6           0       -2.027332    5.200344    0.353556
     23          6           0       -5.081445    6.349717   -0.019717
     24          8           0       -6.248432    6.498375   -0.171492
     25          6           0       -4.301092    7.593912   -0.058684
     26          7           0       -7.463563    1.376628    0.486741
     27          6           0       -7.796608    2.679465    0.330387
     28          6           0       -9.313681    2.875263    0.345820
     29          6           0       -9.812016    1.438137    0.306601
     30          6           0       -8.569765    0.562141    0.549608
     31          6           0       -9.768781    3.585040    1.672248
     32          6           0      -10.499114    1.081408   -1.060757
     33          6           0      -12.027099    0.789550   -1.027806
     34          7           0       -6.192263   -1.200567    0.198204
     35          6           0       -7.412805   -1.709439    0.476906
     36          6           0       -7.395214   -3.185011    0.456747
     37          6           0       -6.042115   -3.462603    0.274993
     38          6           0       -5.359677   -2.211607    0.239527
     39          6           0       -8.530650   -4.183417    0.673684
     40          6           0       -5.072345   -4.586124    0.227059
     41          8           0       -5.265899   -5.758980    0.395599
     42          6           0       -3.649059   -3.855120   -0.053057
     43          6           0       -2.691658   -4.396483    0.981023
     44          8           0       -2.272862   -3.875139    1.994911
     45          8           0       -2.281504   -5.659391    0.414954
     46          6           0       -1.084413   -6.182393    1.017060
     47          6           0        3.079504   -2.457159   -0.800566
     48          6           0        4.185165   -2.275667   -1.823874
     49          6           0        5.503613   -2.609045   -1.691588
     50          6           0        6.083137   -3.285147   -0.400635
     51          6           0        6.539043   -2.160285   -2.752474
     52          6           0        6.814744   -0.635557   -2.732706
     53          6           0        8.234020   -0.180881   -3.197993
     54          6           0        9.016286    0.374644   -2.032458
     55          6           0        9.424943   -0.636477   -0.953704
     56          6           0       10.241929    1.217728   -2.550989
     57          6           0       10.353392    2.710238   -2.003217
     58          6           0       11.844828    3.248564   -1.788833
     59          6           0       12.405351    3.017270   -0.350168
     60          6           0       13.508893    4.138261   -0.042345
     61          6           0       12.775202    1.545716    0.183015
     62          6           0       13.104252    1.518100    1.758744
     63          6           0       12.745725    0.153329    2.330514
     64          6           0       12.647150    0.071976    3.927172
     65          6           0       13.554728   -1.030891    4.538731
     66          6           0       11.117058   -0.003813    4.414850
     67          1           0       -1.363039    2.572066    0.014435
     68          1           0       -7.533626    4.562855   -0.202747
     69          1           0       -9.448737   -1.343947    0.374798
     70          1           0       -1.017529   -2.225159    0.291407
     71          1           0       -0.503139    0.412886   -0.904898
     72          1           0       -0.300398    1.233350    1.595695
     73          1           0        0.860171   -0.014054    1.160711
     74          1           0       -0.468647   -0.462941    2.045519
     75          1           0       -1.359407   -0.926111   -2.420656
     76          1           0       -2.324721   -2.313127   -2.208382
     77          1           0        0.050796   -2.618253   -3.150409
     78          1           0       -0.854604   -3.836626   -2.201964
     79          1           0       -1.200903    4.526792    0.581046
     80          1           0       -1.926501    6.008255    1.079578
     81          1           0       -1.841033    5.614728   -0.636886
     82          1           0       -4.862550    8.446430    0.324912
     83          1           0       -3.947758    7.677987   -1.086000
     84          1           0       -3.407513    7.580611    0.565916
     85          1           0       -9.665005    3.348455   -0.571137
     86          1           0      -10.476278    1.302658    1.160806
     87          1           0       -9.068080    3.648702    2.504704
     88          1           0      -10.693401    3.154706    2.056700
     89          1           0       -9.999077    4.638539    1.518327
     90          1           0      -10.075123    0.154210   -1.447596
     91          1           0      -10.363932    1.856025   -1.815928
     92          1           0      -12.340547    1.258837   -0.095367
     93          1           0      -12.151252   -0.277127   -1.212218
     94          1           0      -12.569803    1.347825   -1.791614
     95          1           0       -8.942762   -3.974497    1.660426
     96          1           0       -7.961756   -5.102797    0.533079
     97          1           0       -9.273773   -4.144385   -0.123723
     98          1           0       -3.181413   -4.190749   -0.978285
     99          1           0       -0.426260   -5.490782    1.543627
    100          1           0       -0.510853   -6.701848    0.250347
    101          1           0       -1.477709   -7.015867    1.598857
    102          1           0        3.131708   -3.444725   -0.343469
    103          1           0        3.197869   -1.825247    0.079660
    104          1           0        3.918684   -1.997061   -2.843691
    105          1           0        5.355559   -3.327306    0.410047
    106          1           0        6.967027   -2.703692   -0.139876
    107          1           0        6.387018   -4.310229   -0.613214
    108          1           0        6.269274   -2.386456   -3.784195
    109          1           0        7.484244   -2.650763   -2.522266
    110          1           0        6.400324   -0.215463   -1.816294
    111          1           0        6.242308   -0.148870   -3.522615
    112          1           0        8.083588    0.479938   -4.050576
    113          1           0        8.670447   -1.085051   -3.621927
    114          1           0        8.421306    1.148501   -1.547266
    115          1           0        9.579856   -0.266348    0.059647
    116          1           0       10.390051   -1.072817   -1.210504
    117          1           0        8.674630   -1.423639   -1.029283
    118          1           0       10.274420    1.245427   -3.639751
    119          1           0       11.145880    0.692370   -2.243607
    120          1           0        9.805500    2.685592   -1.061172
    121          1           0        9.850000    3.438860   -2.638315
    122          1           0       11.719651    4.315996   -1.969303
    123          1           0       12.518041    2.732948   -2.473738
    124          1           0       11.589406    3.412549    0.256097
    125          1           0       13.933425    4.530579   -0.965726
    126          1           0       14.291341    3.596770    0.489415
    127          1           0       13.212034    4.985404    0.576318
    128          1           0       13.581037    1.198719   -0.464197
    129          1           0       11.946566    0.854197    0.030157
    130          1           0       12.703947    2.330491    2.364097
    131          1           0       14.193668    1.552156    1.783379
    132          1           0       13.584226   -0.490706    2.066267
    133          1           0       11.899342   -0.331876    1.844385
    134          1           0       12.964256    1.045633    4.301463
    135          1           0       12.947763   -1.813135    4.996264
    136          1           0       14.125173   -0.708295    5.409403
    137          1           0       14.263225   -1.425209    3.810668
    138          1           0       10.977656    0.879081    5.039916
    139          1           0       10.920440   -0.933225    4.948765
    140          1           0       10.440784    0.086827    3.564493
 ---------------------------------------------------------------------

 SCF Done:  E(RCAM-B3LYP) =  -3007.15574175     A.U. after   17 cycles

 Excitation energies and oscillator strengths:

 Excited State   1:      Singlet-A      1.7668 eV  701.73 nm  f=0.3881  <S**2>=0.000
     245 -> 248       -0.18609
     246 -> 247        0.68441
     245 <- 248       -0.10706
 This state for optimization and/or second-order correction.
 Total Energy, E(TD-HF/TD-DFT) =  -3007.09081145
 Copying the excited state density for this state as the 1-particle RhoCI density.

 Excited State   2:      Singlet-A      2.3204 eV  534.32 nm  f=0.1097  <S**2>=0.000
     245 -> 247        0.63476
     246 -> 248        0.30316

 Excited State   3:      Singlet-A      3.5693 eV  347.36 nm  f=0.4332  <S**2>=0.000
     242 -> 247       -0.12434
     243 -> 247       -0.34753
     245 -> 247       -0.22783
     246 -> 248        0.52774

 Excited State   4:      Singlet-A      3.6522 eV  339.48 nm  f=0.1681  <S**2>=0.000
     241 -> 247        0.19890
     241 -> 249       -0.14538
     242 -> 247       -0.25419
     242 -> 249       -0.11531
     242 -> 251       -0.11760
     243 -> 247        0.47453
     245 -> 247       -0.14122
     246 -> 248        0.24817

 Excited State   5:      Singlet-A      3.7065 eV  334.50 nm  f=0.0243  <S**2>=0.000
     241 -> 247        0.47259
     241 -> 249       -0.27379
     241 -> 251        0.10770
     242 -> 247        0.28150
     242 -> 249        0.10544
     242 -> 251        0.12776
     243 -> 247       -0.14470
     246 -> 248        0.10497

 The electronic state is 1-A.
 Alpha  occ. eigenvalues --  -46.89332 -19.25899 -19.22594 -19.20886 -19.20248
 Alpha  occ. eigenvalues --  -19.19593 -19.17640 -14.41547 -14.40967 -14.39674
 Alpha  occ. eigenvalues --  -14.38675 -10.40639 -10.38716 -10.35417 -10.33688
 Alpha  occ. eigenvalues --  -10.32563 -10.30656 -10.30237 -10.30172 -10.30146
 Alpha  occ. eigenvalues --  -10.29915 -10.29340 -10.29109 -10.28669 -10.28224
 Alpha  occ. eigenvalues --  -10.28171 -10.28086 -10.28038 -10.27993 -10.27843
 Alpha  occ. eigenvalues --  -10.27538 -10.27485 -10.27428 -10.27359 -10.27195
 Alpha  occ. eigenvalues --  -10.27056 -10.27050 -10.26924 -10.26666 -10.26451
 Alpha  occ. eigenvalues --  -10.26428 -10.26305 -10.26173 -10.26095 -10.26088
 Alpha  occ. eigenvalues --  -10.25995 -10.25831 -10.25797 -10.25729 -10.25694
 Alpha  occ. eigenvalues --  -10.25676 -10.25669 -10.25564 -10.25449 -10.25376
 Alpha  occ. eigenvalues --  -10.25358 -10.25250 -10.25213 -10.25209 -10.25138
 Alpha  occ. eigenvalues --  -10.24925 -10.24872 -10.24768 -10.24676 -10.24675
 Alpha  occ. eigenvalues --  -10.24437  -3.17915  -1.92791  -1.92382  -1.92218
 Alpha  occ. eigenvalues --   -1.17400  -1.13912  -1.11812  -1.11053  -1.08445
 Alpha  occ. eigenvalues --   -1.06992  -1.06722  -1.04545  -1.03419  -1.02960
 Alpha  occ. eigenvalues --   -0.91464  -0.90847  -0.90339  -0.89682  -0.88768
 Alpha  occ. eigenvalues --   -0.88485  -0.88178  -0.87422  -0.87204  -0.86529
 Alpha  occ. eigenvalues --   -0.85884  -0.85775  -0.84150  -0.83051  -0.82918
 Alpha  occ. eigenvalues --   -0.82480  -0.82058  -0.81336  -0.80456  -0.79807
 Alpha  occ. eigenvalues --   -0.79580  -0.78636  -0.78030  -0.76859  -0.76362
 Alpha  occ. eigenvalues --   -0.75642  -0.75421  -0.74757  -0.74126  -0.74105
 Alpha  occ. eigenvalues --   -0.73744  -0.72763  -0.71239  -0.70770  -0.68734
 Alpha  occ. eigenvalues --   -0.68480  -0.68154  -0.67569  -0.67043  -0.66027
 Alpha  occ. eigenvalues --   -0.65354  -0.65202  -0.64834  -0.64464  -0.64005
 Alpha  occ. eigenvalues --   -0.63906  -0.63407  -0.61862  -0.60881  -0.60507
 Alpha  occ. eigenvalues --   -0.59991  -0.59535  -0.59365  -0.58573  -0.57591
 Alpha  occ. eigenvalues --   -0.56897  -0.56563  -0.56346  -0.56019  -0.55914
 Alpha  occ. eigenvalues --   -0.55067  -0.54927  -0.54671  -0.53917  -0.53696
 Alpha  occ. eigenvalues --   -0.53578  -0.53260  -0.53152  -0.53040  -0.52722
 Alpha  occ. eigenvalues --   -0.52574  -0.52390  -0.52267  -0.52070  -0.51916
 Alpha  occ. eigenvalues --   -0.51629  -0.51319  -0.51156  -0.50613  -0.50533
 Alpha  occ. eigenvalues --   -0.50431  -0.50364  -0.49915  -0.49725  -0.49573
 Alpha  occ. eigenvalues --   -0.49509  -0.49087  -0.48958  -0.48889  -0.48629
 Alpha  occ. eigenvalues --   -0.48499  -0.48477  -0.48180  -0.47936  -0.47681
 Alpha  occ. eigenvalues --   -0.47452  -0.47275  -0.47022  -0.46825  -0.46656
 Alpha  occ. eigenvalues --   -0.46523  -0.46047  -0.45966  -0.45611  -0.45450
 Alpha  occ. eigenvalues --   -0.45376  -0.45281  -0.44988  -0.44837  -0.44757
 Alpha  occ. eigenvalues --   -0.44415  -0.44389  -0.44311  -0.44140  -0.43975
 Alpha  occ. eigenvalues --   -0.43683  -0.43500  -0.43478  -0.43278  -0.42913
 Alpha  occ. eigenvalues --   -0.42819  -0.42659  -0.42494  -0.42306  -0.42261
 Alpha  occ. eigenvalues --   -0.42055  -0.41642  -0.41517  -0.41442  -0.41223
 Alpha  occ. eigenvalues --   -0.40967  -0.40651  -0.40494  -0.40378  -0.40077
 Alpha  occ. eigenvalues --   -0.39908  -0.39715  -0.39584  -0.39230  -0.39116
 Alpha  occ. eigenvalues --   -0.38900  -0.38318  -0.37873  -0.37566  -0.37332
 Alpha  occ. eigenvalues --   -0.37138  -0.36734  -0.36618  -0.36525  -0.36296
 Alpha  occ. eigenvalues --   -0.35783  -0.35464  -0.35030  -0.34254  -0.34052
 Alpha  occ. eigenvalues --   -0.34019  -0.33847  -0.32413  -0.31675  -0.30798
 Alpha  occ. eigenvalues --   -0.30548  -0.30154  -0.29757  -0.29724  -0.23573
 Alpha  occ. eigenvalues --   -0.20587
 Alpha virt. eigenvalues --   -0.07797  -0.00952   0.01188   0.01910   0.03075
 Alpha virt. eigenvalues --    0.03650   0.04919   0.05574   0.06294   0.07571
 Alpha virt. eigenvalues --    0.07852   0.08532   0.08612   0.09149   0.09323

 Mulliken charges:
               1
     1  Mg   0.832380
     2  C    0.012009
     3  C   -0.087113
     4  C   -0.065069
     5  C   -0.051297
     6  N   -0.226043
     7  C   -0.080135
     8  C   -0.032396
     9  C   -0.002454
    10  C   -0.049496
    11  C    0.081092
    12  C    0.092836
    13  C    0.095832
    14  C    0.140070
    15  O   -0.242498
    16  O   -0.318388
    17  N   -0.320585
    18  C    0.131414
    19  C   -0.127781
    20  C   -0.009541
    21  C    0.141863
    22  C    0.108967
    23  C   -0.044722
    24  O   -0.186372
    25  C    0.074261
    26  N   -0.355695
    27  C    0.023869
    28  C   -0.022415
    29  C   -0.008005
    30  C    0.027123
    31  C    0.059322
    32  C    0.005993
    33  C    0.008043
    34  N   -0.245362
    35  C    0.043190
    36  C   -0.195760
    37  C   -0.038860
    38  C    0.127769
    39  C    0.127496
    40  C    0.094393
    41  O   -0.131028
    42  C   -0.126387
    43  C    0.231875
    44  O   -0.197294
    45  O   -0.375864
    46  C    0.187222
    47  C    0.274456
    48  C   -0.106351
    49  C   -0.188725
    50  C    0.071125
    51  C    0.078132
    52  C   -0.011704
    53  C    0.044800
    54  C   -0.118848
    55  C    0.073397
    56  C    0.045744
    57  C   -0.004181
    58  C    0.050225
    59  C   -0.133063
    60  C    0.024515
    61  C    0.043934
    62  C    0.013627
    63  C    0.019047
    64  C   -0.147950
    65  C    0.043816
    66  C    0.034518
    67  H   -0.034510
    68  H   -0.005912
    69  H   -0.016219
    70  H    0.037463
    71  H    0.001213
    72  H    0.011680
    73  H    0.005160
    74  H    0.023731
    75  H    0.003346
    76  H    0.015576
    77  H    0.028069
    78  H    0.032613
    79  H    0.011051
    80  H    0.037894
    81  H    0.024921
    82  H    0.036129
    83  H    0.038870
    84  H   -0.005394
    85  H    0.015235
    86  H    0.008262
    87  H    0.027955
    88  H    0.009893
    89  H    0.014284
    90  H    0.010399
    91  H    0.008490
    92  H    0.011962
    93  H    0.028859
    94  H    0.008402
    95  H    0.040679
    96  H    0.036771
    97  H    0.021996
    98  H    0.052237
    99  H    0.055095
   100  H    0.013353
   101  H    0.014349
   102  H    0.032477
   103  H    0.027589
   104  H    0.000692
   105  H    0.012883
   106  H    0.020735
   107  H    0.033054
   108  H    0.011328
   109  H   -0.004099
   110  H    0.007006
   111  H   -0.011031
   112  H    0.000045
   113  H   -0.008981
   114  H   -0.004807
   115  H    0.025649
   116  H    0.001991
   117  H   -0.009641
   118  H   -0.008883
   119  H   -0.016440
   120  H   -0.007477
   121  H   -0.002021
   122  H   -0.000720
   123  H    0.002217
   124  H   -0.013322
   125  H    0.006098
   126  H   -0.003257
   127  H    0.015522
   128  H    0.003437
   129  H   -0.005373
   130  H    0.014308
   131  H    0.009621
   132  H   -0.018666
   133  H   -0.002317
   134  H    0.000118
   135  H    0.002055
   136  H    0.004718
   137  H    0.014148
   138  H    0.012789
   139  H    0.013922
   140  H    0.007761
 Sum of Mulliken charges =  -0.00000

 Dipole moment (field-independent basis, Debye):
    X=              4.0076    Y=              4.7108    Z=             -3.7784  Tot=              7.2477
 Quadrupole moment (field-independent basis, Debye-Ang):
   XX=           -379.1460   YY=           -433.3598   ZZ=           -400.6969
   XY=            -17.2438   XZ=             13.8160   YZ=             11.9230

 Normal termination of Gaussian 16 at Tue Apr 26 22:37:00 2022.
