 Gaussian 16, Revision A.03,
 Gaussian 16:  ES64L-G16RevA.03 25-Dec-2016

 ---------------------------------
 #p PBE1PBE/Def2SVP td=(nstates=5)
 ---------------------------------

 -----------------------------------------------------
 step_1001_chromophore_3 TDDFT with PBE1PBE functional
 -----------------------------------------------------
 Symbolic Z-matrix:
 Charge =  0 Multiplicity = 1

                         Standard orientation:
 ---------------------------------------------------------------------
 Center     Atomic      Atomic             Coordinates (Angstroms)
 Number     Number       Type             X           Y           Z
 ---------------------------------------------------------------------
      1         12           0       -5.540174    0.913158    0.072671
      2          6           0       -3.960795   -2.334095    0.157435
      3          6           0       -2.364973    2.156964    0.141017
      4          6           0       -6.910027    3.704295    0.055885
      5          6           0       -8.526964   -0.839454    0.670923
      6          7           0       -3.361627   -0.070899    0.218874
      7          6           0       -2.956642   -1.373557    0.094407
      8          6           0       -1.479097   -1.468031   -0.341896
      9          6           0       -0.990892   -0.031542   -0.037487
     10          6           0       -2.316564    0.760068    0.088159
     11          6           0       -0.203807    0.210424    1.231013
     12          6           0       -1.417554   -1.840824   -1.830627
     13          6           0       -0.382268   -2.854331   -2.177380
     14          6           0        0.754767   -3.090909   -1.157846
     15          8           0        0.792345   -3.988615   -0.305516
     16          8           0        1.812161   -2.266364   -1.421044
     17          7           0       -4.731026    2.729091    0.236445
     18          6           0       -3.451466    3.081172    0.236523
     19          6           0       -3.304916    4.485177    0.250626
     20          6           0       -4.566685    4.949448    0.130202
     21          6           0       -5.499637    3.755458    0.163084
     22          6           0       -2.027332    5.200344    0.353556
     23          6           0       -5.081445    6.349717   -0.019717
     24          8           0       -6.248432    6.498375   -0.171492
     25          6           0       -4.301092    7.593912   -0.058684
     26          7           0       -7.463563    1.376628    0.486741
     27          6           0       -7.796608    2.679465    0.330387
     28          6           0       -9.313681    2.875263    0.345820
     29          6           0       -9.812016    1.438137    0.306601
     30          6           0       -8.569765    0.562141    0.549608
     31          6           0       -9.768781    3.585040    1.672248
     32          6           0      -10.499114    1.081408   -1.060757
     33          6           0      -12.027099    0.789550   -1.027806
     34          7           0       -6.192263   -1.200567    0.198204
     35          6           0       -7.412805   -1.709439    0.476906
     36          6           0       -7.395214   -3.185011    0.456747
     37          6           0       -6.042115   -3.462603    0.274993
     38          6           0       -5.359677   -2.211607    0.239527
     39          6           0       -8.530650   -4.183417    0.673684
     40          6           0       -5.072345   -4.586124    0.227059
     41          8           0       -5.265899   -5.758980    0.395599
     42          6           0       -3.649059   -3.855120   -0.053057
     43          6           0       -2.691658   -4.396483    0.981023
     44          8           0       -2.272862   -3.875139    1.994911
     45          8           0       -2.281504   -5.659391    0.414954
     46          6           0       -1.084413   -6.182393    1.017060
     47          6           0        3.079504   -2.457159   -0.800566
     48          6           0        4.185165   -2.275667   -1.823874
     49          6           0        5.503613   -2.609045   -1.691588
     50          6           0        6.083137   -3.285147   -0.400635
     51          6           0        6.539043   -2.160285   -2.752474
     52          6           0        6.814744   -0.635557   -2.732706
     53          6           0        8.234020   -0.180881   -3.197993
     54          6           0        9.016286    0.374644   -2.032458
     55          6           0        9.424943   -0.636477   -0.953704
     56          6           0       10.241929    1.217728   -2.550989
     57          6           0       10.353392    2.710238   -2.003217
     58          6           0       11.844828    3.248564   -1.788833
     59          6           0       12.405351    3.017270   -0.350168
     60          6           0       13.508893    4.138261   -0.042345
     61          6           0       12.775202    1.545716    0.183015
     62          6           0       13.104252    1.518100    1.758744
     63          6           0       12.745725    0.153329    2.330514
     64          6           0       12.647150    0.071976    3.927172
     65          6           0       13.554728   -1.030891    4.538731
     66          6           0       11.117058   -0.003813    4.414850
     67          1           0       -1.363039    2.572066    0.014435
     68          1           0       -7.533626    4.562855   -0.202747
     69          1           0       -9.448737   -1.343947    0.374798
     70          1           0       -1.017529   -2.225159    0.291407
     71          1           0       -0.503139    0.412886   -0.904898
     72          1           0       -0.300398    1.233350    1.595695
     73          1           0        0.860171   -0.014054    1.160711
     74          1           0       -0.468647   -0.462941    2.045519
     75          1           0       -1.359407   -0.926111   -2.420656
     76          1           0       -2.324721   -2.313127   -2.208382
     77          1           0        0.050796   -2.618253   -3.150409
     78          1           0       -0.854604   -3.836626   -2.201964
     79          1           0       -1.200903    4.526792    0.581046
     80          1           0       -1.926501    6.008255    1.079578
     81          1           0       -1.841033    5.614728   -0.636886
     82          1           0       -4.862550    8.446430    0.324912
     83          1           0       -3.947758    7.677987   -1.086000
     84          1           0       -3.407513    7.580611    0.565916
     85          1           0       -9.665005    3.348455   -0.571137
     86          1           0      -10.476278    1.302658    1.160806
     87          1           0       -9.068080    3.648702    2.504704
     88          1           0      -10.693401    3.154706    2.056700
     89          1           0       -9.999077    4.638539    1.518327
     90          1           0      -10.075123    0.154210   -1.447596
     91          1           0      -10.363932    1.856025   -1.815928
     92          1           0      -12.340547    1.258837   -0.095367
     93          1           0      -12.151252   -0.277127   -1.212218
     94          1           0      -12.569803    1.347825   -1.791614
     95          1           0       -8.942762   -3.974497    1.660426
     96          1           0       -7.961756   -5.102797    0.533079
     97          1           0       -9.273773   -4.144385   -0.123723
     98          1           0       -3.181413   -4.190749   -0.978285
     99          1           0       -0.426260   -5.490782    1.543627
    100          1           0       -0.510853   -6.701848    0.250347
    101          1           0       -1.477709   -7.015867    1.598857
    102          1           0        3.131708   -3.444725   -0.343469
    103          1           0        3.197869   -1.825247    0.079660
    104          1           0        3.918684   -1.997061   -2.843691
    105          1           0        5.355559   -3.327306    0.410047
    106          1           0        6.967027   -2.703692   -0.139876
    107          1           0        6.387018   -4.310229   -0.613214
    108          1           0        6.269274   -2.386456   -3.784195
    109          1           0        7.484244   -2.650763   -2.522266
    110          1           0        6.400324   -0.215463   -1.816294
    111          1           0        6.242308   -0.148870   -3.522615
    112          1           0        8.083588    0.479938   -4.050576
    113          1           0        8.670447   -1.085051   -3.621927
    114          1           0        8.421306    1.148501   -1.547266
    115          1           0        9.579856   -0.266348    0.059647
    116          1           0       10.390051   -1.072817   -1.210504
    117          1           0        8.674630   -1.423639   -1.029283
    118          1           0       10.274420    1.245427   -3.639751
    119          1           0       11.145880    0.692370   -2.243607
    120          1           0        9.805500    2.685592   -1.061172
    121          1           0        9.850000    3.438860   -2.638315
    122          1           0       11.719651    4.315996   -1.969303
    123          1           0       12.518041    2.732948   -2.473738
    124          1           0       11.589406    3.412549    0.256097
    125          1           0       13.933425    4.530579   -0.965726
    126          1           0       14.291341    3.596770    0.489415
    127          1           0       13.212034    4.985404    0.576318
    128          1           0       13.581037    1.198719   -0.464197
    129          1           0       11.946566    0.854197    0.030157
    130          1           0       12.703947    2.330491    2.364097
    131          1           0       14.193668    1.552156    1.783379
    132          1           0       13.584226   -0.490706    2.066267
    133          1           0       11.899342   -0.331876    1.844385
    134          1           0       12.964256    1.045633    4.301463
    135          1           0       12.947763   -1.813135    4.996264
    136          1           0       14.125173   -0.708295    5.409403
    137          1           0       14.263225   -1.425209    3.810668
    138          1           0       10.977656    0.879081    5.039916
    139          1           0       10.920440   -0.933225    4.948765
    140          1           0       10.440784    0.086827    3.564493
 ---------------------------------------------------------------------

 SCF Done:  E(RPBE1PBE) =  -3005.34316548     A.U. after   15 cycles

 Excitation energies and oscillator strengths:

 Excited State   1:      Singlet-A      1.9279 eV  643.11 nm  f=0.3770  <S**2>=0.000
     245 -> 248       -0.18091
     246 -> 247        0.69079
     246 <- 247       -0.10310
 This state for optimization and/or second-order correction.
 Total Energy, E(TD-HF/TD-DFT) =  -3005.27231678
 Copying the excited state density for this state as the 1-particle RhoCI density.

 Excited State   2:      Singlet-A      2.3241 eV  533.48 nm  f=0.1093  <S**2>=0.000
     245 -> 247        0.64524
     246 -> 248        0.27908

 Excited State   3:      Singlet-A      3.1096 eV  398.72 nm  f=0.0010  <S**2>=0.000
     244 -> 247        0.67658
     244 -> 249        0.10910
     244 -> 250       -0.10223

 Excited State   4:      Singlet-A      3.1989 eV  387.58 nm  f=0.0024  <S**2>=0.000
     241 -> 247        0.36041
     241 -> 249       -0.13438
     242 -> 247        0.56746
     242 -> 249       -0.10399
     246 -> 248       -0.10025

 Excited State   5:      Singlet-A      3.3218 eV  373.25 nm  f=0.0144  <S**2>=0.000
     241 -> 247        0.56452
     242 -> 247       -0.34179
     246 -> 248        0.21040

 The electronic state is 1-A.
 Alpha  occ. eigenvalues --  -46.92713 -19.26560 -19.23272 -19.21142 -19.20400
 Alpha  occ. eigenvalues --  -19.19783 -19.17827 -14.40908 -14.40627 -14.39210
 Alpha  occ. eigenvalues --  -14.38295 -10.37678 -10.35688 -10.32580 -10.30776
 Alpha  occ. eigenvalues --  -10.29947 -10.28432 -10.28038 -10.27867 -10.27744
 Alpha  occ. eigenvalues --  -10.27639 -10.26994 -10.26876 -10.26009 -10.25894
 Alpha  occ. eigenvalues --  -10.25793 -10.25783 -10.25690 -10.25596 -10.25531
 Alpha  occ. eigenvalues --  -10.25271 -10.25201 -10.25161 -10.25122 -10.24934
 Alpha  occ. eigenvalues --  -10.24710 -10.24446 -10.24400 -10.24168 -10.24057
 Alpha  occ. eigenvalues --  -10.23992 -10.23864 -10.23813 -10.23786 -10.23751
 Alpha  occ. eigenvalues --  -10.23668 -10.23578 -10.23520 -10.23212 -10.23210
 Alpha  occ. eigenvalues --  -10.23201 -10.23016 -10.22993 -10.22941 -10.22932
 Alpha  occ. eigenvalues --  -10.22924 -10.22823 -10.22813 -10.22802 -10.22597
 Alpha  occ. eigenvalues --  -10.22529 -10.22504 -10.22282 -10.22253 -10.22073
 Alpha  occ. eigenvalues --  -10.21843  -3.14876  -1.87693  -1.87263  -1.87102
 Alpha  occ. eigenvalues --   -1.12201  -1.08593  -1.06553  -1.05808  -1.03272
 Alpha  occ. eigenvalues --   -1.01807  -1.01423  -0.99279  -0.98005  -0.97626
 Alpha  occ. eigenvalues --   -0.85749  -0.85056  -0.84444  -0.83951  -0.82880
 Alpha  occ. eigenvalues --   -0.82814  -0.82263  -0.81727  -0.81562  -0.80621
 Alpha  occ. eigenvalues --   -0.80248  -0.80032  -0.78344  -0.77318  -0.77228
 Alpha  occ. eigenvalues --   -0.76660  -0.76190  -0.75530  -0.74744  -0.74165
 Alpha  occ. eigenvalues --   -0.73709  -0.72886  -0.72288  -0.71219  -0.70504
 Alpha  occ. eigenvalues --   -0.69990  -0.69513  -0.68956  -0.68422  -0.68271
 Alpha  occ. eigenvalues --   -0.67992  -0.67241  -0.65640  -0.65072  -0.63075
 Alpha  occ. eigenvalues --   -0.62736  -0.62547  -0.62078  -0.61254  -0.60474
 Alpha  occ. eigenvalues --   -0.59778  -0.59484  -0.59232  -0.59023  -0.58607
 Alpha  occ. eigenvalues --   -0.58023  -0.57581  -0.56067  -0.55384  -0.55016
 Alpha  occ. eigenvalues --   -0.54444  -0.53992  -0.53984  -0.53176  -0.52225
 Alpha  occ. eigenvalues --   -0.51355  -0.51067  -0.50760  -0.50501  -0.50368
 Alpha  occ. eigenvalues --   -0.49525  -0.49485  -0.49183  -0.48234  -0.48203
 Alpha  occ. eigenvalues --   -0.48079  -0.47783  -0.47702  -0.47536  -0.47294
 Alpha  occ. eigenvalues --   -0.47082  -0.46935  -0.46731  -0.46646  -0.46392
 Alpha  occ. eigenvalues --   -0.46148  -0.45809  -0.45631  -0.45180  -0.45097
 Alpha  occ. eigenvalues --   -0.45037  -0.44956  -0.44500  -0.44244  -0.44211
 Alpha  occ. eigenvalues --   -0.44100  -0.43650  -0.43531  -0.43486  -0.43216
 Alpha  occ. eigenvalues --   -0.43069  -0.43046  -0.42766  -0.42552  -0.42275
 Alpha  occ. eigenvalues --   -0.42116  -0.41963  -0.41588  -0.41544  -0.41339
 Alpha  occ. eigenvalues --   -0.41206  -0.40777  -0.40590  -0.40321  -0.40232
 Alpha  occ. eigenvalues --   -0.40057  -0.39950  -0.39679  -0.39457  -0.39418
 Alpha  occ. eigenvalues --   -0.39257  -0.39114  -0.38964  -0.38843  -0.38745
 Alpha  occ. eigenvalues --   -0.38497  -0.38256  -0.38180  -0.38043  -0.37761
 Alpha  occ. eigenvalues --   -0.37671  -0.37495  -0.37249  -0.37166  -0.36994
 Alpha  occ. eigenvalues --   -0.36825  -0.36451  -0.36394  -0.36312  -0.35986
 Alpha  occ. eigenvalues --   -0.35724  -0.35469  -0.35301  -0.35293  -0.34861
 Alpha  occ. eigenvalues --   -0.34794  -0.34523  -0.34450  -0.34105  -0.34056
 Alpha  occ. eigenvalues --   -0.33827  -0.33118  -0.32724  -0.32572  -0.32144
 Alpha  occ. eigenvalues --   -0.32068  -0.31584  -0.31558  -0.31430  -0.31361
 Alpha  occ. eigenvalues --   -0.30608  -0.30452  -0.29807  -0.29426  -0.29034
 Alpha  occ. eigenvalues --   -0.28994  -0.28710  -0.27905  -0.27285  -0.26316
 Alpha  occ. eigenvalues --   -0.25591  -0.25336  -0.25010  -0.24927  -0.20504
 Alpha  occ. eigenvalues --   -0.18233
 Alpha virt. eigenvalues --   -0.10320  -0.04509  -0.03059  -0.01389  -0.00952
 Alpha virt. eigenvalues --   -0.00743   0.00439   0.01029   0.02240   0.04047
 Alpha virt. eigenvalues --    0.04364   0.04626   0.05033   0.05709   0.06065

 Mulliken charges:
               1
     1  Mg   0.978998
     2  C   -0.007505
     3  C   -0.077404
     4  C   -0.057589
     5  C   -0.038378
     6  N   -0.324695
     7  C    0.014264
     8  C   -0.122283
     9  C   -0.079587
    10  C   -0.006663
    11  C    0.026828
    12  C    0.049839
    13  C    0.021087
    14  C    0.202997
    15  O   -0.275580
    16  O   -0.351278
    17  N   -0.453222
    18  C    0.158234
    19  C   -0.158696
    20  C   -0.072039
    21  C    0.181413
    22  C    0.055468
    23  C    0.011267
    24  O   -0.222119
    25  C    0.004886
    26  N   -0.457786
    27  C    0.060194
    28  C   -0.108589
    29  C   -0.085751
    30  C    0.064819
    31  C    0.007957
    32  C   -0.050007
    33  C   -0.064695
    34  N   -0.368765
    35  C    0.057480
    36  C   -0.210048
    37  C   -0.086316
    38  C    0.167834
    39  C    0.066934
    40  C    0.193369
    41  O   -0.175906
    42  C   -0.228283
    43  C    0.313225
    44  O   -0.232092
    45  O   -0.404040
    46  C    0.133867
    47  C    0.240862
    48  C   -0.116886
    49  C   -0.233210
    50  C    0.001609
    51  C    0.012831
    52  C   -0.072333
    53  C   -0.010873
    54  C   -0.208714
    55  C    0.003306
    56  C   -0.002125
    57  C   -0.066842
    58  C   -0.010648
    59  C   -0.210483
    60  C   -0.036064
    61  C   -0.020956
    62  C   -0.051895
    63  C   -0.036120
    64  C   -0.235928
    65  C   -0.016603
    66  C   -0.025818
    67  H   -0.003000
    68  H    0.027788
    69  H    0.016067
    70  H    0.080075
    71  H    0.037612
    72  H    0.039860
    73  H    0.034653
    74  H    0.050788
    75  H    0.034708
    76  H    0.048966
    77  H    0.059677
    78  H    0.065388
    79  H    0.037681
    80  H    0.063600
    81  H    0.053459
    82  H    0.062054
    83  H    0.065789
    84  H    0.022011
    85  H    0.050277
    86  H    0.044640
    87  H    0.054623
    88  H    0.036910
    89  H    0.042036
    90  H    0.044257
    91  H    0.040285
    92  H    0.040023
    93  H    0.055276
    94  H    0.036950
    95  H    0.068309
    96  H    0.066145
    97  H    0.049963
    98  H    0.089039
    99  H    0.075713
   100  H    0.036089
   101  H    0.038081
   102  H    0.057513
   103  H    0.053624
   104  H    0.030782
   105  H    0.039676
   106  H    0.052037
   107  H    0.061137
   108  H    0.043722
   109  H    0.028002
   110  H    0.038976
   111  H    0.023222
   112  H    0.031743
   113  H    0.024870
   114  H    0.034981
   115  H    0.052964
   116  H    0.029388
   117  H    0.027244
   118  H    0.023388
   119  H    0.016932
   120  H    0.024874
   121  H    0.030368
   122  H    0.031988
   123  H    0.035292
   124  H    0.026788
   125  H    0.033600
   126  H    0.026011
   127  H    0.042072
   128  H    0.035227
   129  H    0.035390
   130  H    0.044808
   131  H    0.043083
   132  H    0.015248
   133  H    0.029249
   134  H    0.038281
   135  H    0.029052
   136  H    0.032349
   137  H    0.040340
   138  H    0.039980
   139  H    0.040249
   140  H    0.035002
 Sum of Mulliken charges =  -0.00000

 Dipole moment (field-independent basis, Debye):
    X=              3.8340    Y=              4.6751    Z=             -3.8034  Tot=              7.1429
 Quadrupole moment (field-independent basis, Debye-Ang):
   XX=           -371.6366   YY=           -430.7422   ZZ=           -398.0761
   XY=            -17.0765   XZ=             14.0962   YZ=             11.7260

 Normal termination of Gaussian 16 at Tue Apr 26 22:55:47 2022.
