 Gaussian 16, Revision A.03,
 Gaussian 16:  ES64L-G16RevA.03 25-Dec-2016

 --------------------------------
 #p wB97XD/Def2SVP td=(nstates=5)
 --------------------------------

 ----------------------------------------------------
 step_1001_chromophore_3 TDDFT with wB97XD functional
 ----------------------------------------------------
 Symbolic Z-matrix:
 Charge =  0 Multiplicity = 1

                         Standard orientation:
 ---------------------------------------------------------------------
 Center     Atomic      Atomic             Coordinates (Angstroms)
 Number     Number       Type             X           Y           Z
 ---------------------------------------------------------------------
      1         12           0       -5.540174    0.913158    0.072671
      2          6           0       -3.960795   -2.334095    0.157435
      3          6           0       -2.364973    2.156964    0.141017
      4          6           0       -6.910027    3.704295    0.055885
      5          6           0       -8.526964   -0.839454    0.670923
      6          7           0       -3.361627   -0.070899    0.218874
      7          6           0       -2.956642   -1.373557    0.094407
      8          6           0       -1.479097   -1.468031   -0.341896
      9          6           0       -0.990892   -0.031542   -0.037487
     10          6           0       -2.316564    0.760068    0.088159
     11          6           0       -0.203807    0.210424    1.231013
     12          6           0       -1.417554   -1.840824   -1.830627
     13          6           0       -0.382268   -2.854331   -2.177380
     14          6           0        0.754767   -3.090909   -1.157846
     15          8           0        0.792345   -3.988615   -0.305516
     16          8           0        1.812161   -2.266364   -1.421044
     17          7           0       -4.731026    2.729091    0.236445
     18          6           0       -3.451466    3.081172    0.236523
     19          6           0       -3.304916    4.485177    0.250626
     20          6           0       -4.566685    4.949448    0.130202
     21          6           0       -5.499637    3.755458    0.163084
     22          6           0       -2.027332    5.200344    0.353556
     23          6           0       -5.081445    6.349717   -0.019717
     24          8           0       -6.248432    6.498375   -0.171492
     25          6           0       -4.301092    7.593912   -0.058684
     26          7           0       -7.463563    1.376628    0.486741
     27          6           0       -7.796608    2.679465    0.330387
     28          6           0       -9.313681    2.875263    0.345820
     29          6           0       -9.812016    1.438137    0.306601
     30          6           0       -8.569765    0.562141    0.549608
     31          6           0       -9.768781    3.585040    1.672248
     32          6           0      -10.499114    1.081408   -1.060757
     33          6           0      -12.027099    0.789550   -1.027806
     34          7           0       -6.192263   -1.200567    0.198204
     35          6           0       -7.412805   -1.709439    0.476906
     36          6           0       -7.395214   -3.185011    0.456747
     37          6           0       -6.042115   -3.462603    0.274993
     38          6           0       -5.359677   -2.211607    0.239527
     39          6           0       -8.530650   -4.183417    0.673684
     40          6           0       -5.072345   -4.586124    0.227059
     41          8           0       -5.265899   -5.758980    0.395599
     42          6           0       -3.649059   -3.855120   -0.053057
     43          6           0       -2.691658   -4.396483    0.981023
     44          8           0       -2.272862   -3.875139    1.994911
     45          8           0       -2.281504   -5.659391    0.414954
     46          6           0       -1.084413   -6.182393    1.017060
     47          6           0        3.079504   -2.457159   -0.800566
     48          6           0        4.185165   -2.275667   -1.823874
     49          6           0        5.503613   -2.609045   -1.691588
     50          6           0        6.083137   -3.285147   -0.400635
     51          6           0        6.539043   -2.160285   -2.752474
     52          6           0        6.814744   -0.635557   -2.732706
     53          6           0        8.234020   -0.180881   -3.197993
     54          6           0        9.016286    0.374644   -2.032458
     55          6           0        9.424943   -0.636477   -0.953704
     56          6           0       10.241929    1.217728   -2.550989
     57          6           0       10.353392    2.710238   -2.003217
     58          6           0       11.844828    3.248564   -1.788833
     59          6           0       12.405351    3.017270   -0.350168
     60          6           0       13.508893    4.138261   -0.042345
     61          6           0       12.775202    1.545716    0.183015
     62          6           0       13.104252    1.518100    1.758744
     63          6           0       12.745725    0.153329    2.330514
     64          6           0       12.647150    0.071976    3.927172
     65          6           0       13.554728   -1.030891    4.538731
     66          6           0       11.117058   -0.003813    4.414850
     67          1           0       -1.363039    2.572066    0.014435
     68          1           0       -7.533626    4.562855   -0.202747
     69          1           0       -9.448737   -1.343947    0.374798
     70          1           0       -1.017529   -2.225159    0.291407
     71          1           0       -0.503139    0.412886   -0.904898
     72          1           0       -0.300398    1.233350    1.595695
     73          1           0        0.860171   -0.014054    1.160711
     74          1           0       -0.468647   -0.462941    2.045519
     75          1           0       -1.359407   -0.926111   -2.420656
     76          1           0       -2.324721   -2.313127   -2.208382
     77          1           0        0.050796   -2.618253   -3.150409
     78          1           0       -0.854604   -3.836626   -2.201964
     79          1           0       -1.200903    4.526792    0.581046
     80          1           0       -1.926501    6.008255    1.079578
     81          1           0       -1.841033    5.614728   -0.636886
     82          1           0       -4.862550    8.446430    0.324912
     83          1           0       -3.947758    7.677987   -1.086000
     84          1           0       -3.407513    7.580611    0.565916
     85          1           0       -9.665005    3.348455   -0.571137
     86          1           0      -10.476278    1.302658    1.160806
     87          1           0       -9.068080    3.648702    2.504704
     88          1           0      -10.693401    3.154706    2.056700
     89          1           0       -9.999077    4.638539    1.518327
     90          1           0      -10.075123    0.154210   -1.447596
     91          1           0      -10.363932    1.856025   -1.815928
     92          1           0      -12.340547    1.258837   -0.095367
     93          1           0      -12.151252   -0.277127   -1.212218
     94          1           0      -12.569803    1.347825   -1.791614
     95          1           0       -8.942762   -3.974497    1.660426
     96          1           0       -7.961756   -5.102797    0.533079
     97          1           0       -9.273773   -4.144385   -0.123723
     98          1           0       -3.181413   -4.190749   -0.978285
     99          1           0       -0.426260   -5.490782    1.543627
    100          1           0       -0.510853   -6.701848    0.250347
    101          1           0       -1.477709   -7.015867    1.598857
    102          1           0        3.131708   -3.444725   -0.343469
    103          1           0        3.197869   -1.825247    0.079660
    104          1           0        3.918684   -1.997061   -2.843691
    105          1           0        5.355559   -3.327306    0.410047
    106          1           0        6.967027   -2.703692   -0.139876
    107          1           0        6.387018   -4.310229   -0.613214
    108          1           0        6.269274   -2.386456   -3.784195
    109          1           0        7.484244   -2.650763   -2.522266
    110          1           0        6.400324   -0.215463   -1.816294
    111          1           0        6.242308   -0.148870   -3.522615
    112          1           0        8.083588    0.479938   -4.050576
    113          1           0        8.670447   -1.085051   -3.621927
    114          1           0        8.421306    1.148501   -1.547266
    115          1           0        9.579856   -0.266348    0.059647
    116          1           0       10.390051   -1.072817   -1.210504
    117          1           0        8.674630   -1.423639   -1.029283
    118          1           0       10.274420    1.245427   -3.639751
    119          1           0       11.145880    0.692370   -2.243607
    120          1           0        9.805500    2.685592   -1.061172
    121          1           0        9.850000    3.438860   -2.638315
    122          1           0       11.719651    4.315996   -1.969303
    123          1           0       12.518041    2.732948   -2.473738
    124          1           0       11.589406    3.412549    0.256097
    125          1           0       13.933425    4.530579   -0.965726
    126          1           0       14.291341    3.596770    0.489415
    127          1           0       13.212034    4.985404    0.576318
    128          1           0       13.581037    1.198719   -0.464197
    129          1           0       11.946566    0.854197    0.030157
    130          1           0       12.703947    2.330491    2.364097
    131          1           0       14.193668    1.552156    1.783379
    132          1           0       13.584226   -0.490706    2.066267
    133          1           0       11.899342   -0.331876    1.844385
    134          1           0       12.964256    1.045633    4.301463
    135          1           0       12.947763   -1.813135    4.996264
    136          1           0       14.125173   -0.708295    5.409403
    137          1           0       14.263225   -1.425209    3.810668
    138          1           0       10.977656    0.879081    5.039916
    139          1           0       10.920440   -0.933225    4.948765
    140          1           0       10.440784    0.086827    3.564493
 ---------------------------------------------------------------------

 SCF Done:  E(RwB97XD) =  -3007.85436390     A.U. after   15 cycles

 Excitation energies and oscillator strengths:

 Excited State   1:      Singlet-A      1.7105 eV  724.82 nm  f=0.3864  <S**2>=0.000
     245 -> 248       -0.19159
     246 -> 247        0.68224
     245 <- 248       -0.11599
 This state for optimization and/or second-order correction.
 Total Energy, E(TD-HF/TD-DFT) =  -3007.79150242
 Copying the excited state density for this state as the 1-particle RhoCI density.

 Excited State   2:      Singlet-A      2.2712 eV  545.89 nm  f=0.1078  <S**2>=0.000
     245 -> 247        0.63367
     246 -> 248        0.30482

 Excited State   3:      Singlet-A      3.5830 eV  346.03 nm  f=0.4385  <S**2>=0.000
     242 -> 247       -0.16663
     243 -> 247       -0.34661
     245 -> 247       -0.22510
     246 -> 248        0.52298

 Excited State   4:      Singlet-A      3.6782 eV  337.08 nm  f=0.1889  <S**2>=0.000
     241 -> 247        0.18334
     241 -> 249       -0.15162
     242 -> 247       -0.18360
     242 -> 249       -0.14664
     242 -> 251       -0.12253
     243 -> 247        0.49513
     245 -> 247       -0.14787
     246 -> 248        0.25781

 Excited State   5:      Singlet-A      3.7331 eV  332.13 nm  f=0.0395  <S**2>=0.000
     241 -> 247        0.42470
     241 -> 249       -0.28885
     242 -> 247        0.31542
     242 -> 249        0.12262
     242 -> 251        0.14587
     243 -> 247       -0.12751
     246 -> 248        0.12186

 The electronic state is 1-A.
 Alpha  occ. eigenvalues --  -46.95646 -19.31125 -19.27840 -19.25808 -19.25174
 Alpha  occ. eigenvalues --  -19.24629 -19.22633 -14.46165 -14.45521 -14.44221
 Alpha  occ. eigenvalues --  -14.43245 -10.44461 -10.42583 -10.39451 -10.37603
 Alpha  occ. eigenvalues --  -10.36442 -10.34677 -10.34262 -10.34199 -10.34185
 Alpha  occ. eigenvalues --  -10.33934 -10.33363 -10.33129 -10.32412 -10.32302
 Alpha  occ. eigenvalues --  -10.32248 -10.32024 -10.32017 -10.31975 -10.31886
 Alpha  occ. eigenvalues --  -10.31642 -10.31499 -10.31486 -10.31463 -10.31292
 Alpha  occ. eigenvalues --  -10.31096 -10.31036 -10.30979 -10.30514 -10.30431
 Alpha  occ. eigenvalues --  -10.30386 -10.30258 -10.30142 -10.30099 -10.30063
 Alpha  occ. eigenvalues --  -10.30029 -10.29818 -10.29798 -10.29612 -10.29607
 Alpha  occ. eigenvalues --  -10.29540 -10.29530 -10.29415 -10.29389 -10.29318
 Alpha  occ. eigenvalues --  -10.29187 -10.29166 -10.29161 -10.29159 -10.29060
 Alpha  occ. eigenvalues --  -10.28864 -10.28840 -10.28692 -10.28626 -10.28494
 Alpha  occ. eigenvalues --  -10.28278  -3.21683  -1.95249  -1.94816  -1.94649
 Alpha  occ. eigenvalues --   -1.19581  -1.16052  -1.14004  -1.13301  -1.10621
 Alpha  occ. eigenvalues --   -1.09204  -1.08777  -1.06572  -1.05419  -1.04963
 Alpha  occ. eigenvalues --   -0.93409  -0.92712  -0.92129  -0.91626  -0.90569
 Alpha  occ. eigenvalues --   -0.90340  -0.89953  -0.89365  -0.89114  -0.88310
 Alpha  occ. eigenvalues --   -0.87825  -0.87676  -0.86005  -0.84906  -0.84846
 Alpha  occ. eigenvalues --   -0.84327  -0.83951  -0.83210  -0.82384  -0.81772
 Alpha  occ. eigenvalues --   -0.81400  -0.80594  -0.79936  -0.78776  -0.78202
 Alpha  occ. eigenvalues --   -0.77558  -0.77217  -0.76623  -0.76045  -0.75963
 Alpha  occ. eigenvalues --   -0.75636  -0.74752  -0.73191  -0.72694  -0.70681
 Alpha  occ. eigenvalues --   -0.70370  -0.70080  -0.69581  -0.68914  -0.67985
 Alpha  occ. eigenvalues --   -0.67265  -0.67084  -0.66762  -0.66455  -0.66004
 Alpha  occ. eigenvalues --   -0.65716  -0.65240  -0.63710  -0.62861  -0.62497
 Alpha  occ. eigenvalues --   -0.61933  -0.61480  -0.61345  -0.60571  -0.59583
 Alpha  occ. eigenvalues --   -0.58853  -0.58538  -0.58288  -0.57940  -0.57821
 Alpha  occ. eigenvalues --   -0.56961  -0.56904  -0.56601  -0.55741  -0.55624
 Alpha  occ. eigenvalues --   -0.55518  -0.55187  -0.55083  -0.54949  -0.54650
 Alpha  occ. eigenvalues --   -0.54465  -0.54269  -0.54142  -0.54000  -0.53805
 Alpha  occ. eigenvalues --   -0.53526  -0.53276  -0.53014  -0.52558  -0.52437
 Alpha  occ. eigenvalues --   -0.52340  -0.52272  -0.51817  -0.51606  -0.51529
 Alpha  occ. eigenvalues --   -0.51433  -0.50993  -0.50849  -0.50783  -0.50577
 Alpha  occ. eigenvalues --   -0.50450  -0.50362  -0.50080  -0.49845  -0.49536
 Alpha  occ. eigenvalues --   -0.49396  -0.49172  -0.48882  -0.48739  -0.48563
 Alpha  occ. eigenvalues --   -0.48414  -0.47968  -0.47833  -0.47499  -0.47380
 Alpha  occ. eigenvalues --   -0.47373  -0.47170  -0.46883  -0.46683  -0.46651
 Alpha  occ. eigenvalues --   -0.46327  -0.46306  -0.46175  -0.46053  -0.45948
 Alpha  occ. eigenvalues --   -0.45591  -0.45424  -0.45376  -0.45188  -0.44816
 Alpha  occ. eigenvalues --   -0.44780  -0.44565  -0.44405  -0.44209  -0.44186
 Alpha  occ. eigenvalues --   -0.43987  -0.43520  -0.43472  -0.43336  -0.43103
 Alpha  occ. eigenvalues --   -0.42925  -0.42502  -0.42358  -0.42277  -0.41934
 Alpha  occ. eigenvalues --   -0.41797  -0.41576  -0.41470  -0.41111  -0.40997
 Alpha  occ. eigenvalues --   -0.40767  -0.40175  -0.39737  -0.39480  -0.39199
 Alpha  occ. eigenvalues --   -0.39098  -0.38618  -0.38587  -0.38465  -0.38296
 Alpha  occ. eigenvalues --   -0.37633  -0.37318  -0.36915  -0.36246  -0.36048
 Alpha  occ. eigenvalues --   -0.35873  -0.35816  -0.34628  -0.33894  -0.32975
 Alpha  occ. eigenvalues --   -0.32554  -0.32113  -0.31911  -0.31760  -0.25501
 Alpha  occ. eigenvalues --   -0.22411
 Alpha virt. eigenvalues --   -0.06138   0.00961   0.03267   0.04980   0.05311
 Alpha virt. eigenvalues --    0.05928   0.07156   0.07763   0.08875   0.10384
 Alpha virt. eigenvalues --    0.11024   0.11256   0.11785   0.12464   0.12839

 Mulliken charges:
               1
     1  Mg   0.971304
     2  C   -0.000714
     3  C   -0.093792
     4  C   -0.079009
     5  C   -0.057985
     6  N   -0.288021
     7  C   -0.029065
     8  C   -0.083126
     9  C   -0.053296
    10  C   -0.022479
    11  C    0.034390
    12  C    0.053569
    13  C    0.038277
    14  C    0.190359
    15  O   -0.271935
    16  O   -0.348946
    17  N   -0.414951
    18  C    0.147372
    19  C   -0.143522
    20  C   -0.062774
    21  C    0.169535
    22  C    0.062711
    23  C    0.005070
    24  O   -0.217617
    25  C    0.014558
    26  N   -0.430496
    27  C    0.049431
    28  C   -0.079489
    29  C   -0.057496
    30  C    0.054789
    31  C    0.015059
    32  C   -0.037436
    33  C   -0.046980
    34  N   -0.330587
    35  C    0.052451
    36  C   -0.208559
    37  C   -0.081152
    38  C    0.154041
    39  C    0.082194
    40  C    0.170862
    41  O   -0.166137
    42  C   -0.190357
    43  C    0.293603
    44  O   -0.225892
    45  O   -0.404025
    46  C    0.145362
    47  C    0.251538
    48  C   -0.127686
    49  C   -0.218367
    50  C    0.019506
    51  C    0.030262
    52  C   -0.056697
    53  C    0.005303
    54  C   -0.176718
    55  C    0.029531
    56  C    0.010161
    57  C   -0.047586
    58  C    0.005016
    59  C   -0.184351
    60  C   -0.022693
    61  C    0.007817
    62  C   -0.036018
    63  C   -0.016647
    64  C   -0.211464
    65  C   -0.002165
    66  C   -0.011958
    67  H   -0.011097
    68  H    0.022982
    69  H    0.008224
    70  H    0.059368
    71  H    0.027976
    72  H    0.032537
    73  H    0.029741
    74  H    0.046063
    75  H    0.028425
    76  H    0.039846
    77  H    0.056065
    78  H    0.058755
    79  H    0.033520
    80  H    0.059906
    81  H    0.049007
    82  H    0.061222
    83  H    0.061881
    84  H    0.015513
    85  H    0.041184
    86  H    0.031924
    87  H    0.049767
    88  H    0.030421
    89  H    0.036714
    90  H    0.034190
    91  H    0.032230
    92  H    0.031895
    93  H    0.050167
    94  H    0.031187
    95  H    0.063379
    96  H    0.059956
    97  H    0.044881
    98  H    0.079646
    99  H    0.072556
   100  H    0.032977
   101  H    0.034641
   102  H    0.051993
   103  H    0.049320
   104  H    0.027871
   105  H    0.034483
   106  H    0.044154
   107  H    0.055990
   108  H    0.038027
   109  H    0.018208
   110  H    0.028540
   111  H    0.015156
   112  H    0.025233
   113  H    0.014812
   114  H    0.020121
   115  H    0.047455
   116  H    0.022447
   117  H    0.005055
   118  H    0.016054
   119  H    0.002844
   120  H    0.012542
   121  H    0.023954
   122  H    0.025046
   123  H    0.025972
   124  H    0.011617
   125  H    0.027546
   126  H    0.017146
   127  H    0.037729
   128  H    0.027605
   129  H    0.010095
   130  H    0.036683
   131  H    0.033624
   132  H    0.004603
   133  H    0.018578
   134  H    0.026677
   135  H    0.021883
   136  H    0.026816
   137  H    0.034079
   138  H    0.034351
   139  H    0.033995
   140  H    0.028162
 Sum of Mulliken charges =  -0.00000

 Dipole moment (field-independent basis, Debye):
    X=              4.0709    Y=              4.8019    Z=             -3.8450  Tot=              7.3766
 Quadrupole moment (field-independent basis, Debye-Ang):
   XX=           -374.2173   YY=           -428.9036   ZZ=           -397.7479
   XY=            -17.1067   XZ=             14.3744   YZ=             11.8105

 Normal termination of Gaussian 16 at Tue Apr 26 23:24:22 2022.
