 Gaussian 16, Revision A.03,
 Gaussian 16:  ES64L-G16RevA.03 25-Dec-2016

 --------------------
 #p ZINDO=(nstates=5)
 --------------------

 -----------------------------
 step_1001_chromophore_3 ZINDO
 -----------------------------
 Symbolic Z-matrix:
 Charge =  0 Multiplicity = 1

                         Standard orientation:
 ---------------------------------------------------------------------
 Center     Atomic      Atomic             Coordinates (Angstroms)
 Number     Number       Type             X           Y           Z
 ---------------------------------------------------------------------
      1         12           0       -5.540174    0.913158    0.072671
      2          6           0       -3.960795   -2.334095    0.157435
      3          6           0       -2.364973    2.156964    0.141017
      4          6           0       -6.910027    3.704295    0.055885
      5          6           0       -8.526964   -0.839454    0.670923
      6          7           0       -3.361627   -0.070899    0.218874
      7          6           0       -2.956642   -1.373557    0.094407
      8          6           0       -1.479097   -1.468031   -0.341896
      9          6           0       -0.990892   -0.031542   -0.037487
     10          6           0       -2.316564    0.760068    0.088159
     11          6           0       -0.203807    0.210424    1.231013
     12          6           0       -1.417554   -1.840824   -1.830627
     13          6           0       -0.382268   -2.854331   -2.177380
     14          6           0        0.754767   -3.090909   -1.157846
     15          8           0        0.792345   -3.988615   -0.305516
     16          8           0        1.812161   -2.266364   -1.421044
     17          7           0       -4.731026    2.729091    0.236445
     18          6           0       -3.451466    3.081172    0.236523
     19          6           0       -3.304916    4.485177    0.250626
     20          6           0       -4.566685    4.949448    0.130202
     21          6           0       -5.499637    3.755458    0.163084
     22          6           0       -2.027332    5.200344    0.353556
     23          6           0       -5.081445    6.349717   -0.019717
     24          8           0       -6.248432    6.498375   -0.171492
     25          6           0       -4.301092    7.593912   -0.058684
     26          7           0       -7.463563    1.376628    0.486741
     27          6           0       -7.796608    2.679465    0.330387
     28          6           0       -9.313681    2.875263    0.345820
     29          6           0       -9.812016    1.438137    0.306601
     30          6           0       -8.569765    0.562141    0.549608
     31          6           0       -9.768781    3.585040    1.672248
     32          6           0      -10.499114    1.081408   -1.060757
     33          6           0      -12.027099    0.789550   -1.027806
     34          7           0       -6.192263   -1.200567    0.198204
     35          6           0       -7.412805   -1.709439    0.476906
     36          6           0       -7.395214   -3.185011    0.456747
     37          6           0       -6.042115   -3.462603    0.274993
     38          6           0       -5.359677   -2.211607    0.239527
     39          6           0       -8.530650   -4.183417    0.673684
     40          6           0       -5.072345   -4.586124    0.227059
     41          8           0       -5.265899   -5.758980    0.395599
     42          6           0       -3.649059   -3.855120   -0.053057
     43          6           0       -2.691658   -4.396483    0.981023
     44          8           0       -2.272862   -3.875139    1.994911
     45          8           0       -2.281504   -5.659391    0.414954
     46          6           0       -1.084413   -6.182393    1.017060
     47          6           0        3.079504   -2.457159   -0.800566
     48          6           0        4.185165   -2.275667   -1.823874
     49          6           0        5.503613   -2.609045   -1.691588
     50          6           0        6.083137   -3.285147   -0.400635
     51          6           0        6.539043   -2.160285   -2.752474
     52          6           0        6.814744   -0.635557   -2.732706
     53          6           0        8.234020   -0.180881   -3.197993
     54          6           0        9.016286    0.374644   -2.032458
     55          6           0        9.424943   -0.636477   -0.953704
     56          6           0       10.241929    1.217728   -2.550989
     57          6           0       10.353392    2.710238   -2.003217
     58          6           0       11.844828    3.248564   -1.788833
     59          6           0       12.405351    3.017270   -0.350168
     60          6           0       13.508893    4.138261   -0.042345
     61          6           0       12.775202    1.545716    0.183015
     62          6           0       13.104252    1.518100    1.758744
     63          6           0       12.745725    0.153329    2.330514
     64          6           0       12.647150    0.071976    3.927172
     65          6           0       13.554728   -1.030891    4.538731
     66          6           0       11.117058   -0.003813    4.414850
     67          1           0       -1.363039    2.572066    0.014435
     68          1           0       -7.533626    4.562855   -0.202747
     69          1           0       -9.448737   -1.343947    0.374798
     70          1           0       -1.017529   -2.225159    0.291407
     71          1           0       -0.503139    0.412886   -0.904898
     72          1           0       -0.300398    1.233350    1.595695
     73          1           0        0.860171   -0.014054    1.160711
     74          1           0       -0.468647   -0.462941    2.045519
     75          1           0       -1.359407   -0.926111   -2.420656
     76          1           0       -2.324721   -2.313127   -2.208382
     77          1           0        0.050796   -2.618253   -3.150409
     78          1           0       -0.854604   -3.836626   -2.201964
     79          1           0       -1.200903    4.526792    0.581046
     80          1           0       -1.926501    6.008255    1.079578
     81          1           0       -1.841033    5.614728   -0.636886
     82          1           0       -4.862550    8.446430    0.324912
     83          1           0       -3.947758    7.677987   -1.086000
     84          1           0       -3.407513    7.580611    0.565916
     85          1           0       -9.665005    3.348455   -0.571137
     86          1           0      -10.476278    1.302658    1.160806
     87          1           0       -9.068080    3.648702    2.504704
     88          1           0      -10.693401    3.154706    2.056700
     89          1           0       -9.999077    4.638539    1.518327
     90          1           0      -10.075123    0.154210   -1.447596
     91          1           0      -10.363932    1.856025   -1.815928
     92          1           0      -12.340547    1.258837   -0.095367
     93          1           0      -12.151252   -0.277127   -1.212218
     94          1           0      -12.569803    1.347825   -1.791614
     95          1           0       -8.942762   -3.974497    1.660426
     96          1           0       -7.961756   -5.102797    0.533079
     97          1           0       -9.273773   -4.144385   -0.123723
     98          1           0       -3.181413   -4.190749   -0.978285
     99          1           0       -0.426260   -5.490782    1.543627
    100          1           0       -0.510853   -6.701848    0.250347
    101          1           0       -1.477709   -7.015867    1.598857
    102          1           0        3.131708   -3.444725   -0.343469
    103          1           0        3.197869   -1.825247    0.079660
    104          1           0        3.918684   -1.997061   -2.843691
    105          1           0        5.355559   -3.327306    0.410047
    106          1           0        6.967027   -2.703692   -0.139876
    107          1           0        6.387018   -4.310229   -0.613214
    108          1           0        6.269274   -2.386456   -3.784195
    109          1           0        7.484244   -2.650763   -2.522266
    110          1           0        6.400324   -0.215463   -1.816294
    111          1           0        6.242308   -0.148870   -3.522615
    112          1           0        8.083588    0.479938   -4.050576
    113          1           0        8.670447   -1.085051   -3.621927
    114          1           0        8.421306    1.148501   -1.547266
    115          1           0        9.579856   -0.266348    0.059647
    116          1           0       10.390051   -1.072817   -1.210504
    117          1           0        8.674630   -1.423639   -1.029283
    118          1           0       10.274420    1.245427   -3.639751
    119          1           0       11.145880    0.692370   -2.243607
    120          1           0        9.805500    2.685592   -1.061172
    121          1           0        9.850000    3.438860   -2.638315
    122          1           0       11.719651    4.315996   -1.969303
    123          1           0       12.518041    2.732948   -2.473738
    124          1           0       11.589406    3.412549    0.256097
    125          1           0       13.933425    4.530579   -0.965726
    126          1           0       14.291341    3.596770    0.489415
    127          1           0       13.212034    4.985404    0.576318
    128          1           0       13.581037    1.198719   -0.464197
    129          1           0       11.946566    0.854197    0.030157
    130          1           0       12.703947    2.330491    2.364097
    131          1           0       14.193668    1.552156    1.783379
    132          1           0       13.584226   -0.490706    2.066267
    133          1           0       11.899342   -0.331876    1.844385
    134          1           0       12.964256    1.045633    4.301463
    135          1           0       12.947763   -1.813135    4.996264
    136          1           0       14.125173   -0.708295    5.409403
    137          1           0       14.263225   -1.425209    3.810668
    138          1           0       10.977656    0.879081    5.039916
    139          1           0       10.920440   -0.933225    4.948765
    140          1           0       10.440784    0.086827    3.564493
 ---------------------------------------------------------------------

 SCF Done:  E(RZINDO/S) =  -474.399466808     A.U. after   19 cycles

 Excitation energies and oscillator strengths:

 Excited State   1:      Singlet-A      1.2485 eV  993.03 nm  f=0.6134  <S**2>=0.000
     175 ->178        -0.19809
     176 ->177         0.66199
 This state for optimization and/or second-order correction.
 Total Energy, E(CIS/TDA) =  -474.353583852
 Copying the excited state density for this state as the 1-particle RhoCI density.

 Excited State   2:      Singlet-A      1.9354 eV  640.63 nm  f=0.0247  <S**2>=0.000
     175 ->177         0.53414
     176 ->178         0.44240

 Excited State   3:      Singlet-A      2.8923 eV  428.66 nm  f=0.0275  <S**2>=0.000
     170 ->177         0.24234
     170 ->179        -0.25713
     170 ->181         0.12491
     170 ->182        -0.31474
     170 ->183         0.12985
     170 ->186        -0.16120
     170 ->187        -0.18294
     170 ->198         0.10839
     171 ->177         0.13530
     171 ->179        -0.12269
     171 ->182        -0.14715

 Excited State   4:      Singlet-A      2.9883 eV  414.91 nm  f=0.7956  <S**2>=0.000
     175 ->177        -0.34147
     176 ->178         0.43872
     176 ->179         0.33003
     176 ->181        -0.12829

 Excited State   5:      Singlet-A      3.0255 eV  409.79 nm  f=0.1398  <S**2>=0.000
     168 ->179         0.10337
     175 ->177         0.13549
     176 ->178        -0.16196
     176 ->179         0.52358
     176 ->181         0.30472
     176 ->182         0.15433

 The electronic state is 1-A.
 Alpha  occ. eigenvalues --   -1.87262  -1.84208  -1.81728  -1.74903  -1.72318
 Alpha  occ. eigenvalues --   -1.69713  -1.63561  -1.63509  -1.58065  -1.56780
 Alpha  occ. eigenvalues --   -1.52806  -1.51168  -1.49054  -1.47477  -1.46757
 Alpha  occ. eigenvalues --   -1.44050  -1.43508  -1.41537  -1.39175  -1.37413
 Alpha  occ. eigenvalues --   -1.36142  -1.33148  -1.32989  -1.32205  -1.29435
 Alpha  occ. eigenvalues --   -1.25836  -1.24906  -1.22227  -1.20652  -1.17442
 Alpha  occ. eigenvalues --   -1.17250  -1.15436  -1.15289  -1.15005  -1.12235
 Alpha  occ. eigenvalues --   -1.11836  -1.10771  -1.10494  -1.06399  -1.03090
 Alpha  occ. eigenvalues --   -1.02276  -1.01783  -0.98511  -0.97980  -0.96628
 Alpha  occ. eigenvalues --   -0.95213  -0.94077  -0.93972  -0.93286  -0.92041
 Alpha  occ. eigenvalues --   -0.91353  -0.90718  -0.88747  -0.88147  -0.86600
 Alpha  occ. eigenvalues --   -0.86072  -0.85376  -0.83448  -0.82481  -0.81214
 Alpha  occ. eigenvalues --   -0.79362  -0.78850  -0.77465  -0.76548  -0.75775
 Alpha  occ. eigenvalues --   -0.75504  -0.74017  -0.73921  -0.73610  -0.72579
 Alpha  occ. eigenvalues --   -0.72243  -0.71892  -0.71130  -0.70931  -0.70345
 Alpha  occ. eigenvalues --   -0.70015  -0.68795  -0.68649  -0.68176  -0.67949
 Alpha  occ. eigenvalues --   -0.67295  -0.66899  -0.66720  -0.66373  -0.65882
 Alpha  occ. eigenvalues --   -0.64806  -0.64576  -0.64158  -0.63595  -0.63278
 Alpha  occ. eigenvalues --   -0.63172  -0.62952  -0.62725  -0.62313  -0.61750
 Alpha  occ. eigenvalues --   -0.61300  -0.60577  -0.60029  -0.59788  -0.59704
 Alpha  occ. eigenvalues --   -0.59429  -0.59205  -0.58546  -0.57985  -0.57709
 Alpha  occ. eigenvalues --   -0.57489  -0.57436  -0.57060  -0.56801  -0.56419
 Alpha  occ. eigenvalues --   -0.56269  -0.55616  -0.55303  -0.55204  -0.54542
 Alpha  occ. eigenvalues --   -0.54270  -0.54163  -0.53851  -0.53068  -0.52864
 Alpha  occ. eigenvalues --   -0.52778  -0.52419  -0.51742  -0.51391  -0.50988
 Alpha  occ. eigenvalues --   -0.50947  -0.50758  -0.50598  -0.50253  -0.49985
 Alpha  occ. eigenvalues --   -0.49931  -0.49730  -0.49562  -0.49154  -0.49016
 Alpha  occ. eigenvalues --   -0.48859  -0.48622  -0.48343  -0.47702  -0.47461
 Alpha  occ. eigenvalues --   -0.47249  -0.47037  -0.46782  -0.46467  -0.46231
 Alpha  occ. eigenvalues --   -0.46022  -0.45866  -0.45712  -0.45414  -0.45392
 Alpha  occ. eigenvalues --   -0.45220  -0.44874  -0.44808  -0.44656  -0.44405
 Alpha  occ. eigenvalues --   -0.43940  -0.43366  -0.43305  -0.42643  -0.41892
 Alpha  occ. eigenvalues --   -0.41603  -0.41398  -0.40477  -0.39019  -0.38375
 Alpha  occ. eigenvalues --   -0.37832  -0.36891  -0.34922  -0.34201  -0.34055
 Alpha  occ. eigenvalues --   -0.33349  -0.32548  -0.32232  -0.32027  -0.26185
 Alpha  occ. eigenvalues --   -0.21035
 Alpha virt. eigenvalues --   -0.07770  -0.01378   0.00320   0.01458   0.01953
 Alpha virt. eigenvalues --    0.01983   0.03240   0.03635   0.04147   0.05366
 Alpha virt. eigenvalues --    0.06826   0.07353   0.07793   0.08206   0.08488

 Mulliken charges:
               1
     1  Mg   0.441867
     2  C   -0.039142
     3  C   -0.084444
     4  C   -0.085344
     5  C   -0.106717
     6  N   -0.290090
     7  C    0.111509
     8  C    0.018186
     9  C    0.014842
    10  C    0.116301
    11  C   -0.044927
    12  C   -0.011259
    13  C    0.011014
    14  C    0.468714
    15  O   -0.526703
    16  O   -0.273130
    17  N   -0.275968
    18  C    0.093130
    19  C    0.028344
    20  C   -0.057938
    21  C    0.150704
    22  C   -0.039412
    23  C    0.325751
    24  O   -0.527356
    25  C   -0.024466
    26  N   -0.288723
    27  C    0.142269
    28  C    0.008242
    29  C    0.009079
    30  C    0.133653
    31  C   -0.051843
    32  C   -0.037625
    33  C   -0.067329
    34  N   -0.308971
    35  C    0.110418
    36  C    0.010431
    37  C   -0.055900
    38  C    0.117974
    39  C   -0.042233
    40  C    0.332522
    41  O   -0.488775
    42  C    0.032955
    43  C    0.478138
    44  O   -0.499874
    45  O   -0.281517
    46  C    0.071062
    47  C    0.114239
    48  C   -0.090117
    49  C   -0.019730
    50  C   -0.046924
    51  C   -0.018093
    52  C   -0.045224
    53  C   -0.024952
    54  C   -0.002924
    55  C   -0.056385
    56  C   -0.048200
    57  C   -0.049737
    58  C   -0.033116
    59  C   -0.027736
    60  C   -0.066445
    61  C   -0.033264
    62  C   -0.032258
    63  C   -0.038419
    64  C   -0.022428
    65  C   -0.056882
    66  C   -0.063502
    67  H    0.018070
    68  H    0.041621
    69  H    0.017364
    70  H    0.055676
    71  H    0.024552
    72  H    0.022705
    73  H    0.011734
    74  H    0.027785
    75  H    0.024654
    76  H    0.020604
    77  H    0.036303
    78  H    0.039067
    79  H    0.019991
    80  H    0.031610
    81  H    0.027536
    82  H    0.043402
    83  H    0.044672
    84  H    0.013268
    85  H    0.040837
    86  H    0.031955
    87  H    0.030495
    88  H    0.016976
    89  H    0.015452
    90  H    0.018975
    91  H    0.023536
    92  H    0.025243
    93  H    0.032131
    94  H    0.015542
    95  H    0.042430
    96  H    0.040041
    97  H    0.030854
    98  H    0.068471
    99  H    0.062615
   100  H    0.025034
   101  H    0.033158
   102  H    0.051739
   103  H    0.045405
   104  H    0.033633
   105  H    0.027223
   106  H    0.027029
   107  H    0.031751
   108  H    0.028160
   109  H    0.018259
   110  H    0.026607
   111  H    0.005936
   112  H    0.021976
   113  H    0.018051
   114  H    0.017149
   115  H    0.026715
   116  H    0.014937
   117  H    0.020919
   118  H    0.016400
   119  H    0.015478
   120  H    0.018421
   121  H    0.018424
   122  H    0.024170
   123  H    0.025101
   124  H    0.008031
   125  H    0.017684
   126  H    0.013162
   127  H    0.025487
   128  H    0.025679
   129  H    0.021647
   130  H    0.034617
   131  H    0.017548
   132  H    0.009226
   133  H    0.023690
   134  H    0.018200
   135  H    0.018312
   136  H    0.015013
   137  H    0.024015
   138  H    0.018923
   139  H    0.026138
   140  H    0.019466
 Sum of Mulliken charges =  -0.00000

 Dipole moment (field-independent basis, Debye):
    X=              5.0813    Y=              5.7189    Z=             -5.8441  Tot=              9.6270
 N-N= 4.304533839971D+03 E-N= 0.000000000000D+00  KE=-9.283981583288D+03
 Leave Link  601 at Tue Apr 26 23:35:41 2022, MaxMem=  6710886400 cpu:               1.2 elap:               0.1
 (Enter /sw/apps/gaussian-16.0/g16/l9999.exe)
 1\1\GINC-BP1-COMPUTE154\SP\RZINDO CIS\STO-3G\C55H74Mg1N4O6\OF15641\26-
 Apr-2022\0\\#p ZINDO=(nstates=5)\\step_1001_chromophore_3 ZINDO\\0,1\M
 g,0,1.861,8.22,25.957\C,0,2.504,10.18,28.922\C,0,2.403,5.513,27.96\C,0
 ,1.361,6.543,23.387\C,0,2.049,11.28,24.239\N,0,2.484,7.936,28.252\C,0,
 2.545,8.837,29.282\C,0,2.395,8.142,30.652\C,0,2.662,6.668,30.264\C,0,2
 .477,6.681,28.726\C,0,4.028,6.083,30.545\C,0,0.979,8.394,31.191\C,0,0.
 913,8.716,32.644\C,0,2.139,8.353,33.512\O,0,3.056,9.121,33.833\O,0,2.0

 Normal termination of Gaussian 16 at Tue Apr 26 23:35:41 2022.
