 Gaussian 16, Revision A.03,
 Gaussian 16:  ES64L-G16RevA.03 25-Dec-2016

 ------------------------------
 #p blyp/Def2SVP td=(nstates=5)
 ------------------------------

 ---------------------------------------------------
 step_1401_chromophore_16 TDDFT with blyp functional
 ---------------------------------------------------
 Symbolic Z-matrix:
 Charge =  0 Multiplicity = 1

                         Standard orientation:
 ---------------------------------------------------------------------
 Center     Atomic      Atomic             Coordinates (Angstroms)
 Number     Number       Type             X           Y           Z
 ---------------------------------------------------------------------
      1         12           0        5.884446    0.477227    0.228279
      2          6           0        3.526450   -2.153475    0.139856
      3          6           0        3.466695    2.566433   -1.019301
      4          6           0        8.186244    2.961173    0.074044
      5          6           0        8.428549   -1.891349    0.756182
      6          7           0        3.611848    0.256694   -0.328352
      7          6           0        2.917057   -0.858591   -0.047620
      8          6           0        1.385888   -0.571376   -0.324217
      9          6           0        1.457621    0.815314   -0.987908
     10          6           0        2.911803    1.275628   -0.845863
     11          6           0        1.047123    0.757727   -2.536577
     12          6           0        0.651741   -0.878685    1.028226
     13          6           0       -0.553804   -1.869536    1.006712
     14          6           0       -1.519362   -1.711409   -0.200724
     15          8           0       -1.340989   -2.274019   -1.291645
     16          8           0       -2.543332   -0.956686    0.172180
     17          7           0        5.816418    2.545528   -0.312837
     18          6           0        4.734203    3.189002   -0.898299
     19          6           0        5.093556    4.562134   -1.046068
     20          6           0        6.465379    4.786962   -0.602790
     21          6           0        6.856086    3.429753   -0.238545
     22          6           0        4.198174    5.600439   -1.697852
     23          6           0        7.281944    6.013786   -0.659800
     24          8           0        8.479608    5.904712   -0.528083
     25          6           0        6.697299    7.423176   -0.920821
     26          7           0        7.933432    0.497217    0.231624
     27          6           0        8.652693    1.645856    0.286971
     28          6           0       10.105981    1.353465    0.534796
     29          6           0       10.093365   -0.065591    1.126108
     30          6           0        8.734649   -0.536074    0.618276
     31          6           0       11.127447    1.418171   -0.631872
     32          6           0       10.173919   -0.116653    2.708994
     33          6           0        9.547107    0.937327    3.616178
     34          7           0        6.054391   -1.588045    0.303762
     35          6           0        7.161512   -2.415601    0.483171
     36          6           0        6.734450   -3.781155    0.622389
     37          6           0        5.328424   -3.751734    0.478078
     38          6           0        4.963882   -2.307192    0.369020
     39          6           0        7.642397   -4.908671    0.849356
     40          6           0        4.072513   -4.442636    0.461848
     41          8           0        4.002995   -5.687990    0.625053
     42          6           0        2.895808   -3.572620    0.163069
     43          6           0        2.208929   -4.019447   -1.142746
     44          8           0        2.470726   -3.593558   -2.255956
     45          8           0        1.162829   -4.893384   -0.835288
     46          6           0        0.386536   -5.527518   -1.898607
     47          6           0       -3.641412   -0.807964   -0.850642
     48          6           0       -4.980711   -1.204117   -0.182219
     49          6           0       -5.525319   -2.437414    0.184930
     50          6           0       -4.879417   -3.870754   -0.011882
     51          6           0       -6.896017   -2.509045    0.842498
     52          6           0       -8.019975   -1.777095    0.063481
     53          6           0       -8.462370   -0.490511    0.774207
     54          6           0       -8.933054    0.725289   -0.080775
     55          6           0       -8.763322    2.057086    0.743785
     56          6           0      -10.398666    0.608456   -0.562792
     57          6           0      -10.610766    0.404937   -2.021301
     58          6           0      -12.023815    0.944988   -2.458187
     59          6           0      -13.154455    0.341335   -1.623651
     60          6           0      -14.164610   -0.242648   -2.721873
     61          6           0      -13.826853    1.392210   -0.727926
     62          6           0      -14.147464    0.983295    0.748369
     63          6           0      -14.213357    2.224129    1.671685
     64          6           0      -13.133213    2.394367    2.750120
     65          6           0      -12.661262    3.868141    2.922871
     66          6           0      -13.467751    1.692364    4.168287
     67          1           0        2.710176    3.321087   -1.243050
     68          1           0        9.045611    3.627081   -0.032747
     69          1           0        9.334192   -2.499271    0.805688
     70          1           0        1.040065   -1.352521   -1.000990
     71          1           0        0.821927    1.439838   -0.359523
     72          1           0        1.874076    0.378172   -3.136020
     73          1           0        1.001979    1.823538   -2.763272
     74          1           0        0.124869    0.200310   -2.700253
     75          1           0        0.209048    0.002772    1.493159
     76          1           0        1.370239   -1.225044    1.771717
     77          1           0       -1.059407   -1.706324    1.958538
     78          1           0       -0.034883   -2.821563    1.118402
     79          1           0        3.238801    5.252836   -2.080530
     80          1           0        4.631141    6.051752   -2.590513
     81          1           0        4.036849    6.475840   -1.068722
     82          1           0        7.539868    8.101348   -1.058795
     83          1           0        6.072998    7.748739   -0.088832
     84          1           0        6.121312    7.408657   -1.845913
     85          1           0       10.362177    2.086184    1.299811
     86          1           0       10.938743   -0.671678    0.798998
     87          1           0       11.533564    0.445623   -0.909677
     88          1           0       12.042468    1.968912   -0.410645
     89          1           0       10.603104    1.913495   -1.449040
     90          1           0       11.211836   -0.355129    2.943346
     91          1           0        9.682850   -1.078974    2.853076
     92          1           0       10.335364    1.226444    4.310248
     93          1           0        8.681012    0.517939    4.128713
     94          1           0        9.243687    1.819369    3.051507
     95          1           0        7.163806   -5.746460    0.341121
     96          1           0        7.666044   -5.255878    1.882842
     97          1           0        8.584711   -4.646208    0.370750
     98          1           0        2.258162   -3.669769    1.041392
     99          1           0        0.960628   -6.064724   -2.653448
    100          1           0       -0.113642   -4.749357   -2.475330
    101          1           0       -0.414148   -6.185931   -1.561977
    102          1           0       -3.576808   -1.393723   -1.767360
    103          1           0       -3.718633    0.216399   -1.213837
    104          1           0       -5.463415   -0.296536    0.178059
    105          1           0       -3.950711   -3.816534   -0.580036
    106          1           0       -5.624711   -4.434533   -0.573614
    107          1           0       -4.594654   -4.448913    0.866783
    108          1           0       -6.698084   -2.120237    1.841128
    109          1           0       -7.133052   -3.556746    1.031330
    110          1           0       -8.817368   -2.517990    0.116662
    111          1           0       -7.703051   -1.685320   -0.975771
    112          1           0       -7.620998   -0.240669    1.420337
    113          1           0       -9.293213   -0.809998    1.401839
    114          1           0       -8.302422    0.761836   -0.970016
    115          1           0       -7.910207    1.950092    1.413977
    116          1           0       -9.600867    2.248302    1.414679
    117          1           0       -8.759632    2.976877    0.158077
    118          1           0      -10.917236    1.473888   -0.152694
    119          1           0      -10.822375   -0.327071   -0.196506
    120          1           0      -10.338608   -0.600840   -2.340579
    121          1           0       -9.965118    1.082806   -2.580038
    122          1           0      -12.177424    0.681625   -3.504826
    123          1           0      -11.975359    2.031871   -2.521972
    124          1           0      -12.701856   -0.480292   -1.069018
    125          1           0      -13.929858   -0.201880   -3.785536
    126          1           0      -15.167917    0.181112   -2.680274
    127          1           0      -14.446612   -1.281170   -2.543658
    128          1           0      -14.749598    1.678899   -1.232370
    129          1           0      -13.242839    2.312247   -0.682158
    130          1           0      -13.530806    0.174422    1.138987
    131          1           0      -15.170932    0.607957    0.726992
    132          1           0      -15.066266    1.985498    2.306895
    133          1           0      -14.384190    3.164107    1.147687
    134          1           0      -12.328504    1.920131    2.189687
    135          1           0      -13.188542    4.067075    3.856394
    136          1           0      -13.057398    4.595376    2.214657
    137          1           0      -11.600735    4.058807    3.091043
    138          1           0      -14.550493    1.647234    4.289664
    139          1           0      -13.083969    2.274837    5.005427
    140          1           0      -12.986178    0.716377    4.215216
 ---------------------------------------------------------------------

 SCF Done:  E(RB-LYP) =  -3007.34274195     A.U. after   23 cycles

 Excitation energies and oscillator strengths:

 Excited State   1:      Singlet-A      1.6711 eV  741.93 nm  f=0.0007  <S**2>=0.000
     244 -> 247        0.70436
 This state for optimization and/or second-order correction.
 Total Energy, E(TD-HF/TD-DFT) =  -3007.28133020
 Copying the excited state density for this state as the 1-particle RhoCI density.

 Excited State   2:      Singlet-A      1.7838 eV  695.07 nm  f=0.2774  <S**2>=0.000
     243 -> 247       -0.13613
     245 -> 248        0.19642
     246 -> 247        0.67494
     246 <- 247       -0.14252

 Excited State   3:      Singlet-A      1.9299 eV  642.45 nm  f=0.0152  <S**2>=0.000
     243 -> 247        0.69164
     246 -> 247        0.12911

 Excited State   4:      Singlet-A      1.9622 eV  631.87 nm  f=0.0828  <S**2>=0.000
     245 -> 247        0.65461
     246 -> 248       -0.23980

 Excited State   5:      Singlet-A      2.4882 eV  498.30 nm  f=0.0013  <S**2>=0.000
     240 -> 247        0.55343
     242 -> 247        0.42260

 The electronic state is 1-A.
 Alpha  occ. eigenvalues --  -46.27493 -18.83970 -18.81544 -18.77218 -18.76998
 Alpha  occ. eigenvalues --  -18.74989 -18.74213 -14.02878 -14.02792 -14.00969
 Alpha  occ. eigenvalues --  -14.00695 -10.04903 -10.04467  -9.99429  -9.98981
 Alpha  occ. eigenvalues --   -9.98653  -9.96827  -9.96676  -9.96515  -9.95883
 Alpha  occ. eigenvalues --   -9.95728  -9.95679  -9.95362  -9.95253  -9.95081
 Alpha  occ. eigenvalues --   -9.94986  -9.94823  -9.94626  -9.94093  -9.93872
 Alpha  occ. eigenvalues --   -9.93453  -9.93408  -9.93290  -9.93284  -9.93088
 Alpha  occ. eigenvalues --   -9.93064  -9.93030  -9.92958  -9.92655  -9.92598
 Alpha  occ. eigenvalues --   -9.92594  -9.92498  -9.92339  -9.92325  -9.92300
 Alpha  occ. eigenvalues --   -9.92258  -9.92198  -9.92176  -9.92169  -9.91927
 Alpha  occ. eigenvalues --   -9.91862  -9.91831  -9.91814  -9.91778  -9.91776
 Alpha  occ. eigenvalues --   -9.91709  -9.91412  -9.91395  -9.91152  -9.91018
 Alpha  occ. eigenvalues --   -9.90950  -9.90872  -9.90839  -9.90822  -9.90800
 Alpha  occ. eigenvalues --   -9.90772  -2.92058  -1.72478  -1.71934  -1.71774
 Alpha  occ. eigenvalues --   -0.99153  -0.96325  -0.91963  -0.89961  -0.89484
 Alpha  occ. eigenvalues --   -0.88829  -0.86650  -0.86136  -0.85562  -0.84467
 Alpha  occ. eigenvalues --   -0.74636  -0.73851  -0.73011  -0.72117  -0.72014
 Alpha  occ. eigenvalues --   -0.71756  -0.71334  -0.70638  -0.70405  -0.70238
 Alpha  occ. eigenvalues --   -0.69453  -0.69045  -0.67971  -0.67172  -0.66999
 Alpha  occ. eigenvalues --   -0.66321  -0.65513  -0.64984  -0.64512  -0.64261
 Alpha  occ. eigenvalues --   -0.63858  -0.62302  -0.61720  -0.61655  -0.60686
 Alpha  occ. eigenvalues --   -0.60472  -0.60049  -0.59708  -0.59476  -0.59197
 Alpha  occ. eigenvalues --   -0.58392  -0.57595  -0.56609  -0.55641  -0.54933
 Alpha  occ. eigenvalues --   -0.54481  -0.53685  -0.53315  -0.52792  -0.51585
 Alpha  occ. eigenvalues --   -0.51436  -0.50764  -0.50510  -0.50414  -0.50362
 Alpha  occ. eigenvalues --   -0.49618  -0.48998  -0.48567  -0.48536  -0.46441
 Alpha  occ. eigenvalues --   -0.46286  -0.45704  -0.45421  -0.45145  -0.44488
 Alpha  occ. eigenvalues --   -0.43856  -0.43500  -0.42769  -0.42236  -0.42086
 Alpha  occ. eigenvalues --   -0.41993  -0.41687  -0.41572  -0.41303  -0.41085
 Alpha  occ. eigenvalues --   -0.40872  -0.40490  -0.40421  -0.40028  -0.39695
 Alpha  occ. eigenvalues --   -0.39522  -0.39362  -0.39281  -0.39024  -0.38966
 Alpha  occ. eigenvalues --   -0.38845  -0.38523  -0.38460  -0.38432  -0.38086
 Alpha  occ. eigenvalues --   -0.37638  -0.37598  -0.37324  -0.37277  -0.37172
 Alpha  occ. eigenvalues --   -0.36782  -0.36702  -0.36574  -0.36381  -0.36331
 Alpha  occ. eigenvalues --   -0.36151  -0.35973  -0.35757  -0.35477  -0.35372
 Alpha  occ. eigenvalues --   -0.35023  -0.34940  -0.34516  -0.34487  -0.34390
 Alpha  occ. eigenvalues --   -0.34297  -0.34151  -0.34098  -0.33962  -0.33721
 Alpha  occ. eigenvalues --   -0.33529  -0.33465  -0.33365  -0.33241  -0.32952
 Alpha  occ. eigenvalues --   -0.32777  -0.32503  -0.32416  -0.32339  -0.32060
 Alpha  occ. eigenvalues --   -0.31965  -0.31869  -0.31709  -0.31675  -0.31453
 Alpha  occ. eigenvalues --   -0.31282  -0.30947  -0.30714  -0.30579  -0.30532
 Alpha  occ. eigenvalues --   -0.30416  -0.30350  -0.30230  -0.29998  -0.29884
 Alpha  occ. eigenvalues --   -0.29721  -0.29367  -0.28956  -0.28851  -0.28770
 Alpha  occ. eigenvalues --   -0.28710  -0.28668  -0.28215  -0.28161  -0.27856
 Alpha  occ. eigenvalues --   -0.27416  -0.27277  -0.26715  -0.26528  -0.26312
 Alpha  occ. eigenvalues --   -0.25997  -0.25957  -0.25738  -0.25530  -0.25431
 Alpha  occ. eigenvalues --   -0.24808  -0.24253  -0.24051  -0.23790  -0.23499
 Alpha  occ. eigenvalues --   -0.22792  -0.22379  -0.21996  -0.21343  -0.20552
 Alpha  occ. eigenvalues --   -0.20352  -0.19969  -0.18354  -0.17401  -0.16854
 Alpha  occ. eigenvalues --   -0.15665
 Alpha virt. eigenvalues --   -0.11395  -0.06655  -0.06114  -0.04769  -0.04597
 Alpha virt. eigenvalues --   -0.03204  -0.02929  -0.02569  -0.00939  -0.00050
 Alpha virt. eigenvalues --    0.01417   0.01785   0.02293   0.02709   0.02883

 Mulliken charges:
               1
     1  Mg   0.684373
     2  C   -0.015761
     3  C   -0.044009
     4  C   -0.041056
     5  C   -0.088616
     6  N   -0.164986
     7  C   -0.105465
     8  C   -0.021274
     9  C    0.065988
    10  C   -0.024125
    11  C    0.129351
    12  C    0.067531
    13  C    0.131978
    14  C    0.113514
    15  O   -0.219740
    16  O   -0.230572
    17  N   -0.280929
    18  C    0.126650
    19  C   -0.116657
    20  C    0.082643
    21  C    0.088432
    22  C    0.138915
    23  C   -0.108684
    24  O   -0.154475
    25  C    0.124980
    26  N   -0.231192
    27  C    0.003470
    28  C    0.038398
    29  C   -0.016475
    30  C    0.043438
    31  C    0.140375
    32  C    0.065861
    33  C    0.090998
    34  N   -0.255347
    35  C    0.136532
    36  C   -0.190938
    37  C    0.129343
    38  C    0.043814
    39  C    0.193228
    40  C   -0.146410
    41  O   -0.181815
    42  C    0.174022
    43  C    0.168794
    44  O   -0.168024
    45  O   -0.282269
    46  C    0.229108
    47  C    0.304598
    48  C   -0.134741
    49  C   -0.131852
    50  C    0.101311
    51  C    0.105358
    52  C    0.105796
    53  C    0.071362
    54  C   -0.022948
    55  C    0.085543
    56  C    0.105360
    57  C    0.041906
    58  C    0.093999
    59  C   -0.032618
    60  C    0.081345
    61  C    0.097767
    62  C    0.088070
    63  C    0.095152
    64  C   -0.108038
    65  C    0.081303
    66  C    0.099672
    67  H   -0.064401
    68  H   -0.040443
    69  H   -0.041573
    70  H    0.008927
    71  H   -0.039119
    72  H    0.006656
    73  H   -0.018536
    74  H    0.018161
    75  H   -0.029620
    76  H   -0.014104
    77  H   -0.015768
    78  H   -0.005159
    79  H   -0.018506
    80  H    0.000402
    81  H   -0.005683
    82  H   -0.009754
    83  H    0.013802
    84  H   -0.004912
    85  H   -0.031134
    86  H   -0.042543
    87  H   -0.012155
    88  H   -0.010810
    89  H   -0.001729
    90  H   -0.028584
    91  H   -0.045911
    92  H   -0.002880
    93  H   -0.001717
    94  H    0.009466
    95  H    0.000297
    96  H    0.007491
    97  H   -0.002621
    98  H    0.001892
    99  H    0.006574
   100  H    0.010497
   101  H    0.012327
   102  H    0.015478
   103  H   -0.007091
   104  H   -0.022808
   105  H   -0.004315
   106  H    0.003449
   107  H    0.013574
   108  H   -0.007086
   109  H   -0.045104
   110  H   -0.033240
   111  H   -0.015881
   112  H   -0.023565
   113  H   -0.030740
   114  H   -0.040146
   115  H   -0.022156
   116  H   -0.017106
   117  H   -0.012554
   118  H   -0.024995
   119  H   -0.031596
   120  H   -0.024649
   121  H   -0.044021
   122  H   -0.047637
   123  H   -0.034659
   124  H   -0.024277
   125  H   -0.010389
   126  H   -0.032881
   127  H   -0.030048
   128  H   -0.033772
   129  H   -0.025556
   130  H   -0.028407
   131  H   -0.037762
   132  H   -0.053388
   133  H   -0.028405
   134  H   -0.024510
   135  H   -0.029329
   136  H   -0.019653
   137  H   -0.002341
   138  H   -0.005914
   139  H   -0.013007
   140  H   -0.003604
 Sum of Mulliken charges =  -0.00000

 Dipole moment (field-independent basis, Debye):
    X=             -4.8075    Y=              2.0408    Z=              2.4787  Tot=              5.7811
 Quadrupole moment (field-independent basis, Debye-Ang):
   XX=           -379.3970   YY=           -425.1363   ZZ=           -405.0067
   XY=             -0.3802   XZ=             13.8400   YZ=             -4.6731

 Normal termination of Gaussian 16 at Thu Apr 28 02:23:30 2022.
