 Gaussian 16, Revision A.03,
 Gaussian 16:  ES64L-G16RevA.03 25-Dec-2016

 -----------------------------------
 #p cam-b3lyp/Def2SVP td=(nstates=5)
 -----------------------------------

 --------------------------------------------------------
 step_1401_chromophore_16 TDDFT with cam-b3lyp functional
 --------------------------------------------------------
 Symbolic Z-matrix:
 Charge =  0 Multiplicity = 1

                         Standard orientation:
 ---------------------------------------------------------------------
 Center     Atomic      Atomic             Coordinates (Angstroms)
 Number     Number       Type             X           Y           Z
 ---------------------------------------------------------------------
      1         12           0        5.884446    0.477227    0.228279
      2          6           0        3.526450   -2.153475    0.139856
      3          6           0        3.466695    2.566433   -1.019301
      4          6           0        8.186244    2.961173    0.074044
      5          6           0        8.428549   -1.891349    0.756182
      6          7           0        3.611848    0.256694   -0.328352
      7          6           0        2.917057   -0.858591   -0.047620
      8          6           0        1.385888   -0.571376   -0.324217
      9          6           0        1.457621    0.815314   -0.987908
     10          6           0        2.911803    1.275628   -0.845863
     11          6           0        1.047123    0.757727   -2.536577
     12          6           0        0.651741   -0.878685    1.028226
     13          6           0       -0.553804   -1.869536    1.006712
     14          6           0       -1.519362   -1.711409   -0.200724
     15          8           0       -1.340989   -2.274019   -1.291645
     16          8           0       -2.543332   -0.956686    0.172180
     17          7           0        5.816418    2.545528   -0.312837
     18          6           0        4.734203    3.189002   -0.898299
     19          6           0        5.093556    4.562134   -1.046068
     20          6           0        6.465379    4.786962   -0.602790
     21          6           0        6.856086    3.429753   -0.238545
     22          6           0        4.198174    5.600439   -1.697852
     23          6           0        7.281944    6.013786   -0.659800
     24          8           0        8.479608    5.904712   -0.528083
     25          6           0        6.697299    7.423176   -0.920821
     26          7           0        7.933432    0.497217    0.231624
     27          6           0        8.652693    1.645856    0.286971
     28          6           0       10.105981    1.353465    0.534796
     29          6           0       10.093365   -0.065591    1.126108
     30          6           0        8.734649   -0.536074    0.618276
     31          6           0       11.127447    1.418171   -0.631872
     32          6           0       10.173919   -0.116653    2.708994
     33          6           0        9.547107    0.937327    3.616178
     34          7           0        6.054391   -1.588045    0.303762
     35          6           0        7.161512   -2.415601    0.483171
     36          6           0        6.734450   -3.781155    0.622389
     37          6           0        5.328424   -3.751734    0.478078
     38          6           0        4.963882   -2.307192    0.369020
     39          6           0        7.642397   -4.908671    0.849356
     40          6           0        4.072513   -4.442636    0.461848
     41          8           0        4.002995   -5.687990    0.625053
     42          6           0        2.895808   -3.572620    0.163069
     43          6           0        2.208929   -4.019447   -1.142746
     44          8           0        2.470726   -3.593558   -2.255956
     45          8           0        1.162829   -4.893384   -0.835288
     46          6           0        0.386536   -5.527518   -1.898607
     47          6           0       -3.641412   -0.807964   -0.850642
     48          6           0       -4.980711   -1.204117   -0.182219
     49          6           0       -5.525319   -2.437414    0.184930
     50          6           0       -4.879417   -3.870754   -0.011882
     51          6           0       -6.896017   -2.509045    0.842498
     52          6           0       -8.019975   -1.777095    0.063481
     53          6           0       -8.462370   -0.490511    0.774207
     54          6           0       -8.933054    0.725289   -0.080775
     55          6           0       -8.763322    2.057086    0.743785
     56          6           0      -10.398666    0.608456   -0.562792
     57          6           0      -10.610766    0.404937   -2.021301
     58          6           0      -12.023815    0.944988   -2.458187
     59          6           0      -13.154455    0.341335   -1.623651
     60          6           0      -14.164610   -0.242648   -2.721873
     61          6           0      -13.826853    1.392210   -0.727926
     62          6           0      -14.147464    0.983295    0.748369
     63          6           0      -14.213357    2.224129    1.671685
     64          6           0      -13.133213    2.394367    2.750120
     65          6           0      -12.661262    3.868141    2.922871
     66          6           0      -13.467751    1.692364    4.168287
     67          1           0        2.710176    3.321087   -1.243050
     68          1           0        9.045611    3.627081   -0.032747
     69          1           0        9.334192   -2.499271    0.805688
     70          1           0        1.040065   -1.352521   -1.000990
     71          1           0        0.821927    1.439838   -0.359523
     72          1           0        1.874076    0.378172   -3.136020
     73          1           0        1.001979    1.823538   -2.763272
     74          1           0        0.124869    0.200310   -2.700253
     75          1           0        0.209048    0.002772    1.493159
     76          1           0        1.370239   -1.225044    1.771717
     77          1           0       -1.059407   -1.706324    1.958538
     78          1           0       -0.034883   -2.821563    1.118402
     79          1           0        3.238801    5.252836   -2.080530
     80          1           0        4.631141    6.051752   -2.590513
     81          1           0        4.036849    6.475840   -1.068722
     82          1           0        7.539868    8.101348   -1.058795
     83          1           0        6.072998    7.748739   -0.088832
     84          1           0        6.121312    7.408657   -1.845913
     85          1           0       10.362177    2.086184    1.299811
     86          1           0       10.938743   -0.671678    0.798998
     87          1           0       11.533564    0.445623   -0.909677
     88          1           0       12.042468    1.968912   -0.410645
     89          1           0       10.603104    1.913495   -1.449040
     90          1           0       11.211836   -0.355129    2.943346
     91          1           0        9.682850   -1.078974    2.853076
     92          1           0       10.335364    1.226444    4.310248
     93          1           0        8.681012    0.517939    4.128713
     94          1           0        9.243687    1.819369    3.051507
     95          1           0        7.163806   -5.746460    0.341121
     96          1           0        7.666044   -5.255878    1.882842
     97          1           0        8.584711   -4.646208    0.370750
     98          1           0        2.258162   -3.669769    1.041392
     99          1           0        0.960628   -6.064724   -2.653448
    100          1           0       -0.113642   -4.749357   -2.475330
    101          1           0       -0.414148   -6.185931   -1.561977
    102          1           0       -3.576808   -1.393723   -1.767360
    103          1           0       -3.718633    0.216399   -1.213837
    104          1           0       -5.463415   -0.296536    0.178059
    105          1           0       -3.950711   -3.816534   -0.580036
    106          1           0       -5.624711   -4.434533   -0.573614
    107          1           0       -4.594654   -4.448913    0.866783
    108          1           0       -6.698084   -2.120237    1.841128
    109          1           0       -7.133052   -3.556746    1.031330
    110          1           0       -8.817368   -2.517990    0.116662
    111          1           0       -7.703051   -1.685320   -0.975771
    112          1           0       -7.620998   -0.240669    1.420337
    113          1           0       -9.293213   -0.809998    1.401839
    114          1           0       -8.302422    0.761836   -0.970016
    115          1           0       -7.910207    1.950092    1.413977
    116          1           0       -9.600867    2.248302    1.414679
    117          1           0       -8.759632    2.976877    0.158077
    118          1           0      -10.917236    1.473888   -0.152694
    119          1           0      -10.822375   -0.327071   -0.196506
    120          1           0      -10.338608   -0.600840   -2.340579
    121          1           0       -9.965118    1.082806   -2.580038
    122          1           0      -12.177424    0.681625   -3.504826
    123          1           0      -11.975359    2.031871   -2.521972
    124          1           0      -12.701856   -0.480292   -1.069018
    125          1           0      -13.929858   -0.201880   -3.785536
    126          1           0      -15.167917    0.181112   -2.680274
    127          1           0      -14.446612   -1.281170   -2.543658
    128          1           0      -14.749598    1.678899   -1.232370
    129          1           0      -13.242839    2.312247   -0.682158
    130          1           0      -13.530806    0.174422    1.138987
    131          1           0      -15.170932    0.607957    0.726992
    132          1           0      -15.066266    1.985498    2.306895
    133          1           0      -14.384190    3.164107    1.147687
    134          1           0      -12.328504    1.920131    2.189687
    135          1           0      -13.188542    4.067075    3.856394
    136          1           0      -13.057398    4.595376    2.214657
    137          1           0      -11.600735    4.058807    3.091043
    138          1           0      -14.550493    1.647234    4.289664
    139          1           0      -13.083969    2.274837    5.005427
    140          1           0      -12.986178    0.716377    4.215216
 ---------------------------------------------------------------------

 SCF Done:  E(RCAM-B3LYP) =  -3007.12258472     A.U. after   19 cycles

 Excitation energies and oscillator strengths:

 Excited State   1:      Singlet-A      1.6839 eV  736.27 nm  f=0.3678  <S**2>=0.000
     245 -> 248        0.18876
     246 -> 247        0.68392
     245 <- 248        0.11111
 This state for optimization and/or second-order correction.
 Total Energy, E(TD-HF/TD-DFT) =  -3007.06070079
 Copying the excited state density for this state as the 1-particle RhoCI density.

 Excited State   2:      Singlet-A      2.1677 eV  571.97 nm  f=0.1296  <S**2>=0.000
     245 -> 247        0.64733
     246 -> 248       -0.27561

 Excited State   3:      Singlet-A      3.1395 eV  394.92 nm  f=0.0004  <S**2>=0.000
     242 -> 247        0.43504
     242 -> 249       -0.25740
     242 -> 251       -0.10604
     243 -> 247       -0.38701
     243 -> 249        0.18245

 Excited State   4:      Singlet-A      3.3188 eV  373.58 nm  f=0.0097  <S**2>=0.000
     242 -> 247       -0.12359
     244 -> 247        0.64697
     246 -> 248        0.20376

 Excited State   5:      Singlet-A      3.4860 eV  355.67 nm  f=0.0871  <S**2>=0.000
     242 -> 247        0.37897
     243 -> 247        0.47746
     246 -> 248        0.31662

 The electronic state is 1-A.
 Alpha  occ. eigenvalues --  -46.89097 -19.26935 -19.24450 -19.20198 -19.20124
 Alpha  occ. eigenvalues --  -19.18018 -19.17721 -14.41801 -14.41555 -14.39538
 Alpha  occ. eigenvalues --  -14.39008 -10.40228 -10.40112 -10.34413 -10.34208
 Alpha  occ. eigenvalues --  -10.33242 -10.31362 -10.30790 -10.30770 -10.30479
 Alpha  occ. eigenvalues --  -10.29976 -10.29968 -10.29823 -10.29633 -10.29415
 Alpha  occ. eigenvalues --  -10.29386 -10.29339 -10.29188 -10.28277 -10.28033
 Alpha  occ. eigenvalues --  -10.28000 -10.27433 -10.27420 -10.27415 -10.27304
 Alpha  occ. eigenvalues --  -10.26952 -10.26917 -10.26780 -10.26448 -10.26429
 Alpha  occ. eigenvalues --  -10.26370 -10.26335 -10.26278 -10.26231 -10.26065
 Alpha  occ. eigenvalues --  -10.25986 -10.25893 -10.25879 -10.25838 -10.25834
 Alpha  occ. eigenvalues --  -10.25672 -10.25659 -10.25457 -10.25444 -10.25408
 Alpha  occ. eigenvalues --  -10.25371 -10.25346 -10.25054 -10.25020 -10.24818
 Alpha  occ. eigenvalues --  -10.24632 -10.24523 -10.24466 -10.24444 -10.24439
 Alpha  occ. eigenvalues --  -10.24396  -3.17561  -1.92457  -1.92009  -1.91861
 Alpha  occ. eigenvalues --   -1.17616  -1.14883  -1.10234  -1.07820  -1.07473
 Alpha  occ. eigenvalues --   -1.07402  -1.04460  -1.03849  -1.03251  -1.01802
 Alpha  occ. eigenvalues --   -0.91967  -0.90691  -0.89787  -0.88876  -0.88677
 Alpha  occ. eigenvalues --   -0.88422  -0.87994  -0.87175  -0.87110  -0.86758
 Alpha  occ. eigenvalues --   -0.85945  -0.85328  -0.84211  -0.83338  -0.83076
 Alpha  occ. eigenvalues --   -0.82373  -0.81435  -0.80974  -0.80394  -0.80065
 Alpha  occ. eigenvalues --   -0.79738  -0.78018  -0.77301  -0.77172  -0.76115
 Alpha  occ. eigenvalues --   -0.75804  -0.75369  -0.74952  -0.74749  -0.74418
 Alpha  occ. eigenvalues --   -0.73399  -0.72693  -0.71499  -0.70428  -0.69541
 Alpha  occ. eigenvalues --   -0.69108  -0.68344  -0.67769  -0.67205  -0.65813
 Alpha  occ. eigenvalues --   -0.65533  -0.64647  -0.64553  -0.64523  -0.64272
 Alpha  occ. eigenvalues --   -0.63568  -0.62867  -0.62446  -0.62316  -0.59964
 Alpha  occ. eigenvalues --   -0.59772  -0.59281  -0.59014  -0.58537  -0.58148
 Alpha  occ. eigenvalues --   -0.57328  -0.56828  -0.55886  -0.55499  -0.55320
 Alpha  occ. eigenvalues --   -0.54971  -0.54646  -0.54462  -0.54324  -0.54173
 Alpha  occ. eigenvalues --   -0.53785  -0.53575  -0.53031  -0.52923  -0.52584
 Alpha  occ. eigenvalues --   -0.52488  -0.51927  -0.51743  -0.51505  -0.51469
 Alpha  occ. eigenvalues --   -0.51375  -0.51334  -0.50914  -0.50750  -0.50460
 Alpha  occ. eigenvalues --   -0.50230  -0.49752  -0.49747  -0.49463  -0.49368
 Alpha  occ. eigenvalues --   -0.49191  -0.48951  -0.48779  -0.48599  -0.48538
 Alpha  occ. eigenvalues --   -0.48292  -0.47933  -0.47893  -0.47851  -0.47655
 Alpha  occ. eigenvalues --   -0.47291  -0.46955  -0.46546  -0.46393  -0.46265
 Alpha  occ. eigenvalues --   -0.46119  -0.45971  -0.45907  -0.45806  -0.45480
 Alpha  occ. eigenvalues --   -0.45367  -0.45300  -0.45051  -0.44946  -0.44679
 Alpha  occ. eigenvalues --   -0.44578  -0.44399  -0.44190  -0.44010  -0.43795
 Alpha  occ. eigenvalues --   -0.43627  -0.43476  -0.43290  -0.43182  -0.42923
 Alpha  occ. eigenvalues --   -0.42746  -0.42493  -0.42187  -0.41984  -0.41921
 Alpha  occ. eigenvalues --   -0.41825  -0.41726  -0.41456  -0.41446  -0.41209
 Alpha  occ. eigenvalues --   -0.40867  -0.40790  -0.40466  -0.40312  -0.39885
 Alpha  occ. eigenvalues --   -0.39804  -0.39581  -0.39197  -0.39095  -0.38655
 Alpha  occ. eigenvalues --   -0.38362  -0.38165  -0.37696  -0.37447  -0.37126
 Alpha  occ. eigenvalues --   -0.36990  -0.36788  -0.36480  -0.36369  -0.36015
 Alpha  occ. eigenvalues --   -0.35804  -0.35566  -0.34503  -0.34401  -0.34230
 Alpha  occ. eigenvalues --   -0.34192  -0.33801  -0.32862  -0.30640  -0.30400
 Alpha  occ. eigenvalues --   -0.30233  -0.30126  -0.29707  -0.28989  -0.23542
 Alpha  occ. eigenvalues --   -0.21003
 Alpha virt. eigenvalues --   -0.08609  -0.01535   0.00248   0.01898   0.02299
 Alpha virt. eigenvalues --    0.02690   0.04630   0.05086   0.06290   0.06960
 Alpha virt. eigenvalues --    0.07866   0.08245   0.08842   0.09036   0.09426

 Mulliken charges:
               1
     1  Mg   0.816054
     2  C   -0.033167
     3  C   -0.055967
     4  C   -0.055436
     5  C   -0.097642
     6  N   -0.231735
     7  C   -0.059108
     8  C   -0.071129
     9  C    0.005262
    10  C   -0.005739
    11  C    0.077386
    12  C    0.020947
    13  C    0.068014
    14  C    0.184951
    15  O   -0.263209
    16  O   -0.293505
    17  N   -0.366357
    18  C    0.132351
    19  C   -0.123255
    20  C    0.011754
    21  C    0.114663
    22  C    0.078671
    23  C   -0.035576
    24  O   -0.197671
    25  C    0.051867
    26  N   -0.305622
    27  C    0.021399
    28  C   -0.026324
    29  C   -0.072332
    30  C    0.060529
    31  C    0.083775
    32  C    0.016609
    33  C    0.026828
    34  N   -0.346316
    35  C    0.146767
    36  C   -0.184379
    37  C    0.056933
    38  C    0.077951
    39  C    0.136259
    40  C   -0.044246
    41  O   -0.217585
    42  C    0.091650
    43  C    0.253970
    44  O   -0.202641
    45  O   -0.347687
    46  C    0.189615
    47  C    0.276385
    48  C   -0.162627
    49  C   -0.148049
    50  C    0.046762
    51  C    0.046424
    52  C    0.045449
    53  C    0.023432
    54  C   -0.081693
    55  C    0.034123
    56  C    0.053052
    57  C   -0.009068
    58  C    0.046591
    59  C   -0.104129
    60  C    0.028703
    61  C    0.050690
    62  C    0.032329
    63  C    0.041135
    64  C   -0.161498
    65  C    0.024622
    66  C    0.038527
    67  H   -0.031416
    68  H   -0.001856
    69  H   -0.006766
    70  H    0.041539
    71  H   -0.003599
    72  H    0.031758
    73  H    0.005091
    74  H    0.039733
    75  H    0.001297
    76  H    0.017122
    77  H    0.020084
    78  H    0.022771
    79  H    0.009780
    80  H    0.025563
    81  H    0.019749
    82  H    0.025024
    83  H    0.040640
    84  H    0.020972
    85  H    0.005878
    86  H   -0.005247
    87  H    0.011237
    88  H    0.014386
    89  H    0.023211
    90  H    0.000657
    91  H   -0.015463
    92  H    0.021026
    93  H    0.021861
    94  H    0.029209
    95  H    0.029501
    96  H    0.036479
    97  H    0.021455
    98  H    0.044144
    99  H    0.029296
   100  H    0.033862
   101  H    0.035351
   102  H    0.047524
   103  H    0.022055
   104  H    0.005324
   105  H    0.018190
   106  H    0.026033
   107  H    0.037144
   108  H    0.022570
   109  H   -0.011667
   110  H   -0.003884
   111  H    0.012569
   112  H    0.000656
   113  H   -0.002334
   114  H   -0.009119
   115  H    0.001874
   116  H    0.002375
   117  H    0.012436
   118  H   -0.000066
   119  H   -0.006950
   120  H    0.002203
   121  H   -0.014936
   122  H   -0.015899
   123  H   -0.005846
   124  H    0.007560
   125  H    0.013013
   126  H   -0.008810
   127  H   -0.005074
   128  H   -0.005048
   129  H   -0.000205
   130  H   -0.001493
   131  H   -0.007214
   132  H   -0.023715
   133  H    0.000175
   134  H    0.000496
   135  H   -0.006117
   136  H    0.005071
   137  H    0.020404
   138  H    0.016493
   139  H    0.011298
   140  H    0.019850
 Sum of Mulliken charges =  -0.00000

 Dipole moment (field-independent basis, Debye):
    X=             -4.9573    Y=              2.0543    Z=              2.5711  Tot=              5.9503
 Quadrupole moment (field-independent basis, Debye-Ang):
   XX=           -378.5844   YY=           -420.6599   ZZ=           -404.9418
   XY=             -1.5801   XZ=             15.1355   YZ=             -5.8565

 Normal termination of Gaussian 16 at Thu Apr 28 01:24:38 2022.
