 Gaussian 16, Revision A.03,
 Gaussian 16:  ES64L-G16RevA.03 25-Dec-2016

 ---------------------------------
 #p PBE1PBE/Def2SVP td=(nstates=5)
 ---------------------------------

 ------------------------------------------------------
 step_1401_chromophore_16 TDDFT with PBE1PBE functional
 ------------------------------------------------------
 Symbolic Z-matrix:
 Charge =  0 Multiplicity = 1

                         Standard orientation:
 ---------------------------------------------------------------------
 Center     Atomic      Atomic             Coordinates (Angstroms)
 Number     Number       Type             X           Y           Z
 ---------------------------------------------------------------------
      1         12           0        5.884446    0.477227    0.228279
      2          6           0        3.526450   -2.153475    0.139856
      3          6           0        3.466695    2.566433   -1.019301
      4          6           0        8.186244    2.961173    0.074044
      5          6           0        8.428549   -1.891349    0.756182
      6          7           0        3.611848    0.256694   -0.328352
      7          6           0        2.917057   -0.858591   -0.047620
      8          6           0        1.385888   -0.571376   -0.324217
      9          6           0        1.457621    0.815314   -0.987908
     10          6           0        2.911803    1.275628   -0.845863
     11          6           0        1.047123    0.757727   -2.536577
     12          6           0        0.651741   -0.878685    1.028226
     13          6           0       -0.553804   -1.869536    1.006712
     14          6           0       -1.519362   -1.711409   -0.200724
     15          8           0       -1.340989   -2.274019   -1.291645
     16          8           0       -2.543332   -0.956686    0.172180
     17          7           0        5.816418    2.545528   -0.312837
     18          6           0        4.734203    3.189002   -0.898299
     19          6           0        5.093556    4.562134   -1.046068
     20          6           0        6.465379    4.786962   -0.602790
     21          6           0        6.856086    3.429753   -0.238545
     22          6           0        4.198174    5.600439   -1.697852
     23          6           0        7.281944    6.013786   -0.659800
     24          8           0        8.479608    5.904712   -0.528083
     25          6           0        6.697299    7.423176   -0.920821
     26          7           0        7.933432    0.497217    0.231624
     27          6           0        8.652693    1.645856    0.286971
     28          6           0       10.105981    1.353465    0.534796
     29          6           0       10.093365   -0.065591    1.126108
     30          6           0        8.734649   -0.536074    0.618276
     31          6           0       11.127447    1.418171   -0.631872
     32          6           0       10.173919   -0.116653    2.708994
     33          6           0        9.547107    0.937327    3.616178
     34          7           0        6.054391   -1.588045    0.303762
     35          6           0        7.161512   -2.415601    0.483171
     36          6           0        6.734450   -3.781155    0.622389
     37          6           0        5.328424   -3.751734    0.478078
     38          6           0        4.963882   -2.307192    0.369020
     39          6           0        7.642397   -4.908671    0.849356
     40          6           0        4.072513   -4.442636    0.461848
     41          8           0        4.002995   -5.687990    0.625053
     42          6           0        2.895808   -3.572620    0.163069
     43          6           0        2.208929   -4.019447   -1.142746
     44          8           0        2.470726   -3.593558   -2.255956
     45          8           0        1.162829   -4.893384   -0.835288
     46          6           0        0.386536   -5.527518   -1.898607
     47          6           0       -3.641412   -0.807964   -0.850642
     48          6           0       -4.980711   -1.204117   -0.182219
     49          6           0       -5.525319   -2.437414    0.184930
     50          6           0       -4.879417   -3.870754   -0.011882
     51          6           0       -6.896017   -2.509045    0.842498
     52          6           0       -8.019975   -1.777095    0.063481
     53          6           0       -8.462370   -0.490511    0.774207
     54          6           0       -8.933054    0.725289   -0.080775
     55          6           0       -8.763322    2.057086    0.743785
     56          6           0      -10.398666    0.608456   -0.562792
     57          6           0      -10.610766    0.404937   -2.021301
     58          6           0      -12.023815    0.944988   -2.458187
     59          6           0      -13.154455    0.341335   -1.623651
     60          6           0      -14.164610   -0.242648   -2.721873
     61          6           0      -13.826853    1.392210   -0.727926
     62          6           0      -14.147464    0.983295    0.748369
     63          6           0      -14.213357    2.224129    1.671685
     64          6           0      -13.133213    2.394367    2.750120
     65          6           0      -12.661262    3.868141    2.922871
     66          6           0      -13.467751    1.692364    4.168287
     67          1           0        2.710176    3.321087   -1.243050
     68          1           0        9.045611    3.627081   -0.032747
     69          1           0        9.334192   -2.499271    0.805688
     70          1           0        1.040065   -1.352521   -1.000990
     71          1           0        0.821927    1.439838   -0.359523
     72          1           0        1.874076    0.378172   -3.136020
     73          1           0        1.001979    1.823538   -2.763272
     74          1           0        0.124869    0.200310   -2.700253
     75          1           0        0.209048    0.002772    1.493159
     76          1           0        1.370239   -1.225044    1.771717
     77          1           0       -1.059407   -1.706324    1.958538
     78          1           0       -0.034883   -2.821563    1.118402
     79          1           0        3.238801    5.252836   -2.080530
     80          1           0        4.631141    6.051752   -2.590513
     81          1           0        4.036849    6.475840   -1.068722
     82          1           0        7.539868    8.101348   -1.058795
     83          1           0        6.072998    7.748739   -0.088832
     84          1           0        6.121312    7.408657   -1.845913
     85          1           0       10.362177    2.086184    1.299811
     86          1           0       10.938743   -0.671678    0.798998
     87          1           0       11.533564    0.445623   -0.909677
     88          1           0       12.042468    1.968912   -0.410645
     89          1           0       10.603104    1.913495   -1.449040
     90          1           0       11.211836   -0.355129    2.943346
     91          1           0        9.682850   -1.078974    2.853076
     92          1           0       10.335364    1.226444    4.310248
     93          1           0        8.681012    0.517939    4.128713
     94          1           0        9.243687    1.819369    3.051507
     95          1           0        7.163806   -5.746460    0.341121
     96          1           0        7.666044   -5.255878    1.882842
     97          1           0        8.584711   -4.646208    0.370750
     98          1           0        2.258162   -3.669769    1.041392
     99          1           0        0.960628   -6.064724   -2.653448
    100          1           0       -0.113642   -4.749357   -2.475330
    101          1           0       -0.414148   -6.185931   -1.561977
    102          1           0       -3.576808   -1.393723   -1.767360
    103          1           0       -3.718633    0.216399   -1.213837
    104          1           0       -5.463415   -0.296536    0.178059
    105          1           0       -3.950711   -3.816534   -0.580036
    106          1           0       -5.624711   -4.434533   -0.573614
    107          1           0       -4.594654   -4.448913    0.866783
    108          1           0       -6.698084   -2.120237    1.841128
    109          1           0       -7.133052   -3.556746    1.031330
    110          1           0       -8.817368   -2.517990    0.116662
    111          1           0       -7.703051   -1.685320   -0.975771
    112          1           0       -7.620998   -0.240669    1.420337
    113          1           0       -9.293213   -0.809998    1.401839
    114          1           0       -8.302422    0.761836   -0.970016
    115          1           0       -7.910207    1.950092    1.413977
    116          1           0       -9.600867    2.248302    1.414679
    117          1           0       -8.759632    2.976877    0.158077
    118          1           0      -10.917236    1.473888   -0.152694
    119          1           0      -10.822375   -0.327071   -0.196506
    120          1           0      -10.338608   -0.600840   -2.340579
    121          1           0       -9.965118    1.082806   -2.580038
    122          1           0      -12.177424    0.681625   -3.504826
    123          1           0      -11.975359    2.031871   -2.521972
    124          1           0      -12.701856   -0.480292   -1.069018
    125          1           0      -13.929858   -0.201880   -3.785536
    126          1           0      -15.167917    0.181112   -2.680274
    127          1           0      -14.446612   -1.281170   -2.543658
    128          1           0      -14.749598    1.678899   -1.232370
    129          1           0      -13.242839    2.312247   -0.682158
    130          1           0      -13.530806    0.174422    1.138987
    131          1           0      -15.170932    0.607957    0.726992
    132          1           0      -15.066266    1.985498    2.306895
    133          1           0      -14.384190    3.164107    1.147687
    134          1           0      -12.328504    1.920131    2.189687
    135          1           0      -13.188542    4.067075    3.856394
    136          1           0      -13.057398    4.595376    2.214657
    137          1           0      -11.600735    4.058807    3.091043
    138          1           0      -14.550493    1.647234    4.289664
    139          1           0      -13.083969    2.274837    5.005427
    140          1           0      -12.986178    0.716377    4.215216
 ---------------------------------------------------------------------

 SCF Done:  E(RPBE1PBE) =  -3005.31352011     A.U. after   16 cycles

 Excitation energies and oscillator strengths:

 Excited State   1:      Singlet-A      1.8387 eV  674.30 nm  f=0.3536  <S**2>=0.000
     245 -> 248        0.18274
     246 -> 247        0.69087
     246 <- 247       -0.10440
 This state for optimization and/or second-order correction.
 Total Energy, E(TD-HF/TD-DFT) =  -3005.24594851
 Copying the excited state density for this state as the 1-particle RhoCI density.

 Excited State   2:      Singlet-A      2.1697 eV  571.45 nm  f=0.1209  <S**2>=0.000
     245 -> 247        0.65702
     246 -> 248       -0.25230

 Excited State   3:      Singlet-A      2.6902 eV  460.87 nm  f=0.0004  <S**2>=0.000
     244 -> 247        0.66168
     244 -> 249       -0.18170

 Excited State   4:      Singlet-A      2.9779 eV  416.35 nm  f=0.0026  <S**2>=0.000
     243 -> 247        0.67427
     244 -> 247        0.10819
     246 -> 248        0.12109

 Excited State   5:      Singlet-A      3.0939 eV  400.73 nm  f=0.0010  <S**2>=0.000
     241 -> 247        0.48293
     241 -> 249        0.10944
     242 -> 247       -0.47412

 The electronic state is 1-A.
 Alpha  occ. eigenvalues --  -46.92470 -19.27561 -19.25075 -19.20386 -19.20338
 Alpha  occ. eigenvalues --  -19.18350 -19.17784 -14.41223 -14.41111 -14.39084
 Alpha  occ. eigenvalues --  -14.38760 -10.37205 -10.37063 -10.31652 -10.31187
 Alpha  occ. eigenvalues --  -10.30614 -10.29038 -10.28606 -10.28100 -10.27960
 Alpha  occ. eigenvalues --  -10.27782 -10.27776 -10.27331 -10.27229 -10.27202
 Alpha  occ. eigenvalues --  -10.27083 -10.26951 -10.26907 -10.26105 -10.25836
 Alpha  occ. eigenvalues --  -10.25479 -10.25184 -10.25030 -10.24909 -10.24887
 Alpha  occ. eigenvalues --  -10.24801 -10.24521 -10.24246 -10.24231 -10.24155
 Alpha  occ. eigenvalues --  -10.24055 -10.23964 -10.23945 -10.23862 -10.23768
 Alpha  occ. eigenvalues --  -10.23706 -10.23533 -10.23460 -10.23403 -10.23337
 Alpha  occ. eigenvalues --  -10.23246 -10.22984 -10.22978 -10.22946 -10.22881
 Alpha  occ. eigenvalues --  -10.22873 -10.22870 -10.22590 -10.22448 -10.22376
 Alpha  occ. eigenvalues --  -10.22154 -10.22094 -10.22050 -10.21977 -10.21853
 Alpha  occ. eigenvalues --  -10.21845  -3.14517  -1.87353  -1.86884  -1.86739
 Alpha  occ. eigenvalues --   -1.12394  -1.09575  -1.05097  -1.02628  -1.02208
 Alpha  occ. eigenvalues --   -1.01982  -0.99033  -0.98446  -0.97862  -0.96596
 Alpha  occ. eigenvalues --   -0.86177  -0.84780  -0.83887  -0.83038  -0.82970
 Alpha  occ. eigenvalues --   -0.82538  -0.82313  -0.81364  -0.81290  -0.81105
 Alpha  occ. eigenvalues --   -0.80295  -0.79550  -0.78432  -0.77592  -0.77298
 Alpha  occ. eigenvalues --   -0.76607  -0.75626  -0.75200  -0.74651  -0.74207
 Alpha  occ. eigenvalues --   -0.74020  -0.72336  -0.71569  -0.71456  -0.70377
 Alpha  occ. eigenvalues --   -0.69972  -0.69466  -0.69304  -0.68904  -0.68572
 Alpha  occ. eigenvalues --   -0.67684  -0.67100  -0.65922  -0.64730  -0.63932
 Alpha  occ. eigenvalues --   -0.63341  -0.62772  -0.62038  -0.61735  -0.60092
 Alpha  occ. eigenvalues --   -0.59926  -0.59238  -0.59007  -0.58758  -0.58650
 Alpha  occ. eigenvalues --   -0.58093  -0.57018  -0.56849  -0.56619  -0.54406
 Alpha  occ. eigenvalues --   -0.54333  -0.53836  -0.53471  -0.53136  -0.52497
 Alpha  occ. eigenvalues --   -0.51948  -0.51223  -0.50355  -0.49949  -0.49846
 Alpha  occ. eigenvalues --   -0.49531  -0.49126  -0.48960  -0.48868  -0.48593
 Alpha  occ. eigenvalues --   -0.48288  -0.48028  -0.47544  -0.47457  -0.47132
 Alpha  occ. eigenvalues --   -0.47074  -0.46525  -0.46257  -0.45966  -0.45942
 Alpha  occ. eigenvalues --   -0.45899  -0.45837  -0.45532  -0.45332  -0.45013
 Alpha  occ. eigenvalues --   -0.44740  -0.44283  -0.44262  -0.44097  -0.43946
 Alpha  occ. eigenvalues --   -0.43802  -0.43593  -0.43429  -0.43205  -0.43157
 Alpha  occ. eigenvalues --   -0.42881  -0.42534  -0.42472  -0.42434  -0.42339
 Alpha  occ. eigenvalues --   -0.41889  -0.41579  -0.41213  -0.41108  -0.40884
 Alpha  occ. eigenvalues --   -0.40792  -0.40613  -0.40579  -0.40414  -0.40166
 Alpha  occ. eigenvalues --   -0.40132  -0.39982  -0.39815  -0.39623  -0.39394
 Alpha  occ. eigenvalues --   -0.39228  -0.39074  -0.38891  -0.38814  -0.38588
 Alpha  occ. eigenvalues --   -0.38428  -0.38250  -0.38066  -0.37846  -0.37718
 Alpha  occ. eigenvalues --   -0.37473  -0.37354  -0.36924  -0.36857  -0.36750
 Alpha  occ. eigenvalues --   -0.36670  -0.36443  -0.36327  -0.36188  -0.36076
 Alpha  occ. eigenvalues --   -0.35786  -0.35612  -0.35217  -0.35145  -0.34756
 Alpha  occ. eigenvalues --   -0.34576  -0.34421  -0.34127  -0.33933  -0.33433
 Alpha  occ. eigenvalues --   -0.33283  -0.33049  -0.32631  -0.32409  -0.32028
 Alpha  occ. eigenvalues --   -0.31979  -0.31683  -0.31531  -0.31205  -0.30874
 Alpha  occ. eigenvalues --   -0.30709  -0.30590  -0.29407  -0.29165  -0.29120
 Alpha  occ. eigenvalues --   -0.29014  -0.28913  -0.28450  -0.26222  -0.25542
 Alpha  occ. eigenvalues --   -0.25428  -0.25383  -0.24737  -0.24570  -0.20498
 Alpha  occ. eigenvalues --   -0.18619
 Alpha virt. eigenvalues --   -0.11028  -0.05025  -0.03889  -0.02154  -0.01782
 Alpha virt. eigenvalues --   -0.00840   0.00166   0.00513   0.01922   0.02927
 Alpha virt. eigenvalues --    0.04417   0.04639   0.05089   0.05683   0.05793

 Mulliken charges:
               1
     1  Mg   0.959418
     2  C   -0.018042
     3  C   -0.065399
     4  C   -0.041848
     5  C   -0.083792
     6  N   -0.333305
     7  C    0.007838
     8  C   -0.132115
     9  C   -0.086820
    10  C    0.042516
    11  C    0.017427
    12  C   -0.023542
    13  C   -0.013584
    14  C    0.250655
    15  O   -0.297215
    16  O   -0.322824
    17  N   -0.475175
    18  C    0.165633
    19  C   -0.159510
    20  C   -0.035072
    21  C    0.147096
    22  C    0.024709
    23  C    0.013611
    24  O   -0.232605
    25  C   -0.020736
    26  N   -0.411496
    27  C    0.051308
    28  C   -0.106079
    29  C   -0.147290
    30  C    0.091364
    31  C    0.029002
    32  C   -0.038010
    33  C   -0.048063
    34  N   -0.473623
    35  C    0.166003
    36  C   -0.204014
    37  C    0.010518
    38  C    0.121753
    39  C    0.079590
    40  C    0.054857
    41  O   -0.262126
    42  C   -0.028898
    43  C    0.338634
    44  O   -0.238063
    45  O   -0.379846
    46  C    0.135320
    47  C    0.230542
    48  C   -0.177970
    49  C   -0.187000
    50  C   -0.016062
    51  C   -0.011415
    52  C   -0.019142
    53  C   -0.030923
    54  C   -0.168347
    55  C   -0.030611
    56  C   -0.000572
    57  C   -0.079296
    58  C   -0.000162
    59  C   -0.201224
    60  C   -0.025269
    61  C    0.004587
    62  C   -0.034032
    63  C   -0.011432
    64  C   -0.256675
    65  C   -0.036200
    66  C   -0.026171
    67  H    0.003106
    68  H    0.029755
    69  H    0.022209
    70  H    0.086028
    71  H    0.034213
    72  H    0.059602
    73  H    0.034702
    74  H    0.067325
    75  H    0.033662
    76  H    0.050329
    77  H    0.052457
    78  H    0.059466
    79  H    0.036654
    80  H    0.053729
    81  H    0.048350
    82  H    0.052897
    83  H    0.067269
    84  H    0.047628
    85  H    0.043072
    86  H    0.030019
    87  H    0.038285
    88  H    0.041948
    89  H    0.050726
    90  H    0.032840
    91  H    0.021271
    92  H    0.049012
    93  H    0.049821
    94  H    0.056735
    95  H    0.057880
    96  H    0.063654
    97  H    0.047591
    98  H    0.080981
    99  H    0.051337
   100  H    0.056108
   101  H    0.056998
   102  H    0.072741
   103  H    0.047967
   104  H    0.037378
   105  H    0.046728
   106  H    0.053741
   107  H    0.063591
   108  H    0.054936
   109  H    0.020254
   110  H    0.029817
   111  H    0.043953
   112  H    0.031193
   113  H    0.030743
   114  H    0.028609
   115  H    0.029637
   116  H    0.033161
   117  H    0.040543
   118  H    0.036555
   119  H    0.025976
   120  H    0.034600
   121  H    0.020084
   122  H    0.017719
   123  H    0.025621
   124  H    0.046151
   125  H    0.038350
   126  H    0.017806
   127  H    0.022868
   128  H    0.027041
   129  H    0.030028
   130  H    0.029014
   131  H    0.027121
   132  H    0.011130
   133  H    0.030383
   134  H    0.046290
   135  H    0.022784
   136  H    0.031876
   137  H    0.047465
   138  H    0.042380
   139  H    0.038222
   140  H    0.047096
 Sum of Mulliken charges =  -0.00000

 Dipole moment (field-independent basis, Debye):
    X=             -4.9030    Y=              2.3233    Z=              2.5539  Tot=              5.9967
 Quadrupole moment (field-independent basis, Debye-Ang):
   XX=           -371.8523   YY=           -417.6274   ZZ=           -402.1884
   XY=             -0.2269   XZ=             15.5072   YZ=             -6.0788

 Normal termination of Gaussian 16 at Thu Apr 28 01:42:13 2022.
