 Gaussian 16, Revision A.03,
 Gaussian 16:  ES64L-G16RevA.03 25-Dec-2016

 --------------------------------
 #p wB97XD/Def2SVP td=(nstates=5)
 --------------------------------

 -----------------------------------------------------
 step_1401_chromophore_16 TDDFT with wB97XD functional
 -----------------------------------------------------
 Symbolic Z-matrix:
 Charge =  0 Multiplicity = 1

                         Standard orientation:
 ---------------------------------------------------------------------
 Center     Atomic      Atomic             Coordinates (Angstroms)
 Number     Number       Type             X           Y           Z
 ---------------------------------------------------------------------
      1         12           0        5.884446    0.477227    0.228279
      2          6           0        3.526450   -2.153475    0.139856
      3          6           0        3.466695    2.566433   -1.019301
      4          6           0        8.186244    2.961173    0.074044
      5          6           0        8.428549   -1.891349    0.756182
      6          7           0        3.611848    0.256694   -0.328352
      7          6           0        2.917057   -0.858591   -0.047620
      8          6           0        1.385888   -0.571376   -0.324217
      9          6           0        1.457621    0.815314   -0.987908
     10          6           0        2.911803    1.275628   -0.845863
     11          6           0        1.047123    0.757727   -2.536577
     12          6           0        0.651741   -0.878685    1.028226
     13          6           0       -0.553804   -1.869536    1.006712
     14          6           0       -1.519362   -1.711409   -0.200724
     15          8           0       -1.340989   -2.274019   -1.291645
     16          8           0       -2.543332   -0.956686    0.172180
     17          7           0        5.816418    2.545528   -0.312837
     18          6           0        4.734203    3.189002   -0.898299
     19          6           0        5.093556    4.562134   -1.046068
     20          6           0        6.465379    4.786962   -0.602790
     21          6           0        6.856086    3.429753   -0.238545
     22          6           0        4.198174    5.600439   -1.697852
     23          6           0        7.281944    6.013786   -0.659800
     24          8           0        8.479608    5.904712   -0.528083
     25          6           0        6.697299    7.423176   -0.920821
     26          7           0        7.933432    0.497217    0.231624
     27          6           0        8.652693    1.645856    0.286971
     28          6           0       10.105981    1.353465    0.534796
     29          6           0       10.093365   -0.065591    1.126108
     30          6           0        8.734649   -0.536074    0.618276
     31          6           0       11.127447    1.418171   -0.631872
     32          6           0       10.173919   -0.116653    2.708994
     33          6           0        9.547107    0.937327    3.616178
     34          7           0        6.054391   -1.588045    0.303762
     35          6           0        7.161512   -2.415601    0.483171
     36          6           0        6.734450   -3.781155    0.622389
     37          6           0        5.328424   -3.751734    0.478078
     38          6           0        4.963882   -2.307192    0.369020
     39          6           0        7.642397   -4.908671    0.849356
     40          6           0        4.072513   -4.442636    0.461848
     41          8           0        4.002995   -5.687990    0.625053
     42          6           0        2.895808   -3.572620    0.163069
     43          6           0        2.208929   -4.019447   -1.142746
     44          8           0        2.470726   -3.593558   -2.255956
     45          8           0        1.162829   -4.893384   -0.835288
     46          6           0        0.386536   -5.527518   -1.898607
     47          6           0       -3.641412   -0.807964   -0.850642
     48          6           0       -4.980711   -1.204117   -0.182219
     49          6           0       -5.525319   -2.437414    0.184930
     50          6           0       -4.879417   -3.870754   -0.011882
     51          6           0       -6.896017   -2.509045    0.842498
     52          6           0       -8.019975   -1.777095    0.063481
     53          6           0       -8.462370   -0.490511    0.774207
     54          6           0       -8.933054    0.725289   -0.080775
     55          6           0       -8.763322    2.057086    0.743785
     56          6           0      -10.398666    0.608456   -0.562792
     57          6           0      -10.610766    0.404937   -2.021301
     58          6           0      -12.023815    0.944988   -2.458187
     59          6           0      -13.154455    0.341335   -1.623651
     60          6           0      -14.164610   -0.242648   -2.721873
     61          6           0      -13.826853    1.392210   -0.727926
     62          6           0      -14.147464    0.983295    0.748369
     63          6           0      -14.213357    2.224129    1.671685
     64          6           0      -13.133213    2.394367    2.750120
     65          6           0      -12.661262    3.868141    2.922871
     66          6           0      -13.467751    1.692364    4.168287
     67          1           0        2.710176    3.321087   -1.243050
     68          1           0        9.045611    3.627081   -0.032747
     69          1           0        9.334192   -2.499271    0.805688
     70          1           0        1.040065   -1.352521   -1.000990
     71          1           0        0.821927    1.439838   -0.359523
     72          1           0        1.874076    0.378172   -3.136020
     73          1           0        1.001979    1.823538   -2.763272
     74          1           0        0.124869    0.200310   -2.700253
     75          1           0        0.209048    0.002772    1.493159
     76          1           0        1.370239   -1.225044    1.771717
     77          1           0       -1.059407   -1.706324    1.958538
     78          1           0       -0.034883   -2.821563    1.118402
     79          1           0        3.238801    5.252836   -2.080530
     80          1           0        4.631141    6.051752   -2.590513
     81          1           0        4.036849    6.475840   -1.068722
     82          1           0        7.539868    8.101348   -1.058795
     83          1           0        6.072998    7.748739   -0.088832
     84          1           0        6.121312    7.408657   -1.845913
     85          1           0       10.362177    2.086184    1.299811
     86          1           0       10.938743   -0.671678    0.798998
     87          1           0       11.533564    0.445623   -0.909677
     88          1           0       12.042468    1.968912   -0.410645
     89          1           0       10.603104    1.913495   -1.449040
     90          1           0       11.211836   -0.355129    2.943346
     91          1           0        9.682850   -1.078974    2.853076
     92          1           0       10.335364    1.226444    4.310248
     93          1           0        8.681012    0.517939    4.128713
     94          1           0        9.243687    1.819369    3.051507
     95          1           0        7.163806   -5.746460    0.341121
     96          1           0        7.666044   -5.255878    1.882842
     97          1           0        8.584711   -4.646208    0.370750
     98          1           0        2.258162   -3.669769    1.041392
     99          1           0        0.960628   -6.064724   -2.653448
    100          1           0       -0.113642   -4.749357   -2.475330
    101          1           0       -0.414148   -6.185931   -1.561977
    102          1           0       -3.576808   -1.393723   -1.767360
    103          1           0       -3.718633    0.216399   -1.213837
    104          1           0       -5.463415   -0.296536    0.178059
    105          1           0       -3.950711   -3.816534   -0.580036
    106          1           0       -5.624711   -4.434533   -0.573614
    107          1           0       -4.594654   -4.448913    0.866783
    108          1           0       -6.698084   -2.120237    1.841128
    109          1           0       -7.133052   -3.556746    1.031330
    110          1           0       -8.817368   -2.517990    0.116662
    111          1           0       -7.703051   -1.685320   -0.975771
    112          1           0       -7.620998   -0.240669    1.420337
    113          1           0       -9.293213   -0.809998    1.401839
    114          1           0       -8.302422    0.761836   -0.970016
    115          1           0       -7.910207    1.950092    1.413977
    116          1           0       -9.600867    2.248302    1.414679
    117          1           0       -8.759632    2.976877    0.158077
    118          1           0      -10.917236    1.473888   -0.152694
    119          1           0      -10.822375   -0.327071   -0.196506
    120          1           0      -10.338608   -0.600840   -2.340579
    121          1           0       -9.965118    1.082806   -2.580038
    122          1           0      -12.177424    0.681625   -3.504826
    123          1           0      -11.975359    2.031871   -2.521972
    124          1           0      -12.701856   -0.480292   -1.069018
    125          1           0      -13.929858   -0.201880   -3.785536
    126          1           0      -15.167917    0.181112   -2.680274
    127          1           0      -14.446612   -1.281170   -2.543658
    128          1           0      -14.749598    1.678899   -1.232370
    129          1           0      -13.242839    2.312247   -0.682158
    130          1           0      -13.530806    0.174422    1.138987
    131          1           0      -15.170932    0.607957    0.726992
    132          1           0      -15.066266    1.985498    2.306895
    133          1           0      -14.384190    3.164107    1.147687
    134          1           0      -12.328504    1.920131    2.189687
    135          1           0      -13.188542    4.067075    3.856394
    136          1           0      -13.057398    4.595376    2.214657
    137          1           0      -11.600735    4.058807    3.091043
    138          1           0      -14.550493    1.647234    4.289664
    139          1           0      -13.083969    2.274837    5.005427
    140          1           0      -12.986178    0.716377    4.215216
 ---------------------------------------------------------------------

 SCF Done:  E(RwB97XD) =  -3007.82339540     A.U. after   19 cycles

 Excitation energies and oscillator strengths:

 Excited State   1:      Singlet-A      1.6247 eV  763.12 nm  f=0.3655  <S**2>=0.000
     245 -> 248        0.19443
     246 -> 247        0.68169
     245 <- 248        0.12078
 This state for optimization and/or second-order correction.
 Total Energy, E(TD-HF/TD-DFT) =  -3007.76368854
 Copying the excited state density for this state as the 1-particle RhoCI density.

 Excited State   2:      Singlet-A      2.1132 eV  586.70 nm  f=0.1256  <S**2>=0.000
     245 -> 247        0.64493
     246 -> 248       -0.27912

 Excited State   3:      Singlet-A      3.1443 eV  394.32 nm  f=0.0004  <S**2>=0.000
     242 -> 247        0.30789
     242 -> 249       -0.20881
     242 -> 250        0.10989
     243 -> 247        0.48488
     243 -> 249       -0.26772
     243 -> 250        0.12470

 Excited State   4:      Singlet-A      3.3545 eV  369.60 nm  f=0.0189  <S**2>=0.000
     242 -> 247       -0.16368
     244 -> 247        0.62503
     246 -> 248        0.22359

 Excited State   5:      Singlet-A      3.4950 eV  354.75 nm  f=0.1516  <S**2>=0.000
     242 -> 247        0.46258
     243 -> 247       -0.32894
     245 -> 247        0.11639
     246 -> 248        0.37477

 The electronic state is 1-A.
 Alpha  occ. eigenvalues --  -46.95432 -19.32137 -19.29712 -19.25154 -19.25043
 Alpha  occ. eigenvalues --  -19.22989 -19.22849 -14.46369 -14.46123 -14.44126
 Alpha  occ. eigenvalues --  -14.43591 -10.44023 -10.44013 -10.38330 -10.38265
 Alpha  occ. eigenvalues --  -10.37140 -10.35419 -10.34776 -10.34518 -10.34513
 Alpha  occ. eigenvalues --  -10.33979 -10.33960 -10.33894 -10.33688 -10.33508
 Alpha  occ. eigenvalues --  -10.33419 -10.33401 -10.33323 -10.32393 -10.32153
 Alpha  occ. eigenvalues --  -10.32051 -10.31486 -10.31405 -10.31363 -10.31324
 Alpha  occ. eigenvalues --  -10.31006 -10.30883 -10.30614 -10.30451 -10.30386
 Alpha  occ. eigenvalues --  -10.30385 -10.30363 -10.30232 -10.30209 -10.30022
 Alpha  occ. eigenvalues --  -10.29984 -10.29829 -10.29769 -10.29733 -10.29686
 Alpha  occ. eigenvalues --  -10.29686 -10.29572 -10.29525 -10.29320 -10.29290
 Alpha  occ. eigenvalues --  -10.29261 -10.29183 -10.28965 -10.28863 -10.28756
 Alpha  occ. eigenvalues --  -10.28526 -10.28442 -10.28397 -10.28359 -10.28264
 Alpha  occ. eigenvalues --  -10.28248  -3.21348  -1.94930  -1.94462  -1.94316
 Alpha  occ. eigenvalues --   -1.19790  -1.17073  -1.12403  -1.09984  -1.09737
 Alpha  occ. eigenvalues --   -1.09641  -1.06469  -1.05837  -1.05292  -1.03816
 Alpha  occ. eigenvalues --   -0.93983  -0.92455  -0.91563  -0.90705  -0.90560
 Alpha  occ. eigenvalues --   -0.90199  -0.89912  -0.89061  -0.88953  -0.88682
 Alpha  occ. eigenvalues --   -0.87859  -0.87191  -0.86068  -0.85239  -0.84923
 Alpha  occ. eigenvalues --   -0.84244  -0.83302  -0.82880  -0.82314  -0.81879
 Alpha  occ. eigenvalues --   -0.81668  -0.79973  -0.79206  -0.79089  -0.78046
 Alpha  occ. eigenvalues --   -0.77651  -0.77165  -0.76872  -0.76570  -0.76239
 Alpha  occ. eigenvalues --   -0.75304  -0.74685  -0.73450  -0.72337  -0.71474
 Alpha  occ. eigenvalues --   -0.70973  -0.70345  -0.69658  -0.69200  -0.67672
 Alpha  occ. eigenvalues --   -0.67467  -0.66635  -0.66528  -0.66369  -0.66205
 Alpha  occ. eigenvalues --   -0.65556  -0.64677  -0.64319  -0.64265  -0.61857
 Alpha  occ. eigenvalues --   -0.61737  -0.61279  -0.60962  -0.60524  -0.60122
 Alpha  occ. eigenvalues --   -0.59344  -0.58706  -0.57795  -0.57443  -0.57264
 Alpha  occ. eigenvalues --   -0.56928  -0.56572  -0.56328  -0.56315  -0.56039
 Alpha  occ. eigenvalues --   -0.55746  -0.55469  -0.54941  -0.54844  -0.54479
 Alpha  occ. eigenvalues --   -0.54408  -0.53840  -0.53616  -0.53405  -0.53387
 Alpha  occ. eigenvalues --   -0.53260  -0.53239  -0.52815  -0.52650  -0.52343
 Alpha  occ. eigenvalues --   -0.52160  -0.51696  -0.51620  -0.51355  -0.51246
 Alpha  occ. eigenvalues --   -0.51116  -0.50860  -0.50701  -0.50474  -0.50432
 Alpha  occ. eigenvalues --   -0.50207  -0.49837  -0.49805  -0.49750  -0.49559
 Alpha  occ. eigenvalues --   -0.49198  -0.48859  -0.48480  -0.48277  -0.48133
 Alpha  occ. eigenvalues --   -0.48042  -0.47838  -0.47794  -0.47651  -0.47428
 Alpha  occ. eigenvalues --   -0.47302  -0.47176  -0.46986  -0.46816  -0.46610
 Alpha  occ. eigenvalues --   -0.46483  -0.46291  -0.46113  -0.45908  -0.45707
 Alpha  occ. eigenvalues --   -0.45530  -0.45385  -0.45186  -0.45035  -0.44867
 Alpha  occ. eigenvalues --   -0.44605  -0.44426  -0.44213  -0.43881  -0.43801
 Alpha  occ. eigenvalues --   -0.43749  -0.43581  -0.43401  -0.43307  -0.43131
 Alpha  occ. eigenvalues --   -0.42854  -0.42713  -0.42324  -0.42171  -0.41772
 Alpha  occ. eigenvalues --   -0.41656  -0.41438  -0.41109  -0.40971  -0.40487
 Alpha  occ. eigenvalues --   -0.40254  -0.40026  -0.39633  -0.39361  -0.38998
 Alpha  occ. eigenvalues --   -0.38926  -0.38636  -0.38548  -0.38200  -0.37848
 Alpha  occ. eigenvalues --   -0.37816  -0.37546  -0.36337  -0.36329  -0.36121
 Alpha  occ. eigenvalues --   -0.36072  -0.35794  -0.35116  -0.32760  -0.32399
 Alpha  occ. eigenvalues --   -0.32270  -0.32203  -0.31827  -0.31135  -0.25450
 Alpha  occ. eigenvalues --   -0.22798
 Alpha virt. eigenvalues --   -0.06965   0.00370   0.02321   0.04323   0.04878
 Alpha virt. eigenvalues --    0.05124   0.06942   0.07238   0.08662   0.09511
 Alpha virt. eigenvalues --    0.10928   0.11260   0.11781   0.12405   0.12491

 Mulliken charges:
               1
     1  Mg   0.950701
     2  C   -0.034516
     3  C   -0.070108
     4  C   -0.061379
     5  C   -0.107515
     6  N   -0.296324
     7  C   -0.017456
     8  C   -0.108175
     9  C   -0.055370
    10  C    0.020037
    11  C    0.029250
    12  C   -0.015609
    13  C    0.009526
    14  C    0.235388
    15  O   -0.292548
    16  O   -0.322136
    17  N   -0.445202
    18  C    0.151215
    19  C   -0.144932
    20  C   -0.031069
    21  C    0.138058
    22  C    0.033824
    23  C    0.009726
    24  O   -0.229409
    25  C   -0.008152
    26  N   -0.380471
    27  C    0.038524
    28  C   -0.077548
    29  C   -0.121082
    30  C    0.082746
    31  C    0.038283
    32  C   -0.025183
    33  C   -0.029435
    34  N   -0.435249
    35  C    0.163196
    36  C   -0.198016
    37  C    0.014414
    38  C    0.107168
    39  C    0.090032
    40  C    0.034623
    41  O   -0.250589
    42  C    0.016301
    43  C    0.315520
    44  O   -0.230918
    45  O   -0.378388
    46  C    0.148928
    47  C    0.246814
    48  C   -0.185772
    49  C   -0.175224
    50  C   -0.000239
    51  C    0.003462
    52  C   -0.003349
    53  C   -0.011967
    54  C   -0.141211
    55  C   -0.012708
    56  C    0.023578
    57  C   -0.058701
    58  C    0.011869
    59  C   -0.169727
    60  C   -0.011815
    61  C    0.017121
    62  C   -0.016496
    63  C    0.003697
    64  C   -0.221698
    65  C   -0.022202
    66  C   -0.011080
    67  H   -0.006399
    68  H    0.025145
    69  H    0.017904
    70  H    0.063627
    71  H    0.024699
    72  H    0.054060
    73  H    0.027353
    74  H    0.062680
    75  H    0.026553
    76  H    0.040954
    77  H    0.048042
    78  H    0.048690
    79  H    0.032715
    80  H    0.047000
    81  H    0.041838
    82  H    0.051159
    83  H    0.062999
    84  H    0.040827
    85  H    0.031226
    86  H    0.020919
    87  H    0.031500
    88  H    0.036847
    89  H    0.044658
    90  H    0.026622
    91  H    0.009021
    92  H    0.044040
    93  H    0.044563
    94  H    0.046490
    95  H    0.054037
    96  H    0.060766
    97  H    0.042450
    98  H    0.073508
    99  H    0.047480
   100  H    0.053158
   101  H    0.054029
   102  H    0.067878
   103  H    0.045295
   104  H    0.030226
   105  H    0.040020
   106  H    0.047129
   107  H    0.058893
   108  H    0.046238
   109  H    0.014317
   110  H    0.022525
   111  H    0.034201
   112  H    0.018113
   113  H    0.022003
   114  H    0.015760
   115  H    0.023419
   116  H    0.023731
   117  H    0.035443
   118  H    0.016721
   119  H    0.011065
   120  H    0.027570
   121  H    0.010428
   122  H    0.008364
   123  H    0.017736
   124  H    0.031633
   125  H    0.032310
   126  H    0.010730
   127  H    0.016965
   128  H    0.018360
   129  H    0.018518
   130  H    0.020439
   131  H    0.019492
   132  H   -0.000451
   133  H    0.022181
   134  H    0.024006
   135  H    0.013404
   136  H    0.026518
   137  H    0.042773
   138  H    0.035893
   139  H    0.032077
   140  H    0.041884
 Sum of Mulliken charges =  -0.00000

 Dipole moment (field-independent basis, Debye):
    X=             -5.0102    Y=              2.0047    Z=              2.6233  Tot=              6.0003
 Quadrupole moment (field-independent basis, Debye-Ang):
   XX=           -373.6780   YY=           -416.0185   ZZ=           -401.8625
   XY=             -2.0879   XZ=             15.8626   YZ=             -6.1762

 Normal termination of Gaussian 16 at Thu Apr 28 02:09:59 2022.
