 Gaussian 16, Revision A.03,
 Gaussian 16:  ES64L-G16RevA.03 25-Dec-2016

 --------------------
 #p ZINDO=(nstates=5)
 --------------------

 ------------------------------
 step_1401_chromophore_16 ZINDO
 ------------------------------
 Symbolic Z-matrix:
 Charge =  0 Multiplicity = 1

                         Standard orientation:
 ---------------------------------------------------------------------
 Center     Atomic      Atomic             Coordinates (Angstroms)
 Number     Number       Type             X           Y           Z
 ---------------------------------------------------------------------
      1         12           0        5.884446    0.477227    0.228279
      2          6           0        3.526450   -2.153475    0.139856
      3          6           0        3.466695    2.566433   -1.019301
      4          6           0        8.186244    2.961173    0.074044
      5          6           0        8.428549   -1.891349    0.756182
      6          7           0        3.611848    0.256694   -0.328352
      7          6           0        2.917057   -0.858591   -0.047620
      8          6           0        1.385888   -0.571376   -0.324217
      9          6           0        1.457621    0.815314   -0.987908
     10          6           0        2.911803    1.275628   -0.845863
     11          6           0        1.047123    0.757727   -2.536577
     12          6           0        0.651741   -0.878685    1.028226
     13          6           0       -0.553804   -1.869536    1.006712
     14          6           0       -1.519362   -1.711409   -0.200724
     15          8           0       -1.340989   -2.274019   -1.291645
     16          8           0       -2.543332   -0.956686    0.172180
     17          7           0        5.816418    2.545528   -0.312837
     18          6           0        4.734203    3.189002   -0.898299
     19          6           0        5.093556    4.562134   -1.046068
     20          6           0        6.465379    4.786962   -0.602790
     21          6           0        6.856086    3.429753   -0.238545
     22          6           0        4.198174    5.600439   -1.697852
     23          6           0        7.281944    6.013786   -0.659800
     24          8           0        8.479608    5.904712   -0.528083
     25          6           0        6.697299    7.423176   -0.920821
     26          7           0        7.933432    0.497217    0.231624
     27          6           0        8.652693    1.645856    0.286971
     28          6           0       10.105981    1.353465    0.534796
     29          6           0       10.093365   -0.065591    1.126108
     30          6           0        8.734649   -0.536074    0.618276
     31          6           0       11.127447    1.418171   -0.631872
     32          6           0       10.173919   -0.116653    2.708994
     33          6           0        9.547107    0.937327    3.616178
     34          7           0        6.054391   -1.588045    0.303762
     35          6           0        7.161512   -2.415601    0.483171
     36          6           0        6.734450   -3.781155    0.622389
     37          6           0        5.328424   -3.751734    0.478078
     38          6           0        4.963882   -2.307192    0.369020
     39          6           0        7.642397   -4.908671    0.849356
     40          6           0        4.072513   -4.442636    0.461848
     41          8           0        4.002995   -5.687990    0.625053
     42          6           0        2.895808   -3.572620    0.163069
     43          6           0        2.208929   -4.019447   -1.142746
     44          8           0        2.470726   -3.593558   -2.255956
     45          8           0        1.162829   -4.893384   -0.835288
     46          6           0        0.386536   -5.527518   -1.898607
     47          6           0       -3.641412   -0.807964   -0.850642
     48          6           0       -4.980711   -1.204117   -0.182219
     49          6           0       -5.525319   -2.437414    0.184930
     50          6           0       -4.879417   -3.870754   -0.011882
     51          6           0       -6.896017   -2.509045    0.842498
     52          6           0       -8.019975   -1.777095    0.063481
     53          6           0       -8.462370   -0.490511    0.774207
     54          6           0       -8.933054    0.725289   -0.080775
     55          6           0       -8.763322    2.057086    0.743785
     56          6           0      -10.398666    0.608456   -0.562792
     57          6           0      -10.610766    0.404937   -2.021301
     58          6           0      -12.023815    0.944988   -2.458187
     59          6           0      -13.154455    0.341335   -1.623651
     60          6           0      -14.164610   -0.242648   -2.721873
     61          6           0      -13.826853    1.392210   -0.727926
     62          6           0      -14.147464    0.983295    0.748369
     63          6           0      -14.213357    2.224129    1.671685
     64          6           0      -13.133213    2.394367    2.750120
     65          6           0      -12.661262    3.868141    2.922871
     66          6           0      -13.467751    1.692364    4.168287
     67          1           0        2.710176    3.321087   -1.243050
     68          1           0        9.045611    3.627081   -0.032747
     69          1           0        9.334192   -2.499271    0.805688
     70          1           0        1.040065   -1.352521   -1.000990
     71          1           0        0.821927    1.439838   -0.359523
     72          1           0        1.874076    0.378172   -3.136020
     73          1           0        1.001979    1.823538   -2.763272
     74          1           0        0.124869    0.200310   -2.700253
     75          1           0        0.209048    0.002772    1.493159
     76          1           0        1.370239   -1.225044    1.771717
     77          1           0       -1.059407   -1.706324    1.958538
     78          1           0       -0.034883   -2.821563    1.118402
     79          1           0        3.238801    5.252836   -2.080530
     80          1           0        4.631141    6.051752   -2.590513
     81          1           0        4.036849    6.475840   -1.068722
     82          1           0        7.539868    8.101348   -1.058795
     83          1           0        6.072998    7.748739   -0.088832
     84          1           0        6.121312    7.408657   -1.845913
     85          1           0       10.362177    2.086184    1.299811
     86          1           0       10.938743   -0.671678    0.798998
     87          1           0       11.533564    0.445623   -0.909677
     88          1           0       12.042468    1.968912   -0.410645
     89          1           0       10.603104    1.913495   -1.449040
     90          1           0       11.211836   -0.355129    2.943346
     91          1           0        9.682850   -1.078974    2.853076
     92          1           0       10.335364    1.226444    4.310248
     93          1           0        8.681012    0.517939    4.128713
     94          1           0        9.243687    1.819369    3.051507
     95          1           0        7.163806   -5.746460    0.341121
     96          1           0        7.666044   -5.255878    1.882842
     97          1           0        8.584711   -4.646208    0.370750
     98          1           0        2.258162   -3.669769    1.041392
     99          1           0        0.960628   -6.064724   -2.653448
    100          1           0       -0.113642   -4.749357   -2.475330
    101          1           0       -0.414148   -6.185931   -1.561977
    102          1           0       -3.576808   -1.393723   -1.767360
    103          1           0       -3.718633    0.216399   -1.213837
    104          1           0       -5.463415   -0.296536    0.178059
    105          1           0       -3.950711   -3.816534   -0.580036
    106          1           0       -5.624711   -4.434533   -0.573614
    107          1           0       -4.594654   -4.448913    0.866783
    108          1           0       -6.698084   -2.120237    1.841128
    109          1           0       -7.133052   -3.556746    1.031330
    110          1           0       -8.817368   -2.517990    0.116662
    111          1           0       -7.703051   -1.685320   -0.975771
    112          1           0       -7.620998   -0.240669    1.420337
    113          1           0       -9.293213   -0.809998    1.401839
    114          1           0       -8.302422    0.761836   -0.970016
    115          1           0       -7.910207    1.950092    1.413977
    116          1           0       -9.600867    2.248302    1.414679
    117          1           0       -8.759632    2.976877    0.158077
    118          1           0      -10.917236    1.473888   -0.152694
    119          1           0      -10.822375   -0.327071   -0.196506
    120          1           0      -10.338608   -0.600840   -2.340579
    121          1           0       -9.965118    1.082806   -2.580038
    122          1           0      -12.177424    0.681625   -3.504826
    123          1           0      -11.975359    2.031871   -2.521972
    124          1           0      -12.701856   -0.480292   -1.069018
    125          1           0      -13.929858   -0.201880   -3.785536
    126          1           0      -15.167917    0.181112   -2.680274
    127          1           0      -14.446612   -1.281170   -2.543658
    128          1           0      -14.749598    1.678899   -1.232370
    129          1           0      -13.242839    2.312247   -0.682158
    130          1           0      -13.530806    0.174422    1.138987
    131          1           0      -15.170932    0.607957    0.726992
    132          1           0      -15.066266    1.985498    2.306895
    133          1           0      -14.384190    3.164107    1.147687
    134          1           0      -12.328504    1.920131    2.189687
    135          1           0      -13.188542    4.067075    3.856394
    136          1           0      -13.057398    4.595376    2.214657
    137          1           0      -11.600735    4.058807    3.091043
    138          1           0      -14.550493    1.647234    4.289664
    139          1           0      -13.083969    2.274837    5.005427
    140          1           0      -12.986178    0.716377    4.215216
 ---------------------------------------------------------------------

 SCF Done:  E(RZINDO/S) =  -473.988593334     A.U. after   20 cycles

 Excitation energies and oscillator strengths:

 Excited State   1:      Singlet-A      1.2305 eV 1007.61 nm  f=0.5781  <S**2>=0.000
     175 ->178        -0.19801
     176 ->177         0.66041
 This state for optimization and/or second-order correction.
 Total Energy, E(CIS/TDA) =  -473.943374019
 Copying the excited state density for this state as the 1-particle RhoCI density.

 Excited State   2:      Singlet-A      1.8555 eV  668.18 nm  f=0.0748  <S**2>=0.000
     175 ->177         0.56809
     176 ->178         0.38734

 Excited State   3:      Singlet-A      2.7471 eV  451.33 nm  f=0.0001  <S**2>=0.000
     167 ->177         0.10001
     167 ->179        -0.14271
     168 ->177         0.18532
     168 ->179        -0.18486
     169 ->177         0.33809
     169 ->178        -0.12881
     169 ->179        -0.32838
     169 ->180         0.12460
     169 ->183         0.10961
     169 ->186         0.10882
     171 ->177        -0.12082

 Excited State   4:      Singlet-A      2.8951 eV  428.25 nm  f=0.5815  <S**2>=0.000
     175 ->177        -0.27313
     176 ->178         0.48561
     176 ->179         0.36745

 Excited State   5:      Singlet-A      2.9954 eV  413.91 nm  f=0.1019  <S**2>=0.000
     168 ->177         0.12305
     168 ->179         0.13119
     168 ->180         0.14305
     168 ->181        -0.12320
     168 ->186        -0.10166
     168 ->187         0.10488
     170 ->177         0.19239
     170 ->179         0.19666
     170 ->180         0.22588
     170 ->181        -0.19362
     170 ->186        -0.15647
     170 ->187         0.14849
     174 ->177        -0.10493
     175 ->177        -0.12052
     176 ->178         0.14698
     176 ->179        -0.19633
     176 ->180        -0.11123

 The electronic state is 1-A.
 Alpha  occ. eigenvalues --   -1.84722  -1.81480  -1.78633  -1.72681  -1.70692
 Alpha  occ. eigenvalues --   -1.69116  -1.66256  -1.59287  -1.59083  -1.57929
 Alpha  occ. eigenvalues --   -1.55012  -1.49706  -1.47757  -1.47336  -1.45386
 Alpha  occ. eigenvalues --   -1.43217  -1.42859  -1.39475  -1.37401  -1.36964
 Alpha  occ. eigenvalues --   -1.35069  -1.34388  -1.32194  -1.31127  -1.29734
 Alpha  occ. eigenvalues --   -1.27972  -1.24022  -1.22641  -1.20183  -1.17925
 Alpha  occ. eigenvalues --   -1.16402  -1.14893  -1.14843  -1.13421  -1.13266
 Alpha  occ. eigenvalues --   -1.12513  -1.10175  -1.09727  -1.05862  -1.04425
 Alpha  occ. eigenvalues --   -1.02523  -1.01679  -0.99701  -0.98273  -0.96932
 Alpha  occ. eigenvalues --   -0.95751  -0.94791  -0.94090  -0.92814  -0.92521
 Alpha  occ. eigenvalues --   -0.90765  -0.90372  -0.88982  -0.87888  -0.87825
 Alpha  occ. eigenvalues --   -0.85519  -0.84659  -0.83416  -0.81396  -0.79926
 Alpha  occ. eigenvalues --   -0.79285  -0.79081  -0.77648  -0.77062  -0.76752
 Alpha  occ. eigenvalues --   -0.75842  -0.74949  -0.74672  -0.74384  -0.73772
 Alpha  occ. eigenvalues --   -0.73300  -0.72146  -0.71603  -0.71181  -0.70879
 Alpha  occ. eigenvalues --   -0.69669  -0.69031  -0.68912  -0.68262  -0.67372
 Alpha  occ. eigenvalues --   -0.67038  -0.66451  -0.66276  -0.66137  -0.65004
 Alpha  occ. eigenvalues --   -0.64754  -0.64427  -0.64113  -0.63798  -0.63655
 Alpha  occ. eigenvalues --   -0.62986  -0.62592  -0.61949  -0.61657  -0.61285
 Alpha  occ. eigenvalues --   -0.61008  -0.60678  -0.60300  -0.60021  -0.59857
 Alpha  occ. eigenvalues --   -0.59406  -0.58999  -0.58912  -0.58576  -0.58445
 Alpha  occ. eigenvalues --   -0.58015  -0.57817  -0.57552  -0.56800  -0.56646
 Alpha  occ. eigenvalues --   -0.56315  -0.55470  -0.54972  -0.54537  -0.54008
 Alpha  occ. eigenvalues --   -0.53854  -0.53678  -0.53499  -0.52816  -0.52766
 Alpha  occ. eigenvalues --   -0.52459  -0.52298  -0.51926  -0.51788  -0.51292
 Alpha  occ. eigenvalues --   -0.51258  -0.51011  -0.50701  -0.50478  -0.50103
 Alpha  occ. eigenvalues --   -0.49820  -0.49440  -0.49161  -0.48939  -0.48900
 Alpha  occ. eigenvalues --   -0.48762  -0.48607  -0.48402  -0.48048  -0.47732
 Alpha  occ. eigenvalues --   -0.47132  -0.47045  -0.46947  -0.46806  -0.46532
 Alpha  occ. eigenvalues --   -0.46404  -0.46115  -0.45715  -0.45677  -0.44980
 Alpha  occ. eigenvalues --   -0.44476  -0.44352  -0.44255  -0.43836  -0.43686
 Alpha  occ. eigenvalues --   -0.43056  -0.42605  -0.42210  -0.41883  -0.41800
 Alpha  occ. eigenvalues --   -0.41759  -0.41611  -0.41418  -0.39038  -0.38882
 Alpha  occ. eigenvalues --   -0.38117  -0.36572  -0.34804  -0.34660  -0.34254
 Alpha  occ. eigenvalues --   -0.32823  -0.32027  -0.31805  -0.31534  -0.25972
 Alpha  occ. eigenvalues --   -0.21625
 Alpha virt. eigenvalues --   -0.08440  -0.01904  -0.00602   0.01390   0.01477
 Alpha virt. eigenvalues --    0.01931   0.02489   0.03396   0.03586   0.04523
 Alpha virt. eigenvalues --    0.06439   0.07191   0.07693   0.07972   0.08125

 Mulliken charges:
               1
     1  Mg   0.430906
     2  C   -0.065267
     3  C   -0.058594
     4  C   -0.080830
     5  C   -0.080920
     6  N   -0.270113
     7  C    0.128203
     8  C   -0.002279
     9  C    0.017155
    10  C    0.111227
    11  C   -0.050179
    12  C   -0.023593
    13  C   -0.004034
    14  C    0.479911
    15  O   -0.530693
    16  O   -0.240649
    17  N   -0.332206
    18  C    0.083605
    19  C    0.005189
    20  C   -0.062557
    21  C    0.147742
    22  C   -0.049215
    23  C    0.330037
    24  O   -0.527506
    25  C   -0.032534
    26  N   -0.265557
    27  C    0.131111
    28  C    0.005373
    29  C   -0.004217
    30  C    0.149242
    31  C   -0.050686
    32  C   -0.036843
    33  C   -0.048531
    34  N   -0.305823
    35  C    0.105681
    36  C    0.057246
    37  C   -0.061490
    38  C    0.112908
    39  C   -0.038779
    40  C    0.340685
    41  O   -0.550184
    42  C    0.072860
    43  C    0.495781
    44  O   -0.497496
    45  O   -0.268100
    46  C    0.076729
    47  C    0.099611
    48  C   -0.109099
    49  C    0.006109
    50  C   -0.045902
    51  C   -0.023047
    52  C   -0.029106
    53  C   -0.031472
    54  C   -0.013344
    55  C   -0.062662
    56  C   -0.032658
    57  C   -0.035446
    58  C   -0.038672
    59  C   -0.003441
    60  C   -0.071315
    61  C   -0.031735
    62  C   -0.036388
    63  C   -0.038468
    64  C   -0.019192
    65  C   -0.067638
    66  C   -0.055195
    67  H    0.011014
    68  H    0.043682
    69  H    0.034667
    70  H    0.045457
    71  H    0.028433
    72  H    0.034681
    73  H    0.016157
    74  H    0.037650
    75  H    0.015579
    76  H    0.023317
    77  H    0.028533
    78  H    0.040627
    79  H    0.020690
    80  H    0.022532
    81  H    0.023919
    82  H    0.035452
    83  H    0.037983
    84  H    0.035315
    85  H    0.026378
    86  H    0.029713
    87  H    0.021356
    88  H    0.020612
    89  H    0.027253
    90  H    0.017023
    91  H    0.009295
    92  H    0.021735
    93  H    0.025253
    94  H    0.028856
    95  H    0.032616
    96  H    0.045175
    97  H    0.032413
    98  H    0.059245
    99  H    0.043616
   100  H    0.038734
   101  H    0.037529
   102  H    0.057657
   103  H    0.038270
   104  H    0.024757
   105  H    0.023315
   106  H    0.026246
   107  H    0.035860
   108  H    0.026920
   109  H    0.015940
   110  H    0.012622
   111  H    0.029772
   112  H    0.020885
   113  H    0.017366
   114  H    0.021591
   115  H    0.016730
   116  H    0.013486
   117  H    0.022142
   118  H    0.027560
   119  H    0.016621
   120  H    0.027960
   121  H    0.001838
   122  H    0.009450
   123  H    0.021877
   124  H    0.032480
   125  H    0.026855
   126  H    0.011103
   127  H    0.007944
   128  H    0.020237
   129  H    0.017447
   130  H    0.029095
   131  H    0.011737
   132  H    0.008197
   133  H    0.029041
   134  H    0.014264
   135  H    0.011235
   136  H    0.021602
   137  H    0.025003
   138  H    0.026786
   139  H    0.020018
   140  H    0.021941
 Sum of Mulliken charges =  -0.00000

 Dipole moment (field-independent basis, Debye):
    X=             -5.2769    Y=              2.2242    Z=              4.8809  Tot=              7.5244
 N-N= 4.298940133674D+03 E-N= 0.000000000000D+00  KE=-9.272417486400D+03
 Leave Link  601 at Thu Apr 28 02:23:36 2022, MaxMem=  6710886400 cpu:               1.1 elap:               0.1
 (Enter /sw/apps/gaussian-16.0/g16/l9999.exe)
 1\1\GINC-BP1-COMPUTE132\SP\RZINDO CIS\STO-3G\C55H74Mg1N4O6\OF15641\28-
 Apr-2022\0\\#p ZINDO=(nstates=5)\\step_1401_chromophore_16 ZINDO\\0,1\
 Mg,0,40.258,41.4,27.379\C,0,39.383,43.644,29.965\C,0,41.53,39.288,29.7
 64\C,0,41.325,39.339,24.908\C,0,39.637,43.944,25.033\N,0,40.379,41.411
 ,29.726\C,0,39.751,42.341,30.465\C,0,39.834,41.906,31.984\C,0,40.79,40
 .703,31.898\C,0,40.989,40.429,30.404\C,0,42.201,41.011,32.594\C,0,38.3
 47,41.833,32.48\C,0,37.955,42.632,33.762\C,0,38.996,42.586,34.915\O,0,

 Normal termination of Gaussian 16 at Thu Apr 28 02:23:36 2022.
