 Gaussian 16, Revision A.03,
 Gaussian 16:  ES64L-G16RevA.03 25-Dec-2016

 ------------------------------
 #p blyp/Def2SVP td=(nstates=5)
 ------------------------------

 ---------------------------------------------------
 step_1501_chromophore_12 TDDFT with blyp functional
 ---------------------------------------------------
 Symbolic Z-matrix:
 Charge =  0 Multiplicity = 1

                         Standard orientation:
 ---------------------------------------------------------------------
 Center     Atomic      Atomic             Coordinates (Angstroms)
 Number     Number       Type             X           Y           Z
 ---------------------------------------------------------------------
      1         12           0       -4.168857    0.514773   -0.182005
      2          6           0       -3.006180   -2.738147    0.629469
      3          6           0       -0.899287    1.456250   -0.398704
      4          6           0       -5.342892    3.418142   -1.002568
      5          6           0       -7.420097   -0.659514    0.481738
      6          7           0       -2.186233   -0.551888    0.014886
      7          6           0       -1.906991   -1.905750    0.277377
      8          6           0       -0.419726   -2.255195    0.264258
      9          6           0        0.180150   -0.786046    0.312846
     10          6           0       -1.043809    0.109334   -0.148437
     11          6           0        0.706161   -0.421677    1.726897
     12          6           0       -0.040264   -3.064563   -1.027534
     13          6           0        0.960369   -4.227770   -0.784712
     14          6           0        2.104007   -4.389973   -1.842491
     15          8           0        1.921983   -4.770434   -2.956604
     16          8           0        3.349597   -4.154004   -1.302498
     17          7           0       -3.240979    2.190349   -0.664971
     18          6           0       -1.899000    2.388103   -0.735807
     19          6           0       -1.693756    3.694097   -1.284336
     20          6           0       -2.983002    4.344938   -1.414371
     21          6           0       -3.924733    3.323849   -0.980205
     22          6           0       -0.347720    4.185772   -1.752083
     23          6           0       -3.388301    5.711458   -1.965499
     24          8           0       -4.584177    6.111459   -1.957932
     25          6           0       -2.398907    6.695117   -2.450785
     26          7           0       -6.113246    1.240969   -0.237717
     27          6           0       -6.350868    2.548864   -0.669394
     28          6           0       -7.811083    2.854458   -0.745954
     29          6           0       -8.514691    1.494892   -0.325073
     30          6           0       -7.237301    0.625635   -0.025334
     31          6           0       -8.252201    4.002853    0.182095
     32          6           0       -9.315321    0.852538   -1.445485
     33          6           0      -10.415830    1.613698   -2.169682
     34          7           0       -5.011461   -1.305606    0.491209
     35          6           0       -6.334666   -1.594237    0.730420
     36          6           0       -6.422826   -2.948779    1.231703
     37          6           0       -5.117203   -3.516788    1.184159
     38          6           0       -4.302923   -2.395427    0.749173
     39          6           0       -7.782199   -3.683364    1.668708
     40          6           0       -4.322407   -4.662263    1.393089
     41          8           0       -4.628635   -5.731154    1.901556
     42          6           0       -2.852373   -4.239633    0.938809
     43          6           0       -1.959125   -4.580575    2.070043
     44          8           0       -1.617121   -3.852141    2.991599
     45          8           0       -1.317304   -5.807444    1.788954
     46          6           0       -0.207523   -6.209346    2.716554
     47          6           0        4.390852   -4.154044   -2.297613
     48          6           0        5.700264   -3.864648   -1.708985
     49          6           0        6.952922   -3.782043   -2.291350
     50          6           0        7.236167   -4.048477   -3.741768
     51          6           0        8.243429   -3.464002   -1.517378
     52          6           0        9.005789   -2.213766   -1.809786
     53          6           0        9.837233   -1.540985   -0.644678
     54          6           0        9.485238    0.025688   -0.557679
     55          6           0       10.265295    0.729477   -1.695376
     56          6           0        9.656692    0.425180    0.931609
     57          6           0        8.589298    1.474678    1.362344
     58          6           0        9.168967    2.934955    1.318051
     59          6           0        8.093840    3.968490    0.871472
     60          6           0        8.826809    5.263982    0.423806
     61          6           0        6.980744    4.192775    1.960237
     62          6           0        5.615704    4.251259    1.226743
     63          6           0        4.708102    5.043922    2.177170
     64          6           0        3.949694    4.106459    3.160979
     65          6           0        2.930898    3.177255    2.487895
     66          6           0        3.334479    4.802694    4.380858
     67          1           0        0.151231    1.733234   -0.504232
     68          1           0       -5.759804    4.225419   -1.607688
     69          1           0       -8.405542   -1.055585    0.731672
     70          1           0       -0.056168   -2.800041    1.135737
     71          1           0        0.936715   -0.577173   -0.445157
     72          1           0        1.592851    0.207791    1.657128
     73          1           0        0.883085   -1.357153    2.257641
     74          1           0        0.101295    0.268859    2.315427
     75          1           0        0.371814   -2.325610   -1.714334
     76          1           0       -0.928776   -3.544245   -1.438916
     77          1           0        0.462713   -5.187006   -0.924045
     78          1           0        1.502581   -4.217615    0.161271
     79          1           0        0.341705    3.478670   -1.291637
     80          1           0       -0.243285    5.209983   -1.392173
     81          1           0       -0.249544    3.983223   -2.819131
     82          1           0       -1.744858    7.048938   -1.654411
     83          1           0       -3.005734    7.499083   -2.867857
     84          1           0       -1.775696    6.129263   -3.144156
     85          1           0       -8.079090    3.202479   -1.743364
     86          1           0       -9.146265    1.593485    0.557266
     87          1           0       -8.210968    4.853848   -0.496848
     88          1           0       -7.611723    4.231495    1.034291
     89          1           0       -9.314444    3.828768    0.352718
     90          1           0       -9.708999   -0.057428   -0.991472
     91          1           0       -8.611806    0.558119   -2.223975
     92          1           0      -11.360695    1.070676   -2.141766
     93          1           0      -10.044231    1.826592   -3.172250
     94          1           0      -10.647027    2.612459   -1.798908
     95          1           0       -8.067494   -4.635999    1.220897
     96          1           0       -8.653396   -3.044462    1.523871
     97          1           0       -7.763076   -4.006667    2.710196
     98          1           0       -2.541818   -4.943117    0.166121
     99          1           0        0.170878   -7.155983    2.328844
    100          1           0       -0.454893   -6.409781    3.758183
    101          1           0        0.614611   -5.493092    2.712487
    102          1           0        4.235909   -3.430766   -3.097955
    103          1           0        4.408399   -5.145280   -2.751875
    104          1           0        5.656244   -3.801508   -0.621195
    105          1           0        7.842951   -4.953419   -3.770698
    106          1           0        7.833147   -3.240865   -4.164442
    107          1           0        6.289267   -4.205959   -4.257980
    108          1           0        8.887655   -4.343178   -1.496676
    109          1           0        7.996663   -3.339149   -0.463380
    110          1           0        8.249727   -1.613598   -2.317192
    111          1           0        9.752785   -2.542518   -2.532592
    112          1           0       10.904220   -1.496126   -0.865692
    113          1           0        9.705587   -2.011236    0.329599
    114          1           0        8.438419    0.058504   -0.862354
    115          1           0        9.637587    1.363136   -2.321814
    116          1           0       10.706248    0.013505   -2.388104
    117          1           0       11.006732    1.416724   -1.287832
    118          1           0       10.621874    0.895622    1.117054
    119          1           0        9.537828   -0.416817    1.613468
    120          1           0        8.238711    1.208161    2.360014
    121          1           0        7.726649    1.426248    0.698418
    122          1           0        9.794275    2.923631    0.426242
    123          1           0        9.787651    3.164957    2.186001
    124          1           0        7.524889    3.507670    0.064436
    125          1           0        8.140261    6.037328    0.078983
    126          1           0        9.456286    5.066780   -0.443274
    127          1           0        9.317702    5.609461    1.333711
    128          1           0        7.127361    5.039061    2.629974
    129          1           0        6.963419    3.388671    2.696133
    130          1           0        5.188351    3.262597    1.055999
    131          1           0        5.608058    4.899376    0.349932
    132          1           0        4.017313    5.466573    1.447727
    133          1           0        5.236315    5.815247    2.737864
    134          1           0        4.694911    3.496089    3.671083
    135          1           0        2.948399    2.232722    3.031461
    136          1           0        3.063666    3.116316    1.408236
    137          1           0        1.959092    3.635540    2.672484
    138          1           0        3.927296    4.467868    5.232387
    139          1           0        2.310468    4.612027    4.702087
    140          1           0        3.349107    5.882072    4.235320
 ---------------------------------------------------------------------

 SCF Done:  E(RB-LYP) =  -3007.38032849     A.U. after   20 cycles

 Excitation energies and oscillator strengths:

 Excited State   1:      Singlet-A      1.7726 eV  699.44 nm  f=0.0133  <S**2>=0.000
     244 -> 247        0.59792
     245 -> 247        0.34465
     246 -> 247       -0.14269
 This state for optimization and/or second-order correction.
 Total Energy, E(TD-HF/TD-DFT) =  -3007.31518578
 Copying the excited state density for this state as the 1-particle RhoCI density.

 Excited State   2:      Singlet-A      1.8372 eV  674.85 nm  f=0.3041  <S**2>=0.000
     244 -> 247        0.12354
     245 -> 248        0.18934
     246 -> 247        0.67396
     246 <- 247       -0.14609

 Excited State   3:      Singlet-A      1.9591 eV  632.85 nm  f=0.0019  <S**2>=0.000
     243 -> 247        0.69655

 Excited State   4:      Singlet-A      2.0697 eV  599.05 nm  f=0.0896  <S**2>=0.000
     243 -> 247       -0.11309
     244 -> 247       -0.33497
     245 -> 247        0.55306
     246 -> 248       -0.23411

 Excited State   5:      Singlet-A      2.1480 eV  577.22 nm  f=0.0000  <S**2>=0.000
     242 -> 247        0.70708

 The electronic state is 1-A.
 Alpha  occ. eigenvalues --  -46.26516 -18.82563 -18.81741 -18.77202 -18.76922
 Alpha  occ. eigenvalues --  -18.75823 -18.75227 -14.03435 -14.03133 -14.01235
 Alpha  occ. eigenvalues --  -14.01190 -10.04087 -10.03811  -9.99900  -9.99690
 Alpha  occ. eigenvalues --   -9.97846  -9.97742  -9.97116  -9.96428  -9.96169
 Alpha  occ. eigenvalues --   -9.96128  -9.96079  -9.95974  -9.95585  -9.94745
 Alpha  occ. eigenvalues --   -9.94639  -9.94563  -9.94392  -9.94093  -9.94083
 Alpha  occ. eigenvalues --   -9.93823  -9.93733  -9.93701  -9.93601  -9.93520
 Alpha  occ. eigenvalues --   -9.93291  -9.93196  -9.92990  -9.92950  -9.92792
 Alpha  occ. eigenvalues --   -9.92755  -9.92452  -9.92282  -9.92268  -9.92260
 Alpha  occ. eigenvalues --   -9.92077  -9.92020  -9.92013  -9.91893  -9.91862
 Alpha  occ. eigenvalues --   -9.91777  -9.91765  -9.91726  -9.91703  -9.91554
 Alpha  occ. eigenvalues --   -9.91494  -9.91351  -9.91327  -9.91247  -9.91125
 Alpha  occ. eigenvalues --   -9.91103  -9.91029  -9.91001  -9.90916  -9.90902
 Alpha  occ. eigenvalues --   -9.90571  -2.91356  -1.71789  -1.71235  -1.71072
 Alpha  occ. eigenvalues --   -0.99146  -0.96178  -0.91513  -0.91411  -0.89706
 Alpha  occ. eigenvalues --   -0.88921  -0.87299  -0.86501  -0.86256  -0.85303
 Alpha  occ. eigenvalues --   -0.75893  -0.73576  -0.73133  -0.72728  -0.72626
 Alpha  occ. eigenvalues --   -0.72331  -0.72038  -0.70947  -0.70753  -0.70277
 Alpha  occ. eigenvalues --   -0.69400  -0.69196  -0.68189  -0.67638  -0.67304
 Alpha  occ. eigenvalues --   -0.66888  -0.66175  -0.65633  -0.65221  -0.64738
 Alpha  occ. eigenvalues --   -0.64298  -0.62557  -0.62405  -0.61966  -0.60827
 Alpha  occ. eigenvalues --   -0.60333  -0.60303  -0.60116  -0.59469  -0.58995
 Alpha  occ. eigenvalues --   -0.58394  -0.57746  -0.56911  -0.55763  -0.54733
 Alpha  occ. eigenvalues --   -0.54349  -0.53310  -0.52875  -0.52563  -0.51706
 Alpha  occ. eigenvalues --   -0.51269  -0.51041  -0.50993  -0.50401  -0.50307
 Alpha  occ. eigenvalues --   -0.49804  -0.49089  -0.48574  -0.48008  -0.46522
 Alpha  occ. eigenvalues --   -0.46376  -0.46160  -0.45790  -0.45655  -0.44561
 Alpha  occ. eigenvalues --   -0.43917  -0.43534  -0.43151  -0.42764  -0.42241
 Alpha  occ. eigenvalues --   -0.42054  -0.41783  -0.41712  -0.41491  -0.41427
 Alpha  occ. eigenvalues --   -0.41161  -0.40963  -0.40628  -0.40358  -0.40019
 Alpha  occ. eigenvalues --   -0.39974  -0.39876  -0.39823  -0.39694  -0.39423
 Alpha  occ. eigenvalues --   -0.39204  -0.39140  -0.38830  -0.38429  -0.38261
 Alpha  occ. eigenvalues --   -0.38027  -0.37890  -0.37741  -0.37468  -0.37317
 Alpha  occ. eigenvalues --   -0.37171  -0.36931  -0.36855  -0.36486  -0.36442
 Alpha  occ. eigenvalues --   -0.36355  -0.36194  -0.36043  -0.35892  -0.35714
 Alpha  occ. eigenvalues --   -0.35678  -0.35511  -0.35142  -0.34999  -0.34971
 Alpha  occ. eigenvalues --   -0.34652  -0.34325  -0.34299  -0.34147  -0.34076
 Alpha  occ. eigenvalues --   -0.33879  -0.33600  -0.33508  -0.33378  -0.33337
 Alpha  occ. eigenvalues --   -0.33160  -0.33086  -0.32711  -0.32659  -0.32509
 Alpha  occ. eigenvalues --   -0.32213  -0.32148  -0.31884  -0.31728  -0.31638
 Alpha  occ. eigenvalues --   -0.31420  -0.31335  -0.31210  -0.31012  -0.30911
 Alpha  occ. eigenvalues --   -0.30585  -0.30559  -0.30329  -0.30265  -0.29999
 Alpha  occ. eigenvalues --   -0.29533  -0.29507  -0.29298  -0.28987  -0.28838
 Alpha  occ. eigenvalues --   -0.28754  -0.28693  -0.28333  -0.28123  -0.27916
 Alpha  occ. eigenvalues --   -0.27653  -0.27532  -0.27252  -0.26915  -0.26702
 Alpha  occ. eigenvalues --   -0.26489  -0.26478  -0.26130  -0.26084  -0.25530
 Alpha  occ. eigenvalues --   -0.25502  -0.24912  -0.24074  -0.23866  -0.23627
 Alpha  occ. eigenvalues --   -0.22680  -0.22503  -0.22074  -0.21823  -0.21118
 Alpha  occ. eigenvalues --   -0.20631  -0.19760  -0.18950  -0.18461  -0.17490
 Alpha  occ. eigenvalues --   -0.16213
 Alpha virt. eigenvalues --   -0.11867  -0.07084  -0.06698  -0.04663  -0.03319
 Alpha virt. eigenvalues --   -0.02836  -0.02035  -0.01487  -0.01118   0.00299
 Alpha virt. eigenvalues --    0.00665   0.01439   0.01797   0.02507   0.02688

 Mulliken charges:
               1
     1  Mg   0.713787
     2  C    0.024973
     3  C   -0.075851
     4  C   -0.046198
     5  C   -0.074660
     6  N   -0.194535
     7  C   -0.070071
     8  C   -0.009836
     9  C   -0.015633
    10  C   -0.005977
    11  C    0.135799
    12  C    0.151122
    13  C    0.127415
    14  C    0.025027
    15  O   -0.166640
    16  O   -0.264689
    17  N   -0.326574
    18  C    0.179979
    19  C   -0.192354
    20  C    0.066088
    21  C    0.102339
    22  C    0.188224
    23  C   -0.082197
    24  O   -0.207320
    25  C    0.137716
    26  N   -0.214900
    27  C    0.016513
    28  C    0.018263
    29  C    0.037243
    30  C    0.042772
    31  C    0.131499
    32  C    0.060065
    33  C    0.089918
    34  N   -0.211310
    35  C    0.089855
    36  C   -0.142182
    37  C    0.118992
    38  C    0.097001
    39  C    0.133302
    40  C   -0.079802
    41  O   -0.126525
    42  C    0.013378
    43  C    0.127860
    44  O   -0.186055
    45  O   -0.306280
    46  C    0.220913
    47  C    0.316424
    48  C   -0.109186
    49  C   -0.173607
    50  C    0.161330
    51  C    0.120977
    52  C    0.071453
    53  C    0.080508
    54  C   -0.098808
    55  C    0.115268
    56  C    0.133208
    57  C    0.054309
    58  C    0.081640
    59  C   -0.048917
    60  C    0.119347
    61  C    0.080355
    62  C    0.068048
    63  C    0.103670
    64  C   -0.105914
    65  C    0.100470
    66  C    0.095302
    67  H   -0.059457
    68  H   -0.028380
    69  H   -0.057415
    70  H    0.007442
    71  H   -0.033814
    72  H   -0.012549
    73  H    0.006688
    74  H   -0.002097
    75  H   -0.009403
    76  H   -0.004138
    77  H    0.007111
    78  H   -0.008481
    79  H   -0.031788
    80  H    0.009997
    81  H    0.016416
    82  H    0.018344
    83  H    0.004256
    84  H    0.000097
    85  H   -0.020650
    86  H   -0.026401
    87  H   -0.012121
    88  H    0.009119
    89  H   -0.010261
    90  H   -0.024815
    91  H   -0.022831
    92  H   -0.002019
    93  H   -0.006103
    94  H   -0.020003
    95  H    0.002505
    96  H   -0.023390
    97  H    0.005006
    98  H    0.008892
    99  H    0.009989
   100  H    0.019411
   101  H    0.008333
   102  H    0.005462
   103  H    0.003503
   104  H   -0.034664
   105  H   -0.003382
   106  H   -0.003651
   107  H   -0.013117
   108  H   -0.027878
   109  H   -0.055882
   110  H   -0.012687
   111  H   -0.029671
   112  H   -0.030023
   113  H   -0.026355
   114  H   -0.028972
   115  H   -0.023134
   116  H   -0.011069
   117  H   -0.010123
   118  H   -0.030726
   119  H   -0.038805
   120  H   -0.032857
   121  H   -0.036076
   122  H   -0.043916
   123  H   -0.022771
   124  H   -0.038549
   125  H   -0.028554
   126  H   -0.011939
   127  H   -0.008293
   128  H   -0.045409
   129  H   -0.037357
   130  H   -0.015352
   131  H   -0.024139
   132  H   -0.051923
   133  H   -0.029009
   134  H   -0.041194
   135  H   -0.001907
   136  H   -0.012534
   137  H   -0.019684
   138  H   -0.019561
   139  H   -0.022013
   140  H   -0.019603
 Sum of Mulliken charges =  -0.00000

 Dipole moment (field-independent basis, Debye):
    X=              2.9301    Y=              2.2578    Z=             -1.4138  Tot=              3.9600
 Quadrupole moment (field-independent basis, Debye-Ang):
   XX=           -366.2997   YY=           -438.3460   ZZ=           -412.8989
   XY=            -10.4280   XZ=              5.6878   YZ=              2.4718

 Normal termination of Gaussian 16 at Wed May  4 07:58:23 2022.
