 Gaussian 16, Revision A.03,
 Gaussian 16:  ES64L-G16RevA.03 25-Dec-2016

 -----------------------------------
 #p cam-b3lyp/Def2SVP td=(nstates=5)
 -----------------------------------

 --------------------------------------------------------
 step_1501_chromophore_12 TDDFT with cam-b3lyp functional
 --------------------------------------------------------
 Symbolic Z-matrix:
 Charge =  0 Multiplicity = 1

                         Standard orientation:
 ---------------------------------------------------------------------
 Center     Atomic      Atomic             Coordinates (Angstroms)
 Number     Number       Type             X           Y           Z
 ---------------------------------------------------------------------
      1         12           0       -4.168857    0.514773   -0.182005
      2          6           0       -3.006180   -2.738147    0.629469
      3          6           0       -0.899287    1.456250   -0.398704
      4          6           0       -5.342892    3.418142   -1.002568
      5          6           0       -7.420097   -0.659514    0.481738
      6          7           0       -2.186233   -0.551888    0.014886
      7          6           0       -1.906991   -1.905750    0.277377
      8          6           0       -0.419726   -2.255195    0.264258
      9          6           0        0.180150   -0.786046    0.312846
     10          6           0       -1.043809    0.109334   -0.148437
     11          6           0        0.706161   -0.421677    1.726897
     12          6           0       -0.040264   -3.064563   -1.027534
     13          6           0        0.960369   -4.227770   -0.784712
     14          6           0        2.104007   -4.389973   -1.842491
     15          8           0        1.921983   -4.770434   -2.956604
     16          8           0        3.349597   -4.154004   -1.302498
     17          7           0       -3.240979    2.190349   -0.664971
     18          6           0       -1.899000    2.388103   -0.735807
     19          6           0       -1.693756    3.694097   -1.284336
     20          6           0       -2.983002    4.344938   -1.414371
     21          6           0       -3.924733    3.323849   -0.980205
     22          6           0       -0.347720    4.185772   -1.752083
     23          6           0       -3.388301    5.711458   -1.965499
     24          8           0       -4.584177    6.111459   -1.957932
     25          6           0       -2.398907    6.695117   -2.450785
     26          7           0       -6.113246    1.240969   -0.237717
     27          6           0       -6.350868    2.548864   -0.669394
     28          6           0       -7.811083    2.854458   -0.745954
     29          6           0       -8.514691    1.494892   -0.325073
     30          6           0       -7.237301    0.625635   -0.025334
     31          6           0       -8.252201    4.002853    0.182095
     32          6           0       -9.315321    0.852538   -1.445485
     33          6           0      -10.415830    1.613698   -2.169682
     34          7           0       -5.011461   -1.305606    0.491209
     35          6           0       -6.334666   -1.594237    0.730420
     36          6           0       -6.422826   -2.948779    1.231703
     37          6           0       -5.117203   -3.516788    1.184159
     38          6           0       -4.302923   -2.395427    0.749173
     39          6           0       -7.782199   -3.683364    1.668708
     40          6           0       -4.322407   -4.662263    1.393089
     41          8           0       -4.628635   -5.731154    1.901556
     42          6           0       -2.852373   -4.239633    0.938809
     43          6           0       -1.959125   -4.580575    2.070043
     44          8           0       -1.617121   -3.852141    2.991599
     45          8           0       -1.317304   -5.807444    1.788954
     46          6           0       -0.207523   -6.209346    2.716554
     47          6           0        4.390852   -4.154044   -2.297613
     48          6           0        5.700264   -3.864648   -1.708985
     49          6           0        6.952922   -3.782043   -2.291350
     50          6           0        7.236167   -4.048477   -3.741768
     51          6           0        8.243429   -3.464002   -1.517378
     52          6           0        9.005789   -2.213766   -1.809786
     53          6           0        9.837233   -1.540985   -0.644678
     54          6           0        9.485238    0.025688   -0.557679
     55          6           0       10.265295    0.729477   -1.695376
     56          6           0        9.656692    0.425180    0.931609
     57          6           0        8.589298    1.474678    1.362344
     58          6           0        9.168967    2.934955    1.318051
     59          6           0        8.093840    3.968490    0.871472
     60          6           0        8.826809    5.263982    0.423806
     61          6           0        6.980744    4.192775    1.960237
     62          6           0        5.615704    4.251259    1.226743
     63          6           0        4.708102    5.043922    2.177170
     64          6           0        3.949694    4.106459    3.160979
     65          6           0        2.930898    3.177255    2.487895
     66          6           0        3.334479    4.802694    4.380858
     67          1           0        0.151231    1.733234   -0.504232
     68          1           0       -5.759804    4.225419   -1.607688
     69          1           0       -8.405542   -1.055585    0.731672
     70          1           0       -0.056168   -2.800041    1.135737
     71          1           0        0.936715   -0.577173   -0.445157
     72          1           0        1.592851    0.207791    1.657128
     73          1           0        0.883085   -1.357153    2.257641
     74          1           0        0.101295    0.268859    2.315427
     75          1           0        0.371814   -2.325610   -1.714334
     76          1           0       -0.928776   -3.544245   -1.438916
     77          1           0        0.462713   -5.187006   -0.924045
     78          1           0        1.502581   -4.217615    0.161271
     79          1           0        0.341705    3.478670   -1.291637
     80          1           0       -0.243285    5.209983   -1.392173
     81          1           0       -0.249544    3.983223   -2.819131
     82          1           0       -1.744858    7.048938   -1.654411
     83          1           0       -3.005734    7.499083   -2.867857
     84          1           0       -1.775696    6.129263   -3.144156
     85          1           0       -8.079090    3.202479   -1.743364
     86          1           0       -9.146265    1.593485    0.557266
     87          1           0       -8.210968    4.853848   -0.496848
     88          1           0       -7.611723    4.231495    1.034291
     89          1           0       -9.314444    3.828768    0.352718
     90          1           0       -9.708999   -0.057428   -0.991472
     91          1           0       -8.611806    0.558119   -2.223975
     92          1           0      -11.360695    1.070676   -2.141766
     93          1           0      -10.044231    1.826592   -3.172250
     94          1           0      -10.647027    2.612459   -1.798908
     95          1           0       -8.067494   -4.635999    1.220897
     96          1           0       -8.653396   -3.044462    1.523871
     97          1           0       -7.763076   -4.006667    2.710196
     98          1           0       -2.541818   -4.943117    0.166121
     99          1           0        0.170878   -7.155983    2.328844
    100          1           0       -0.454893   -6.409781    3.758183
    101          1           0        0.614611   -5.493092    2.712487
    102          1           0        4.235909   -3.430766   -3.097955
    103          1           0        4.408399   -5.145280   -2.751875
    104          1           0        5.656244   -3.801508   -0.621195
    105          1           0        7.842951   -4.953419   -3.770698
    106          1           0        7.833147   -3.240865   -4.164442
    107          1           0        6.289267   -4.205959   -4.257980
    108          1           0        8.887655   -4.343178   -1.496676
    109          1           0        7.996663   -3.339149   -0.463380
    110          1           0        8.249727   -1.613598   -2.317192
    111          1           0        9.752785   -2.542518   -2.532592
    112          1           0       10.904220   -1.496126   -0.865692
    113          1           0        9.705587   -2.011236    0.329599
    114          1           0        8.438419    0.058504   -0.862354
    115          1           0        9.637587    1.363136   -2.321814
    116          1           0       10.706248    0.013505   -2.388104
    117          1           0       11.006732    1.416724   -1.287832
    118          1           0       10.621874    0.895622    1.117054
    119          1           0        9.537828   -0.416817    1.613468
    120          1           0        8.238711    1.208161    2.360014
    121          1           0        7.726649    1.426248    0.698418
    122          1           0        9.794275    2.923631    0.426242
    123          1           0        9.787651    3.164957    2.186001
    124          1           0        7.524889    3.507670    0.064436
    125          1           0        8.140261    6.037328    0.078983
    126          1           0        9.456286    5.066780   -0.443274
    127          1           0        9.317702    5.609461    1.333711
    128          1           0        7.127361    5.039061    2.629974
    129          1           0        6.963419    3.388671    2.696133
    130          1           0        5.188351    3.262597    1.055999
    131          1           0        5.608058    4.899376    0.349932
    132          1           0        4.017313    5.466573    1.447727
    133          1           0        5.236315    5.815247    2.737864
    134          1           0        4.694911    3.496089    3.671083
    135          1           0        2.948399    2.232722    3.031461
    136          1           0        3.063666    3.116316    1.408236
    137          1           0        1.959092    3.635540    2.672484
    138          1           0        3.927296    4.467868    5.232387
    139          1           0        2.310468    4.612027    4.702087
    140          1           0        3.349107    5.882072    4.235320
 ---------------------------------------------------------------------

 SCF Done:  E(RCAM-B3LYP) =  -3007.17445695     A.U. after   17 cycles

 Excitation energies and oscillator strengths:

 Excited State   1:      Singlet-A      1.7305 eV  716.45 nm  f=0.3946  <S**2>=0.000
     245 -> 248       -0.17571
     246 -> 247        0.68595
     245 <- 248       -0.10448
 This state for optimization and/or second-order correction.
 Total Energy, E(TD-HF/TD-DFT) =  -3007.11086123
 Copying the excited state density for this state as the 1-particle RhoCI density.

 Excited State   2:      Singlet-A      2.2541 eV  550.03 nm  f=0.1425  <S**2>=0.000
     245 -> 247        0.64741
     246 -> 248        0.27063

 Excited State   3:      Singlet-A      3.3954 eV  365.15 nm  f=0.0012  <S**2>=0.000
     240 -> 247        0.42856
     240 -> 248       -0.10992
     240 -> 249       -0.23920
     240 -> 250        0.13724
     241 -> 247        0.27385
     242 -> 247       -0.15104
     243 -> 247       -0.31938

 Excited State   4:      Singlet-A      3.4314 eV  361.32 nm  f=0.0011  <S**2>=0.000
     240 -> 247        0.30732
     240 -> 249       -0.14819
     243 -> 247        0.57630

 Excited State   5:      Singlet-A      3.5398 eV  350.26 nm  f=0.2009  <S**2>=0.000
     240 -> 247        0.20849
     241 -> 247       -0.43038
     242 -> 249       -0.10191
     245 -> 247       -0.15036
     246 -> 248        0.44972

 The electronic state is 1-A.
 Alpha  occ. eigenvalues --  -46.87971 -19.25470 -19.24886 -19.20293 -19.20288
 Alpha  occ. eigenvalues --  -19.19358 -19.18207 -14.42485 -14.41832 -14.39727
 Alpha  occ. eigenvalues --  -14.39524 -10.39572 -10.39404 -10.35343 -10.34951
 Alpha  occ. eigenvalues --  -10.31942 -10.31923 -10.31821 -10.30940 -10.30784
 Alpha  occ. eigenvalues --  -10.30353 -10.30306 -10.30134 -10.29647 -10.29489
 Alpha  occ. eigenvalues --  -10.29084 -10.28835 -10.28736 -10.28435 -10.28154
 Alpha  occ. eigenvalues --  -10.28105 -10.28007 -10.27940 -10.27542 -10.27513
 Alpha  occ. eigenvalues --  -10.27288 -10.27106 -10.26996 -10.26910 -10.26837
 Alpha  occ. eigenvalues --  -10.26784 -10.26128 -10.26115 -10.26053 -10.25946
 Alpha  occ. eigenvalues --  -10.25927 -10.25921 -10.25884 -10.25634 -10.25594
 Alpha  occ. eigenvalues --  -10.25525 -10.25513 -10.25476 -10.25422 -10.25408
 Alpha  occ. eigenvalues --  -10.25283 -10.25014 -10.24961 -10.24903 -10.24729
 Alpha  occ. eigenvalues --  -10.24726 -10.24697 -10.24692 -10.24600 -10.24585
 Alpha  occ. eigenvalues --  -10.24140  -3.16728  -1.91633  -1.91179  -1.91049
 Alpha  occ. eigenvalues --   -1.17719  -1.14938  -1.10132  -1.09488  -1.07824
 Alpha  occ. eigenvalues --   -1.07003  -1.05077  -1.04218  -1.03790  -1.02815
 Alpha  occ. eigenvalues --   -0.93272  -0.90475  -0.89957  -0.89558  -0.89221
 Alpha  occ. eigenvalues --   -0.88969  -0.88755  -0.87451  -0.87323  -0.86816
 Alpha  occ. eigenvalues --   -0.85913  -0.85642  -0.84483  -0.83921  -0.83481
 Alpha  occ. eigenvalues --   -0.82978  -0.82294  -0.81580  -0.81120  -0.80639
 Alpha  occ. eigenvalues --   -0.80097  -0.78237  -0.78092  -0.77464  -0.76348
 Alpha  occ. eigenvalues --   -0.75679  -0.75573  -0.75443  -0.74754  -0.74226
 Alpha  occ. eigenvalues --   -0.73528  -0.72788  -0.71786  -0.70606  -0.69363
 Alpha  occ. eigenvalues --   -0.69028  -0.67823  -0.67283  -0.66968  -0.65950
 Alpha  occ. eigenvalues --   -0.65175  -0.65162  -0.65076  -0.64383  -0.64281
 Alpha  occ. eigenvalues --   -0.63829  -0.63024  -0.62448  -0.61832  -0.60165
 Alpha  occ. eigenvalues --   -0.59973  -0.59675  -0.59245  -0.59062  -0.58025
 Alpha  occ. eigenvalues --   -0.57678  -0.56972  -0.56276  -0.56065  -0.55490
 Alpha  occ. eigenvalues --   -0.55035  -0.54954  -0.54648  -0.54519  -0.54217
 Alpha  occ. eigenvalues --   -0.54186  -0.53913  -0.53513  -0.53070  -0.52914
 Alpha  occ. eigenvalues --   -0.52658  -0.52561  -0.52456  -0.52358  -0.52196
 Alpha  occ. eigenvalues --   -0.51955  -0.51557  -0.51365  -0.51184  -0.50755
 Alpha  occ. eigenvalues --   -0.50597  -0.50148  -0.49971  -0.49736  -0.49535
 Alpha  occ. eigenvalues --   -0.49429  -0.49315  -0.49256  -0.49074  -0.48681
 Alpha  occ. eigenvalues --   -0.48651  -0.48555  -0.48217  -0.48120  -0.47804
 Alpha  occ. eigenvalues --   -0.47584  -0.47414  -0.47361  -0.47036  -0.46764
 Alpha  occ. eigenvalues --   -0.46703  -0.46231  -0.46165  -0.46046  -0.46014
 Alpha  occ. eigenvalues --   -0.45659  -0.45559  -0.45382  -0.45216  -0.45007
 Alpha  occ. eigenvalues --   -0.44902  -0.44733  -0.44697  -0.44177  -0.44154
 Alpha  occ. eigenvalues --   -0.44015  -0.43754  -0.43572  -0.43478  -0.43049
 Alpha  occ. eigenvalues --   -0.42843  -0.42767  -0.42692  -0.42547  -0.42458
 Alpha  occ. eigenvalues --   -0.42191  -0.41988  -0.41892  -0.41760  -0.41597
 Alpha  occ. eigenvalues --   -0.40761  -0.40635  -0.40542  -0.40107  -0.39878
 Alpha  occ. eigenvalues --   -0.39714  -0.39682  -0.39464  -0.38981  -0.38811
 Alpha  occ. eigenvalues --   -0.38561  -0.38422  -0.38334  -0.37832  -0.37728
 Alpha  occ. eigenvalues --   -0.37578  -0.37302  -0.37217  -0.36779  -0.36743
 Alpha  occ. eigenvalues --   -0.36381  -0.36103  -0.34652  -0.34440  -0.34286
 Alpha  occ. eigenvalues --   -0.34143  -0.33351  -0.32948  -0.31666  -0.31285
 Alpha  occ. eigenvalues --   -0.30636  -0.30538  -0.29743  -0.29306  -0.24276
 Alpha  occ. eigenvalues --   -0.21548
 Alpha virt. eigenvalues --   -0.09024  -0.01799  -0.00243   0.02164   0.03470
 Alpha virt. eigenvalues --    0.04194   0.04574   0.05031   0.05813   0.06862
 Alpha virt. eigenvalues --    0.07634   0.08037   0.08670   0.08727   0.08990

 Mulliken charges:
               1
     1  Mg   0.850757
     2  C   -0.004844
     3  C   -0.081133
     4  C   -0.063707
     5  C   -0.082579
     6  N   -0.259609
     7  C   -0.023739
     8  C   -0.060964
     9  C   -0.065026
    10  C    0.009176
    11  C    0.082556
    12  C    0.100579
    13  C    0.061379
    14  C    0.107900
    15  O   -0.205738
    16  O   -0.329809
    17  N   -0.418402
    18  C    0.177334
    19  C   -0.193410
    20  C   -0.010543
    21  C    0.127566
    22  C    0.134083
    23  C   -0.000769
    24  O   -0.250644
    25  C    0.057602
    26  N   -0.294288
    27  C    0.037275
    28  C   -0.041763
    29  C   -0.015828
    30  C    0.063054
    31  C    0.076227
    32  C    0.008823
    33  C    0.024501
    34  N   -0.302861
    35  C    0.096446
    36  C   -0.140719
    37  C    0.044475
    38  C    0.130960
    39  C    0.091887
    40  C    0.016892
    41  O   -0.163376
    42  C   -0.057721
    43  C    0.217048
    44  O   -0.220355
    45  O   -0.370979
    46  C    0.183787
    47  C    0.281317
    48  C   -0.129620
    49  C   -0.198241
    50  C    0.100743
    51  C    0.068912
    52  C    0.012168
    53  C    0.029708
    54  C   -0.149539
    55  C    0.054622
    56  C    0.075196
    57  C    0.004093
    58  C    0.031291
    59  C   -0.107629
    60  C    0.063099
    61  C    0.032358
    62  C    0.011307
    63  C    0.042115
    64  C   -0.158630
    65  C    0.042349
    66  C    0.034497
    67  H   -0.026577
    68  H    0.009321
    69  H   -0.023156
    70  H    0.037855
    71  H    0.000615
    72  H    0.008823
    73  H    0.028422
    74  H    0.023996
    75  H    0.021076
    76  H    0.026546
    77  H    0.037897
    78  H    0.023479
    79  H   -0.006957
    80  H    0.032614
    81  H    0.042000
    82  H    0.044726
    83  H    0.038845
    84  H    0.025616
    85  H    0.013724
    86  H    0.008954
    87  H    0.012588
    88  H    0.034908
    89  H    0.011264
    90  H    0.002989
    91  H    0.006499
    92  H    0.022573
    93  H    0.017269
    94  H    0.003223
    95  H    0.029642
    96  H    0.001250
    97  H    0.031814
    98  H    0.051600
    99  H    0.034296
   100  H    0.043059
   101  H    0.029023
   102  H    0.031508
   103  H    0.032503
   104  H    0.001336
   105  H    0.021683
   106  H    0.020496
   107  H    0.010395
   108  H    0.001577
   109  H   -0.024684
   110  H    0.013588
   111  H   -0.002198
   112  H   -0.000590
   113  H    0.000923
   114  H    0.001327
   115  H    0.001750
   116  H    0.013305
   117  H    0.012382
   118  H   -0.002341
   119  H   -0.007182
   120  H   -0.004681
   121  H   -0.009304
   122  H   -0.018106
   123  H    0.005502
   124  H   -0.007044
   125  H   -0.003652
   126  H    0.012112
   127  H    0.013599
   128  H   -0.016307
   129  H   -0.009030
   130  H    0.010651
   131  H    0.004296
   132  H   -0.021137
   133  H    0.000629
   134  H   -0.010030
   135  H    0.020094
   136  H    0.007479
   137  H    0.004499
   138  H    0.004179
   139  H    0.004122
   140  H    0.004917
 Sum of Mulliken charges =  -0.00000

 Dipole moment (field-independent basis, Debye):
    X=              3.0830    Y=              1.9075    Z=             -1.3144  Tot=              3.8563
 Quadrupole moment (field-independent basis, Debye-Ang):
   XX=           -364.3416   YY=           -435.7327   ZZ=           -412.6803
   XY=             -8.1869   XZ=              5.3274   YZ=              0.6900

 Normal termination of Gaussian 16 at Wed May  4 07:00:56 2022.
