 Gaussian 16, Revision A.03,
 Gaussian 16:  ES64L-G16RevA.03 25-Dec-2016

 ---------------------------------
 #p PBE1PBE/Def2SVP td=(nstates=5)
 ---------------------------------

 ------------------------------------------------------
 step_1501_chromophore_12 TDDFT with PBE1PBE functional
 ------------------------------------------------------
 Symbolic Z-matrix:
 Charge =  0 Multiplicity = 1

                         Standard orientation:
 ---------------------------------------------------------------------
 Center     Atomic      Atomic             Coordinates (Angstroms)
 Number     Number       Type             X           Y           Z
 ---------------------------------------------------------------------
      1         12           0       -4.168857    0.514773   -0.182005
      2          6           0       -3.006180   -2.738147    0.629469
      3          6           0       -0.899287    1.456250   -0.398704
      4          6           0       -5.342892    3.418142   -1.002568
      5          6           0       -7.420097   -0.659514    0.481738
      6          7           0       -2.186233   -0.551888    0.014886
      7          6           0       -1.906991   -1.905750    0.277377
      8          6           0       -0.419726   -2.255195    0.264258
      9          6           0        0.180150   -0.786046    0.312846
     10          6           0       -1.043809    0.109334   -0.148437
     11          6           0        0.706161   -0.421677    1.726897
     12          6           0       -0.040264   -3.064563   -1.027534
     13          6           0        0.960369   -4.227770   -0.784712
     14          6           0        2.104007   -4.389973   -1.842491
     15          8           0        1.921983   -4.770434   -2.956604
     16          8           0        3.349597   -4.154004   -1.302498
     17          7           0       -3.240979    2.190349   -0.664971
     18          6           0       -1.899000    2.388103   -0.735807
     19          6           0       -1.693756    3.694097   -1.284336
     20          6           0       -2.983002    4.344938   -1.414371
     21          6           0       -3.924733    3.323849   -0.980205
     22          6           0       -0.347720    4.185772   -1.752083
     23          6           0       -3.388301    5.711458   -1.965499
     24          8           0       -4.584177    6.111459   -1.957932
     25          6           0       -2.398907    6.695117   -2.450785
     26          7           0       -6.113246    1.240969   -0.237717
     27          6           0       -6.350868    2.548864   -0.669394
     28          6           0       -7.811083    2.854458   -0.745954
     29          6           0       -8.514691    1.494892   -0.325073
     30          6           0       -7.237301    0.625635   -0.025334
     31          6           0       -8.252201    4.002853    0.182095
     32          6           0       -9.315321    0.852538   -1.445485
     33          6           0      -10.415830    1.613698   -2.169682
     34          7           0       -5.011461   -1.305606    0.491209
     35          6           0       -6.334666   -1.594237    0.730420
     36          6           0       -6.422826   -2.948779    1.231703
     37          6           0       -5.117203   -3.516788    1.184159
     38          6           0       -4.302923   -2.395427    0.749173
     39          6           0       -7.782199   -3.683364    1.668708
     40          6           0       -4.322407   -4.662263    1.393089
     41          8           0       -4.628635   -5.731154    1.901556
     42          6           0       -2.852373   -4.239633    0.938809
     43          6           0       -1.959125   -4.580575    2.070043
     44          8           0       -1.617121   -3.852141    2.991599
     45          8           0       -1.317304   -5.807444    1.788954
     46          6           0       -0.207523   -6.209346    2.716554
     47          6           0        4.390852   -4.154044   -2.297613
     48          6           0        5.700264   -3.864648   -1.708985
     49          6           0        6.952922   -3.782043   -2.291350
     50          6           0        7.236167   -4.048477   -3.741768
     51          6           0        8.243429   -3.464002   -1.517378
     52          6           0        9.005789   -2.213766   -1.809786
     53          6           0        9.837233   -1.540985   -0.644678
     54          6           0        9.485238    0.025688   -0.557679
     55          6           0       10.265295    0.729477   -1.695376
     56          6           0        9.656692    0.425180    0.931609
     57          6           0        8.589298    1.474678    1.362344
     58          6           0        9.168967    2.934955    1.318051
     59          6           0        8.093840    3.968490    0.871472
     60          6           0        8.826809    5.263982    0.423806
     61          6           0        6.980744    4.192775    1.960237
     62          6           0        5.615704    4.251259    1.226743
     63          6           0        4.708102    5.043922    2.177170
     64          6           0        3.949694    4.106459    3.160979
     65          6           0        2.930898    3.177255    2.487895
     66          6           0        3.334479    4.802694    4.380858
     67          1           0        0.151231    1.733234   -0.504232
     68          1           0       -5.759804    4.225419   -1.607688
     69          1           0       -8.405542   -1.055585    0.731672
     70          1           0       -0.056168   -2.800041    1.135737
     71          1           0        0.936715   -0.577173   -0.445157
     72          1           0        1.592851    0.207791    1.657128
     73          1           0        0.883085   -1.357153    2.257641
     74          1           0        0.101295    0.268859    2.315427
     75          1           0        0.371814   -2.325610   -1.714334
     76          1           0       -0.928776   -3.544245   -1.438916
     77          1           0        0.462713   -5.187006   -0.924045
     78          1           0        1.502581   -4.217615    0.161271
     79          1           0        0.341705    3.478670   -1.291637
     80          1           0       -0.243285    5.209983   -1.392173
     81          1           0       -0.249544    3.983223   -2.819131
     82          1           0       -1.744858    7.048938   -1.654411
     83          1           0       -3.005734    7.499083   -2.867857
     84          1           0       -1.775696    6.129263   -3.144156
     85          1           0       -8.079090    3.202479   -1.743364
     86          1           0       -9.146265    1.593485    0.557266
     87          1           0       -8.210968    4.853848   -0.496848
     88          1           0       -7.611723    4.231495    1.034291
     89          1           0       -9.314444    3.828768    0.352718
     90          1           0       -9.708999   -0.057428   -0.991472
     91          1           0       -8.611806    0.558119   -2.223975
     92          1           0      -11.360695    1.070676   -2.141766
     93          1           0      -10.044231    1.826592   -3.172250
     94          1           0      -10.647027    2.612459   -1.798908
     95          1           0       -8.067494   -4.635999    1.220897
     96          1           0       -8.653396   -3.044462    1.523871
     97          1           0       -7.763076   -4.006667    2.710196
     98          1           0       -2.541818   -4.943117    0.166121
     99          1           0        0.170878   -7.155983    2.328844
    100          1           0       -0.454893   -6.409781    3.758183
    101          1           0        0.614611   -5.493092    2.712487
    102          1           0        4.235909   -3.430766   -3.097955
    103          1           0        4.408399   -5.145280   -2.751875
    104          1           0        5.656244   -3.801508   -0.621195
    105          1           0        7.842951   -4.953419   -3.770698
    106          1           0        7.833147   -3.240865   -4.164442
    107          1           0        6.289267   -4.205959   -4.257980
    108          1           0        8.887655   -4.343178   -1.496676
    109          1           0        7.996663   -3.339149   -0.463380
    110          1           0        8.249727   -1.613598   -2.317192
    111          1           0        9.752785   -2.542518   -2.532592
    112          1           0       10.904220   -1.496126   -0.865692
    113          1           0        9.705587   -2.011236    0.329599
    114          1           0        8.438419    0.058504   -0.862354
    115          1           0        9.637587    1.363136   -2.321814
    116          1           0       10.706248    0.013505   -2.388104
    117          1           0       11.006732    1.416724   -1.287832
    118          1           0       10.621874    0.895622    1.117054
    119          1           0        9.537828   -0.416817    1.613468
    120          1           0        8.238711    1.208161    2.360014
    121          1           0        7.726649    1.426248    0.698418
    122          1           0        9.794275    2.923631    0.426242
    123          1           0        9.787651    3.164957    2.186001
    124          1           0        7.524889    3.507670    0.064436
    125          1           0        8.140261    6.037328    0.078983
    126          1           0        9.456286    5.066780   -0.443274
    127          1           0        9.317702    5.609461    1.333711
    128          1           0        7.127361    5.039061    2.629974
    129          1           0        6.963419    3.388671    2.696133
    130          1           0        5.188351    3.262597    1.055999
    131          1           0        5.608058    4.899376    0.349932
    132          1           0        4.017313    5.466573    1.447727
    133          1           0        5.236315    5.815247    2.737864
    134          1           0        4.694911    3.496089    3.671083
    135          1           0        2.948399    2.232722    3.031461
    136          1           0        3.063666    3.116316    1.408236
    137          1           0        1.959092    3.635540    2.672484
    138          1           0        3.927296    4.467868    5.232387
    139          1           0        2.310468    4.612027    4.702087
    140          1           0        3.349107    5.882072    4.235320
 ---------------------------------------------------------------------

 SCF Done:  E(RPBE1PBE) =  -3005.36325552     A.U. after   15 cycles

 Excitation energies and oscillator strengths:

 Excited State   1:      Singlet-A      1.8825 eV  658.60 nm  f=0.3797  <S**2>=0.000
     245 -> 248        0.17257
     246 -> 247        0.69269
     246 <- 247       -0.10768
 This state for optimization and/or second-order correction.
 Total Energy, E(TD-HF/TD-DFT) =  -3005.29407325
 Copying the excited state density for this state as the 1-particle RhoCI density.

 Excited State   2:      Singlet-A      2.2528 eV  550.37 nm  f=0.1345  <S**2>=0.000
     245 -> 247        0.65726
     246 -> 248       -0.24628

 Excited State   3:      Singlet-A      2.9533 eV  419.81 nm  f=0.0001  <S**2>=0.000
     240 -> 247       -0.19379
     241 -> 247        0.56340
     241 -> 249       -0.13705
     243 -> 247       -0.31765

 Excited State   4:      Singlet-A      2.9761 eV  416.60 nm  f=0.0003  <S**2>=0.000
     240 -> 247       -0.12622
     241 -> 247        0.26858
     242 -> 247        0.17205
     243 -> 247        0.57880
     243 -> 249        0.11812

 Excited State   5:      Singlet-A      3.0866 eV  401.68 nm  f=0.0040  <S**2>=0.000
     242 -> 247        0.66466
     243 -> 247       -0.16651

 The electronic state is 1-A.
 Alpha  occ. eigenvalues --  -46.91391 -19.26168 -19.25452 -19.20538 -19.20369
 Alpha  occ. eigenvalues --  -19.19390 -19.18625 -14.41915 -14.41409 -14.39298
 Alpha  occ. eigenvalues --  -14.39284 -10.36465 -10.36457 -10.32298 -10.32241
 Alpha  occ. eigenvalues --  -10.29572 -10.29212 -10.29099 -10.28553 -10.28312
 Alpha  occ. eigenvalues --  -10.28205 -10.28141 -10.27989 -10.27416 -10.27163
 Alpha  occ. eigenvalues --  -10.26624 -10.26582 -10.26275 -10.26233 -10.25896
 Alpha  occ. eigenvalues --  -10.25820 -10.25686 -10.25410 -10.25373 -10.25185
 Alpha  occ. eigenvalues --  -10.25162 -10.24801 -10.24734 -10.24691 -10.24460
 Alpha  occ. eigenvalues --  -10.24109 -10.23799 -10.23720 -10.23662 -10.23475
 Alpha  occ. eigenvalues --  -10.23417 -10.23350 -10.23317 -10.23297 -10.23261
 Alpha  occ. eigenvalues --  -10.23164 -10.23162 -10.23033 -10.22979 -10.22974
 Alpha  occ. eigenvalues --  -10.22818 -10.22603 -10.22481 -10.22360 -10.22293
 Alpha  occ. eigenvalues --  -10.22273 -10.22181 -10.22176 -10.22126 -10.22105
 Alpha  occ. eigenvalues --  -10.21544  -3.13723  -1.86571  -1.86093  -1.85969
 Alpha  occ. eigenvalues --   -1.12547  -1.09544  -1.04694  -1.04376  -1.02678
 Alpha  occ. eigenvalues --   -1.01713  -0.99678  -0.98833  -0.98517  -0.97513
 Alpha  occ. eigenvalues --   -0.87513  -0.84596  -0.84050  -0.83755  -0.83543
 Alpha  occ. eigenvalues --   -0.83338  -0.82870  -0.81814  -0.81447  -0.81172
 Alpha  occ. eigenvalues --   -0.80194  -0.79854  -0.78688  -0.78150  -0.77752
 Alpha  occ. eigenvalues --   -0.77183  -0.76568  -0.75802  -0.75405  -0.74966
 Alpha  occ. eigenvalues --   -0.74281  -0.72563  -0.72332  -0.71744  -0.70561
 Alpha  occ. eigenvalues --   -0.69956  -0.69779  -0.69599  -0.68908  -0.68427
 Alpha  occ. eigenvalues --   -0.67908  -0.67106  -0.66250  -0.64903  -0.63769
 Alpha  occ. eigenvalues --   -0.63475  -0.62109  -0.61749  -0.61165  -0.60411
 Alpha  occ. eigenvalues --   -0.59770  -0.59532  -0.59467  -0.58875  -0.58714
 Alpha  occ. eigenvalues --   -0.57946  -0.57233  -0.56648  -0.56334  -0.54712
 Alpha  occ. eigenvalues --   -0.54488  -0.54124  -0.53856  -0.53663  -0.52596
 Alpha  occ. eigenvalues --   -0.52003  -0.51327  -0.50885  -0.50590  -0.49975
 Alpha  occ. eigenvalues --   -0.49595  -0.49535  -0.49167  -0.48894  -0.48684
 Alpha  occ. eigenvalues --   -0.48600  -0.48339  -0.48033  -0.47586  -0.47497
 Alpha  occ. eigenvalues --   -0.47262  -0.47130  -0.46992  -0.46867  -0.46685
 Alpha  occ. eigenvalues --   -0.46585  -0.46072  -0.45861  -0.45676  -0.45297
 Alpha  occ. eigenvalues --   -0.45192  -0.44773  -0.44509  -0.44342  -0.44136
 Alpha  occ. eigenvalues --   -0.44087  -0.43872  -0.43808  -0.43610  -0.43346
 Alpha  occ. eigenvalues --   -0.43278  -0.43187  -0.42822  -0.42752  -0.42462
 Alpha  occ. eigenvalues --   -0.42178  -0.42075  -0.42010  -0.41716  -0.41446
 Alpha  occ. eigenvalues --   -0.41385  -0.40993  -0.40802  -0.40735  -0.40589
 Alpha  occ. eigenvalues --   -0.40398  -0.40351  -0.40034  -0.39915  -0.39740
 Alpha  occ. eigenvalues --   -0.39576  -0.39410  -0.39383  -0.39040  -0.38901
 Alpha  occ. eigenvalues --   -0.38792  -0.38521  -0.38310  -0.38266  -0.37786
 Alpha  occ. eigenvalues --   -0.37734  -0.37529  -0.37449  -0.37405  -0.37288
 Alpha  occ. eigenvalues --   -0.37062  -0.36790  -0.36679  -0.36474  -0.36466
 Alpha  occ. eigenvalues --   -0.35689  -0.35481  -0.35395  -0.35024  -0.34626
 Alpha  occ. eigenvalues --   -0.34532  -0.34515  -0.34343  -0.33766  -0.33636
 Alpha  occ. eigenvalues --   -0.33391  -0.33345  -0.33244  -0.32764  -0.32612
 Alpha  occ. eigenvalues --   -0.32540  -0.32382  -0.32015  -0.31645  -0.31548
 Alpha  occ. eigenvalues --   -0.31472  -0.30978  -0.29797  -0.29365  -0.29259
 Alpha  occ. eigenvalues --   -0.29040  -0.28733  -0.27951  -0.27312  -0.26244
 Alpha  occ. eigenvalues --   -0.25877  -0.25646  -0.25339  -0.24622  -0.21221
 Alpha  occ. eigenvalues --   -0.19172
 Alpha virt. eigenvalues --   -0.11484  -0.05378  -0.04454  -0.02191  -0.00383
 Alpha virt. eigenvalues --    0.00196   0.00847   0.00981   0.01666   0.03144
 Alpha virt. eigenvalues --    0.03460   0.04234   0.04866   0.05436   0.05642

 Mulliken charges:
               1
     1  Mg   1.006620
     2  C   -0.011401
     3  C   -0.077129
     4  C   -0.052809
     5  C   -0.064714
     6  N   -0.360321
     7  C    0.056204
     8  C   -0.135557
     9  C   -0.142128
    10  C    0.054877
    11  C    0.026906
    12  C    0.056546
    13  C   -0.017050
    14  C    0.177181
    15  O   -0.237963
    16  O   -0.363316
    17  N   -0.544214
    18  C    0.203915
    19  C   -0.218428
    20  C   -0.058889
    21  C    0.161488
    22  C    0.068587
    23  C    0.047413
    24  O   -0.284256
    25  C   -0.013452
    26  N   -0.405361
    27  C    0.070228
    28  C   -0.120850
    29  C   -0.093084
    30  C    0.099184
    31  C    0.018921
    32  C   -0.050174
    33  C   -0.045661
    34  N   -0.434886
    35  C    0.114317
    36  C   -0.152722
    37  C   -0.000529
    38  C    0.163820
    39  C    0.043649
    40  C    0.104530
    41  O   -0.210362
    42  C   -0.162242
    43  C    0.308001
    44  O   -0.255702
    45  O   -0.402315
    46  C    0.127736
    47  C    0.242498
    48  C   -0.140878
    49  C   -0.247719
    50  C    0.038570
    51  C    0.012309
    52  C   -0.053639
    53  C   -0.028633
    54  C   -0.226820
    55  C   -0.004672
    56  C    0.015639
    57  C   -0.054985
    58  C   -0.028957
    59  C   -0.199099
    60  C    0.000774
    61  C   -0.006600
    62  C   -0.057966
    63  C   -0.023739
    64  C   -0.244468
    65  C   -0.020695
    66  C   -0.022638
    67  H    0.004537
    68  H    0.040578
    69  H    0.008988
    70  H    0.076088
    71  H    0.036199
    72  H    0.038551
    73  H    0.055606
    74  H    0.050947
    75  H    0.052342
    76  H    0.059406
    77  H    0.070225
    78  H    0.055026
    79  H    0.024993
    80  H    0.061317
    81  H    0.070636
    82  H    0.071125
    83  H    0.065861
    84  H    0.053447
    85  H    0.050247
    86  H    0.044124
    87  H    0.040536
    88  H    0.062048
    89  H    0.040497
    90  H    0.037046
    91  H    0.039928
    92  H    0.050282
    93  H    0.044231
    94  H    0.030973
    95  H    0.055315
    96  H    0.026695
    97  H    0.058095
    98  H    0.087185
    99  H    0.055839
   100  H    0.064629
   101  H    0.050433
   102  H    0.057914
   103  H    0.059359
   104  H    0.031742
   105  H    0.050221
   106  H    0.048068
   107  H    0.038300
   108  H    0.034258
   109  H    0.009708
   110  H    0.044820
   111  H    0.031096
   112  H    0.033676
   113  H    0.030947
   114  H    0.040232
   115  H    0.029457
   116  H    0.040025
   117  H    0.038658
   118  H    0.030782
   119  H    0.024991
   120  H    0.027748
   121  H    0.023181
   122  H    0.021078
   123  H    0.036575
   124  H    0.031916
   125  H    0.024853
   126  H    0.039383
   127  H    0.041480
   128  H    0.014603
   129  H    0.023683
   130  H    0.043876
   131  H    0.037433
   132  H    0.013291
   133  H    0.033108
   134  H    0.029893
   135  H    0.047475
   136  H    0.032723
   137  H    0.032799
   138  H    0.031089
   139  H    0.030649
   140  H    0.032054
 Sum of Mulliken charges =  -0.00000

 Dipole moment (field-independent basis, Debye):
    X=              3.1039    Y=              2.3272    Z=             -1.4688  Tot=              4.1482
 Quadrupole moment (field-independent basis, Debye-Ang):
   XX=           -358.8986   YY=           -433.0424   ZZ=           -409.9873
   XY=            -10.2708   XZ=              5.9304   YZ=              0.6623

 Normal termination of Gaussian 16 at Wed May  4 07:17:55 2022.
