 Gaussian 16, Revision A.03,
 Gaussian 16:  ES64L-G16RevA.03 25-Dec-2016

 --------------------------------
 #p wB97XD/Def2SVP td=(nstates=5)
 --------------------------------

 -----------------------------------------------------
 step_1501_chromophore_12 TDDFT with wB97XD functional
 -----------------------------------------------------
 Symbolic Z-matrix:
 Charge =  0 Multiplicity = 1

                         Standard orientation:
 ---------------------------------------------------------------------
 Center     Atomic      Atomic             Coordinates (Angstroms)
 Number     Number       Type             X           Y           Z
 ---------------------------------------------------------------------
      1         12           0       -4.168857    0.514773   -0.182005
      2          6           0       -3.006180   -2.738147    0.629469
      3          6           0       -0.899287    1.456250   -0.398704
      4          6           0       -5.342892    3.418142   -1.002568
      5          6           0       -7.420097   -0.659514    0.481738
      6          7           0       -2.186233   -0.551888    0.014886
      7          6           0       -1.906991   -1.905750    0.277377
      8          6           0       -0.419726   -2.255195    0.264258
      9          6           0        0.180150   -0.786046    0.312846
     10          6           0       -1.043809    0.109334   -0.148437
     11          6           0        0.706161   -0.421677    1.726897
     12          6           0       -0.040264   -3.064563   -1.027534
     13          6           0        0.960369   -4.227770   -0.784712
     14          6           0        2.104007   -4.389973   -1.842491
     15          8           0        1.921983   -4.770434   -2.956604
     16          8           0        3.349597   -4.154004   -1.302498
     17          7           0       -3.240979    2.190349   -0.664971
     18          6           0       -1.899000    2.388103   -0.735807
     19          6           0       -1.693756    3.694097   -1.284336
     20          6           0       -2.983002    4.344938   -1.414371
     21          6           0       -3.924733    3.323849   -0.980205
     22          6           0       -0.347720    4.185772   -1.752083
     23          6           0       -3.388301    5.711458   -1.965499
     24          8           0       -4.584177    6.111459   -1.957932
     25          6           0       -2.398907    6.695117   -2.450785
     26          7           0       -6.113246    1.240969   -0.237717
     27          6           0       -6.350868    2.548864   -0.669394
     28          6           0       -7.811083    2.854458   -0.745954
     29          6           0       -8.514691    1.494892   -0.325073
     30          6           0       -7.237301    0.625635   -0.025334
     31          6           0       -8.252201    4.002853    0.182095
     32          6           0       -9.315321    0.852538   -1.445485
     33          6           0      -10.415830    1.613698   -2.169682
     34          7           0       -5.011461   -1.305606    0.491209
     35          6           0       -6.334666   -1.594237    0.730420
     36          6           0       -6.422826   -2.948779    1.231703
     37          6           0       -5.117203   -3.516788    1.184159
     38          6           0       -4.302923   -2.395427    0.749173
     39          6           0       -7.782199   -3.683364    1.668708
     40          6           0       -4.322407   -4.662263    1.393089
     41          8           0       -4.628635   -5.731154    1.901556
     42          6           0       -2.852373   -4.239633    0.938809
     43          6           0       -1.959125   -4.580575    2.070043
     44          8           0       -1.617121   -3.852141    2.991599
     45          8           0       -1.317304   -5.807444    1.788954
     46          6           0       -0.207523   -6.209346    2.716554
     47          6           0        4.390852   -4.154044   -2.297613
     48          6           0        5.700264   -3.864648   -1.708985
     49          6           0        6.952922   -3.782043   -2.291350
     50          6           0        7.236167   -4.048477   -3.741768
     51          6           0        8.243429   -3.464002   -1.517378
     52          6           0        9.005789   -2.213766   -1.809786
     53          6           0        9.837233   -1.540985   -0.644678
     54          6           0        9.485238    0.025688   -0.557679
     55          6           0       10.265295    0.729477   -1.695376
     56          6           0        9.656692    0.425180    0.931609
     57          6           0        8.589298    1.474678    1.362344
     58          6           0        9.168967    2.934955    1.318051
     59          6           0        8.093840    3.968490    0.871472
     60          6           0        8.826809    5.263982    0.423806
     61          6           0        6.980744    4.192775    1.960237
     62          6           0        5.615704    4.251259    1.226743
     63          6           0        4.708102    5.043922    2.177170
     64          6           0        3.949694    4.106459    3.160979
     65          6           0        2.930898    3.177255    2.487895
     66          6           0        3.334479    4.802694    4.380858
     67          1           0        0.151231    1.733234   -0.504232
     68          1           0       -5.759804    4.225419   -1.607688
     69          1           0       -8.405542   -1.055585    0.731672
     70          1           0       -0.056168   -2.800041    1.135737
     71          1           0        0.936715   -0.577173   -0.445157
     72          1           0        1.592851    0.207791    1.657128
     73          1           0        0.883085   -1.357153    2.257641
     74          1           0        0.101295    0.268859    2.315427
     75          1           0        0.371814   -2.325610   -1.714334
     76          1           0       -0.928776   -3.544245   -1.438916
     77          1           0        0.462713   -5.187006   -0.924045
     78          1           0        1.502581   -4.217615    0.161271
     79          1           0        0.341705    3.478670   -1.291637
     80          1           0       -0.243285    5.209983   -1.392173
     81          1           0       -0.249544    3.983223   -2.819131
     82          1           0       -1.744858    7.048938   -1.654411
     83          1           0       -3.005734    7.499083   -2.867857
     84          1           0       -1.775696    6.129263   -3.144156
     85          1           0       -8.079090    3.202479   -1.743364
     86          1           0       -9.146265    1.593485    0.557266
     87          1           0       -8.210968    4.853848   -0.496848
     88          1           0       -7.611723    4.231495    1.034291
     89          1           0       -9.314444    3.828768    0.352718
     90          1           0       -9.708999   -0.057428   -0.991472
     91          1           0       -8.611806    0.558119   -2.223975
     92          1           0      -11.360695    1.070676   -2.141766
     93          1           0      -10.044231    1.826592   -3.172250
     94          1           0      -10.647027    2.612459   -1.798908
     95          1           0       -8.067494   -4.635999    1.220897
     96          1           0       -8.653396   -3.044462    1.523871
     97          1           0       -7.763076   -4.006667    2.710196
     98          1           0       -2.541818   -4.943117    0.166121
     99          1           0        0.170878   -7.155983    2.328844
    100          1           0       -0.454893   -6.409781    3.758183
    101          1           0        0.614611   -5.493092    2.712487
    102          1           0        4.235909   -3.430766   -3.097955
    103          1           0        4.408399   -5.145280   -2.751875
    104          1           0        5.656244   -3.801508   -0.621195
    105          1           0        7.842951   -4.953419   -3.770698
    106          1           0        7.833147   -3.240865   -4.164442
    107          1           0        6.289267   -4.205959   -4.257980
    108          1           0        8.887655   -4.343178   -1.496676
    109          1           0        7.996663   -3.339149   -0.463380
    110          1           0        8.249727   -1.613598   -2.317192
    111          1           0        9.752785   -2.542518   -2.532592
    112          1           0       10.904220   -1.496126   -0.865692
    113          1           0        9.705587   -2.011236    0.329599
    114          1           0        8.438419    0.058504   -0.862354
    115          1           0        9.637587    1.363136   -2.321814
    116          1           0       10.706248    0.013505   -2.388104
    117          1           0       11.006732    1.416724   -1.287832
    118          1           0       10.621874    0.895622    1.117054
    119          1           0        9.537828   -0.416817    1.613468
    120          1           0        8.238711    1.208161    2.360014
    121          1           0        7.726649    1.426248    0.698418
    122          1           0        9.794275    2.923631    0.426242
    123          1           0        9.787651    3.164957    2.186001
    124          1           0        7.524889    3.507670    0.064436
    125          1           0        8.140261    6.037328    0.078983
    126          1           0        9.456286    5.066780   -0.443274
    127          1           0        9.317702    5.609461    1.333711
    128          1           0        7.127361    5.039061    2.629974
    129          1           0        6.963419    3.388671    2.696133
    130          1           0        5.188351    3.262597    1.055999
    131          1           0        5.608058    4.899376    0.349932
    132          1           0        4.017313    5.466573    1.447727
    133          1           0        5.236315    5.815247    2.737864
    134          1           0        4.694911    3.496089    3.671083
    135          1           0        2.948399    2.232722    3.031461
    136          1           0        3.063666    3.116316    1.408236
    137          1           0        1.959092    3.635540    2.672484
    138          1           0        3.927296    4.467868    5.232387
    139          1           0        2.310468    4.612027    4.702087
    140          1           0        3.349107    5.882072    4.235320
 ---------------------------------------------------------------------

 SCF Done:  E(RwB97XD) =  -3007.87137316     A.U. after   17 cycles

 Excitation energies and oscillator strengths:

 Excited State   1:      Singlet-A      1.6779 eV  738.94 nm  f=0.3932  <S**2>=0.000
     245 -> 248       -0.18069
     246 -> 247        0.68380
     245 <- 248       -0.11302
 This state for optimization and/or second-order correction.
 Total Energy, E(TD-HF/TD-DFT) =  -3007.80971259
 Copying the excited state density for this state as the 1-particle RhoCI density.

 Excited State   2:      Singlet-A      2.2015 eV  563.18 nm  f=0.1383  <S**2>=0.000
     245 -> 247        0.64538
     246 -> 248        0.27300

 Excited State   3:      Singlet-A      3.4156 eV  362.99 nm  f=0.0022  <S**2>=0.000
     240 -> 247        0.41912
     240 -> 248       -0.11848
     240 -> 249       -0.26127
     240 -> 250        0.14627
     241 -> 247        0.36149
     241 -> 249       -0.12851
     243 -> 247       -0.21745

 Excited State   4:      Singlet-A      3.4683 eV  357.48 nm  f=0.0010  <S**2>=0.000
     240 -> 247        0.27247
     240 -> 249       -0.12675
     241 -> 247       -0.10119
     243 -> 247        0.58974

 Excited State   5:      Singlet-A      3.5515 eV  349.11 nm  f=0.2269  <S**2>=0.000
     240 -> 247        0.24104
     241 -> 247       -0.37926
     243 -> 247       -0.11500
     245 -> 247       -0.15486
     246 -> 248        0.47090

 The electronic state is 1-A.
 Alpha  occ. eigenvalues --  -46.94319 -19.30742 -19.30144 -19.25249 -19.25238
 Alpha  occ. eigenvalues --  -19.24485 -19.23201 -14.47111 -14.46406 -14.44365
 Alpha  occ. eigenvalues --  -14.44093 -10.43455 -10.43233 -10.39415 -10.38875
 Alpha  occ. eigenvalues --  -10.36020 -10.35722 -10.35711 -10.34968 -10.34899
 Alpha  occ. eigenvalues --  -10.34341 -10.34276 -10.34115 -10.33905 -10.33444
 Alpha  occ. eigenvalues --  -10.33126 -10.32942 -10.32837 -10.32487 -10.32301
 Alpha  occ. eigenvalues --  -10.32096 -10.32082 -10.31874 -10.31592 -10.31549
 Alpha  occ. eigenvalues --  -10.31300 -10.31147 -10.31069 -10.30878 -10.30801
 Alpha  occ. eigenvalues --  -10.30740 -10.30080 -10.30078 -10.30056 -10.30044
 Alpha  occ. eigenvalues --  -10.29776 -10.29754 -10.29700 -10.29621 -10.29507
 Alpha  occ. eigenvalues --  -10.29501 -10.29415 -10.29412 -10.29370 -10.29256
 Alpha  occ. eigenvalues --  -10.29218 -10.28953 -10.28818 -10.28793 -10.28649
 Alpha  occ. eigenvalues --  -10.28633 -10.28557 -10.28533 -10.28502 -10.28498
 Alpha  occ. eigenvalues --  -10.27931  -3.20483  -1.94085  -1.93611  -1.93479
 Alpha  occ. eigenvalues --   -1.19919  -1.17110  -1.12437  -1.11717  -1.09979
 Alpha  occ. eigenvalues --   -1.09233  -1.07109  -1.06252  -1.05800  -1.04841
 Alpha  occ. eigenvalues --   -0.95308  -0.92285  -0.91706  -0.91422  -0.91064
 Alpha  occ. eigenvalues --   -0.90875  -0.90532  -0.89377  -0.89104  -0.88736
 Alpha  occ. eigenvalues --   -0.87890  -0.87526  -0.86343  -0.85863  -0.85366
 Alpha  occ. eigenvalues --   -0.84819  -0.84181  -0.83458  -0.83053  -0.82587
 Alpha  occ. eigenvalues --   -0.81945  -0.80190  -0.80000  -0.79368  -0.78291
 Alpha  occ. eigenvalues --   -0.77505  -0.77442  -0.77281  -0.76585  -0.76071
 Alpha  occ. eigenvalues --   -0.75512  -0.74735  -0.73754  -0.72536  -0.71327
 Alpha  occ. eigenvalues --   -0.71038  -0.69714  -0.69230  -0.68805  -0.67934
 Alpha  occ. eigenvalues --   -0.67151  -0.67071  -0.67007  -0.66354  -0.66238
 Alpha  occ. eigenvalues --   -0.65630  -0.64863  -0.64262  -0.63862  -0.62185
 Alpha  occ. eigenvalues --   -0.61920  -0.61619  -0.61253  -0.61043  -0.60014
 Alpha  occ. eigenvalues --   -0.59679  -0.58848  -0.58233  -0.58032  -0.57455
 Alpha  occ. eigenvalues --   -0.56966  -0.56950  -0.56558  -0.56366  -0.56168
 Alpha  occ. eigenvalues --   -0.56048  -0.55779  -0.55450  -0.54992  -0.54836
 Alpha  occ. eigenvalues --   -0.54581  -0.54460  -0.54348  -0.54259  -0.54127
 Alpha  occ. eigenvalues --   -0.53869  -0.53433  -0.53384  -0.53045  -0.52700
 Alpha  occ. eigenvalues --   -0.52509  -0.52043  -0.51839  -0.51667  -0.51493
 Alpha  occ. eigenvalues --   -0.51329  -0.51257  -0.51143  -0.50988  -0.50614
 Alpha  occ. eigenvalues --   -0.50575  -0.50466  -0.50104  -0.50027  -0.49721
 Alpha  occ. eigenvalues --   -0.49444  -0.49297  -0.49268  -0.48965  -0.48636
 Alpha  occ. eigenvalues --   -0.48607  -0.48180  -0.48107  -0.47996  -0.47833
 Alpha  occ. eigenvalues --   -0.47598  -0.47503  -0.47335  -0.47154  -0.46936
 Alpha  occ. eigenvalues --   -0.46771  -0.46686  -0.46578  -0.46095  -0.46050
 Alpha  occ. eigenvalues --   -0.45937  -0.45697  -0.45459  -0.45396  -0.44919
 Alpha  occ. eigenvalues --   -0.44764  -0.44680  -0.44599  -0.44473  -0.44381
 Alpha  occ. eigenvalues --   -0.44150  -0.43935  -0.43802  -0.43582  -0.43520
 Alpha  occ. eigenvalues --   -0.42687  -0.42504  -0.42486  -0.42024  -0.41719
 Alpha  occ. eigenvalues --   -0.41566  -0.41558  -0.41338  -0.40798  -0.40658
 Alpha  occ. eigenvalues --   -0.40416  -0.40294  -0.40245  -0.39869  -0.39558
 Alpha  occ. eigenvalues --   -0.39485  -0.39439  -0.39054  -0.38768  -0.38618
 Alpha  occ. eigenvalues --   -0.38310  -0.37939  -0.36642  -0.36425  -0.36149
 Alpha  occ. eigenvalues --   -0.36092  -0.35592  -0.34782  -0.33885  -0.33344
 Alpha  occ. eigenvalues --   -0.32845  -0.32455  -0.31865  -0.31359  -0.26202
 Alpha  occ. eigenvalues --   -0.23365
 Alpha virt. eigenvalues --   -0.07376   0.00119   0.01813   0.04251   0.06182
 Alpha virt. eigenvalues --    0.06759   0.06935   0.07496   0.08328   0.09561
 Alpha virt. eigenvalues --    0.10296   0.11010   0.11713   0.12156   0.12448

 Mulliken charges:
               1
     1  Mg   0.994492
     2  C   -0.015721
     3  C   -0.087831
     4  C   -0.071191
     5  C   -0.088963
     6  N   -0.326150
     7  C    0.021067
     8  C   -0.101969
     9  C   -0.112984
    10  C    0.032844
    11  C    0.036201
    12  C    0.062625
    13  C    0.000757
    14  C    0.167682
    15  O   -0.236481
    16  O   -0.362065
    17  N   -0.508150
    18  C    0.190529
    19  C   -0.208146
    20  C   -0.056318
    21  C    0.150989
    22  C    0.083130
    23  C    0.044911
    24  O   -0.280629
    25  C   -0.003578
    26  N   -0.371577
    27  C    0.059147
    28  C   -0.096067
    29  C   -0.068070
    30  C    0.088787
    31  C    0.028923
    32  C   -0.034358
    33  C   -0.032875
    34  N   -0.394454
    35  C    0.112144
    36  C   -0.154541
    37  C    0.003132
    38  C    0.156297
    39  C    0.055719
    40  C    0.090920
    41  O   -0.199292
    42  C   -0.123602
    43  C    0.282437
    44  O   -0.248305
    45  O   -0.401065
    46  C    0.142787
    47  C    0.253998
    48  C   -0.147874
    49  C   -0.232745
    50  C    0.051775
    51  C    0.029849
    52  C   -0.036586
    53  C   -0.007949
    54  C   -0.200993
    55  C    0.005799
    56  C    0.033138
    57  C   -0.038253
    58  C   -0.008858
    59  C   -0.162879
    60  C    0.014521
    61  C   -0.000963
    62  C   -0.038789
    63  C   -0.002019
    64  C   -0.215250
    65  C   -0.007731
    66  C   -0.013717
    67  H   -0.002655
    68  H    0.034706
    69  H    0.001304
    70  H    0.055378
    71  H    0.026492
    72  H    0.031250
    73  H    0.050342
    74  H    0.045212
    75  H    0.045484
    76  H    0.051375
    77  H    0.064785
    78  H    0.049063
    79  H    0.017235
    80  H    0.054529
    81  H    0.065515
    82  H    0.066569
    83  H    0.064380
    84  H    0.046677
    85  H    0.040503
    86  H    0.035899
    87  H    0.035032
    88  H    0.057740
    89  H    0.032249
    90  H    0.027531
    91  H    0.031213
    92  H    0.045736
    93  H    0.038753
    94  H    0.024272
    95  H    0.051968
    96  H    0.022263
    97  H    0.054211
    98  H    0.081205
    99  H    0.052882
   100  H    0.061394
   101  H    0.046181
   102  H    0.052385
   103  H    0.053947
   104  H    0.028827
   105  H    0.044278
   106  H    0.042208
   107  H    0.032847
   108  H    0.027277
   109  H   -0.001004
   110  H    0.033930
   111  H    0.022173
   112  H    0.023511
   113  H    0.021820
   114  H    0.024537
   115  H    0.024354
   116  H    0.033616
   117  H    0.032548
   118  H    0.020865
   119  H    0.017659
   120  H    0.020483
   121  H    0.010787
   122  H    0.002063
   123  H    0.030655
   124  H    0.016636
   125  H    0.018952
   126  H    0.034011
   127  H    0.033921
   128  H    0.005832
   129  H    0.013041
   130  H    0.032783
   131  H    0.028723
   132  H    0.004498
   133  H    0.023397
   134  H    0.015692
   135  H    0.041645
   136  H    0.026026
   137  H    0.025460
   138  H    0.025853
   139  H    0.025417
   140  H    0.026063
 Sum of Mulliken charges =  -0.00000

 Dipole moment (field-independent basis, Debye):
    X=              3.1016    Y=              1.8502    Z=             -1.3164  Tot=              3.8439
 Quadrupole moment (field-independent basis, Debye-Ang):
   XX=           -358.8450   YY=           -431.6715   ZZ=           -409.6693
   XY=             -7.8797   XZ=              5.1091   YZ=              0.1393

 Normal termination of Gaussian 16 at Wed May  4 07:45:38 2022.
