 Gaussian 16, Revision A.03,
 Gaussian 16:  ES64L-G16RevA.03 25-Dec-2016

 --------------------
 #p ZINDO=(nstates=5)
 --------------------

 ------------------------------
 step_1501_chromophore_12 ZINDO
 ------------------------------
 Symbolic Z-matrix:
 Charge =  0 Multiplicity = 1

                         Standard orientation:
 ---------------------------------------------------------------------
 Center     Atomic      Atomic             Coordinates (Angstroms)
 Number     Number       Type             X           Y           Z
 ---------------------------------------------------------------------
      1         12           0       -4.168857    0.514773   -0.182005
      2          6           0       -3.006180   -2.738147    0.629469
      3          6           0       -0.899287    1.456250   -0.398704
      4          6           0       -5.342892    3.418142   -1.002568
      5          6           0       -7.420097   -0.659514    0.481738
      6          7           0       -2.186233   -0.551888    0.014886
      7          6           0       -1.906991   -1.905750    0.277377
      8          6           0       -0.419726   -2.255195    0.264258
      9          6           0        0.180150   -0.786046    0.312846
     10          6           0       -1.043809    0.109334   -0.148437
     11          6           0        0.706161   -0.421677    1.726897
     12          6           0       -0.040264   -3.064563   -1.027534
     13          6           0        0.960369   -4.227770   -0.784712
     14          6           0        2.104007   -4.389973   -1.842491
     15          8           0        1.921983   -4.770434   -2.956604
     16          8           0        3.349597   -4.154004   -1.302498
     17          7           0       -3.240979    2.190349   -0.664971
     18          6           0       -1.899000    2.388103   -0.735807
     19          6           0       -1.693756    3.694097   -1.284336
     20          6           0       -2.983002    4.344938   -1.414371
     21          6           0       -3.924733    3.323849   -0.980205
     22          6           0       -0.347720    4.185772   -1.752083
     23          6           0       -3.388301    5.711458   -1.965499
     24          8           0       -4.584177    6.111459   -1.957932
     25          6           0       -2.398907    6.695117   -2.450785
     26          7           0       -6.113246    1.240969   -0.237717
     27          6           0       -6.350868    2.548864   -0.669394
     28          6           0       -7.811083    2.854458   -0.745954
     29          6           0       -8.514691    1.494892   -0.325073
     30          6           0       -7.237301    0.625635   -0.025334
     31          6           0       -8.252201    4.002853    0.182095
     32          6           0       -9.315321    0.852538   -1.445485
     33          6           0      -10.415830    1.613698   -2.169682
     34          7           0       -5.011461   -1.305606    0.491209
     35          6           0       -6.334666   -1.594237    0.730420
     36          6           0       -6.422826   -2.948779    1.231703
     37          6           0       -5.117203   -3.516788    1.184159
     38          6           0       -4.302923   -2.395427    0.749173
     39          6           0       -7.782199   -3.683364    1.668708
     40          6           0       -4.322407   -4.662263    1.393089
     41          8           0       -4.628635   -5.731154    1.901556
     42          6           0       -2.852373   -4.239633    0.938809
     43          6           0       -1.959125   -4.580575    2.070043
     44          8           0       -1.617121   -3.852141    2.991599
     45          8           0       -1.317304   -5.807444    1.788954
     46          6           0       -0.207523   -6.209346    2.716554
     47          6           0        4.390852   -4.154044   -2.297613
     48          6           0        5.700264   -3.864648   -1.708985
     49          6           0        6.952922   -3.782043   -2.291350
     50          6           0        7.236167   -4.048477   -3.741768
     51          6           0        8.243429   -3.464002   -1.517378
     52          6           0        9.005789   -2.213766   -1.809786
     53          6           0        9.837233   -1.540985   -0.644678
     54          6           0        9.485238    0.025688   -0.557679
     55          6           0       10.265295    0.729477   -1.695376
     56          6           0        9.656692    0.425180    0.931609
     57          6           0        8.589298    1.474678    1.362344
     58          6           0        9.168967    2.934955    1.318051
     59          6           0        8.093840    3.968490    0.871472
     60          6           0        8.826809    5.263982    0.423806
     61          6           0        6.980744    4.192775    1.960237
     62          6           0        5.615704    4.251259    1.226743
     63          6           0        4.708102    5.043922    2.177170
     64          6           0        3.949694    4.106459    3.160979
     65          6           0        2.930898    3.177255    2.487895
     66          6           0        3.334479    4.802694    4.380858
     67          1           0        0.151231    1.733234   -0.504232
     68          1           0       -5.759804    4.225419   -1.607688
     69          1           0       -8.405542   -1.055585    0.731672
     70          1           0       -0.056168   -2.800041    1.135737
     71          1           0        0.936715   -0.577173   -0.445157
     72          1           0        1.592851    0.207791    1.657128
     73          1           0        0.883085   -1.357153    2.257641
     74          1           0        0.101295    0.268859    2.315427
     75          1           0        0.371814   -2.325610   -1.714334
     76          1           0       -0.928776   -3.544245   -1.438916
     77          1           0        0.462713   -5.187006   -0.924045
     78          1           0        1.502581   -4.217615    0.161271
     79          1           0        0.341705    3.478670   -1.291637
     80          1           0       -0.243285    5.209983   -1.392173
     81          1           0       -0.249544    3.983223   -2.819131
     82          1           0       -1.744858    7.048938   -1.654411
     83          1           0       -3.005734    7.499083   -2.867857
     84          1           0       -1.775696    6.129263   -3.144156
     85          1           0       -8.079090    3.202479   -1.743364
     86          1           0       -9.146265    1.593485    0.557266
     87          1           0       -8.210968    4.853848   -0.496848
     88          1           0       -7.611723    4.231495    1.034291
     89          1           0       -9.314444    3.828768    0.352718
     90          1           0       -9.708999   -0.057428   -0.991472
     91          1           0       -8.611806    0.558119   -2.223975
     92          1           0      -11.360695    1.070676   -2.141766
     93          1           0      -10.044231    1.826592   -3.172250
     94          1           0      -10.647027    2.612459   -1.798908
     95          1           0       -8.067494   -4.635999    1.220897
     96          1           0       -8.653396   -3.044462    1.523871
     97          1           0       -7.763076   -4.006667    2.710196
     98          1           0       -2.541818   -4.943117    0.166121
     99          1           0        0.170878   -7.155983    2.328844
    100          1           0       -0.454893   -6.409781    3.758183
    101          1           0        0.614611   -5.493092    2.712487
    102          1           0        4.235909   -3.430766   -3.097955
    103          1           0        4.408399   -5.145280   -2.751875
    104          1           0        5.656244   -3.801508   -0.621195
    105          1           0        7.842951   -4.953419   -3.770698
    106          1           0        7.833147   -3.240865   -4.164442
    107          1           0        6.289267   -4.205959   -4.257980
    108          1           0        8.887655   -4.343178   -1.496676
    109          1           0        7.996663   -3.339149   -0.463380
    110          1           0        8.249727   -1.613598   -2.317192
    111          1           0        9.752785   -2.542518   -2.532592
    112          1           0       10.904220   -1.496126   -0.865692
    113          1           0        9.705587   -2.011236    0.329599
    114          1           0        8.438419    0.058504   -0.862354
    115          1           0        9.637587    1.363136   -2.321814
    116          1           0       10.706248    0.013505   -2.388104
    117          1           0       11.006732    1.416724   -1.287832
    118          1           0       10.621874    0.895622    1.117054
    119          1           0        9.537828   -0.416817    1.613468
    120          1           0        8.238711    1.208161    2.360014
    121          1           0        7.726649    1.426248    0.698418
    122          1           0        9.794275    2.923631    0.426242
    123          1           0        9.787651    3.164957    2.186001
    124          1           0        7.524889    3.507670    0.064436
    125          1           0        8.140261    6.037328    0.078983
    126          1           0        9.456286    5.066780   -0.443274
    127          1           0        9.317702    5.609461    1.333711
    128          1           0        7.127361    5.039061    2.629974
    129          1           0        6.963419    3.388671    2.696133
    130          1           0        5.188351    3.262597    1.055999
    131          1           0        5.608058    4.899376    0.349932
    132          1           0        4.017313    5.466573    1.447727
    133          1           0        5.236315    5.815247    2.737864
    134          1           0        4.694911    3.496089    3.671083
    135          1           0        2.948399    2.232722    3.031461
    136          1           0        3.063666    3.116316    1.408236
    137          1           0        1.959092    3.635540    2.672484
    138          1           0        3.927296    4.467868    5.232387
    139          1           0        2.310468    4.612027    4.702087
    140          1           0        3.349107    5.882072    4.235320
 ---------------------------------------------------------------------

 SCF Done:  E(RZINDO/S) =  -474.313067839     A.U. after   19 cycles

 Excitation energies and oscillator strengths:

 Excited State   1:      Singlet-A      1.2649 eV  980.23 nm  f=0.6087  <S**2>=0.000
     175 ->178         0.16501
     176 ->177         0.66558
 This state for optimization and/or second-order correction.
 Total Energy, E(CIS/TDA) =  -474.266585379
 Copying the excited state density for this state as the 1-particle RhoCI density.

 Excited State   2:      Singlet-A      1.9440 eV  637.79 nm  f=0.0648  <S**2>=0.000
     175 ->177         0.55432
     176 ->178        -0.38749
     176 ->179         0.14192

 Excited State   3:      Singlet-A      2.8840 eV  429.91 nm  f=0.0487  <S**2>=0.000
     168 ->177         0.36777
     168 ->178        -0.26372
     168 ->179        -0.30459
     168 ->180         0.11397
     168 ->181        -0.16488
     168 ->186        -0.17111
     168 ->195         0.10019
     176 ->178         0.17069
     176 ->179         0.10560

 Excited State   4:      Singlet-A      2.9159 eV  425.20 nm  f=0.3897  <S**2>=0.000
     168 ->177        -0.14098
     168 ->179         0.10270
     170 ->179         0.12967
     170 ->180         0.11657
     175 ->177         0.24603
     176 ->178         0.45894
     176 ->179         0.26718

 Excited State   5:      Singlet-A      2.9347 eV  422.48 nm  f=0.0537  <S**2>=0.000
     169 ->179         0.10789
     170 ->177         0.20440
     170 ->179         0.27834
     170 ->180         0.30661
     170 ->181        -0.22416
     170 ->186         0.17124
     170 ->187        -0.10068
     170 ->188         0.11860
     176 ->178        -0.18433
     176 ->179        -0.16989

 The electronic state is 1-A.
 Alpha  occ. eigenvalues --   -1.84865  -1.82353  -1.80872  -1.75196  -1.71236
 Alpha  occ. eigenvalues --   -1.70587  -1.65557  -1.61379  -1.58468  -1.57177
 Alpha  occ. eigenvalues --   -1.55785  -1.51664  -1.49019  -1.48903  -1.48172
 Alpha  occ. eigenvalues --   -1.44425  -1.43733  -1.41099  -1.39012  -1.38943
 Alpha  occ. eigenvalues --   -1.35647  -1.33362  -1.32227  -1.30812  -1.28790
 Alpha  occ. eigenvalues --   -1.28424  -1.25219  -1.21803  -1.21115  -1.19013
 Alpha  occ. eigenvalues --   -1.18190  -1.15874  -1.15567  -1.14742  -1.14529
 Alpha  occ. eigenvalues --   -1.12474  -1.10694  -1.09580  -1.05512  -1.04231
 Alpha  occ. eigenvalues --   -1.02820  -1.01867  -0.99289  -0.98214  -0.96131
 Alpha  occ. eigenvalues --   -0.95274  -0.93708  -0.93091  -0.92229  -0.92148
 Alpha  occ. eigenvalues --   -0.91400  -0.89303  -0.88037  -0.87617  -0.86832
 Alpha  occ. eigenvalues --   -0.85902  -0.85641  -0.84051  -0.82573  -0.80732
 Alpha  occ. eigenvalues --   -0.79972  -0.78955  -0.77444  -0.77061  -0.76101
 Alpha  occ. eigenvalues --   -0.75636  -0.75014  -0.74551  -0.73921  -0.73667
 Alpha  occ. eigenvalues --   -0.73374  -0.72313  -0.71847  -0.71170  -0.70661
 Alpha  occ. eigenvalues --   -0.69995  -0.69271  -0.68807  -0.68526  -0.68205
 Alpha  occ. eigenvalues --   -0.67292  -0.67006  -0.66669  -0.66352  -0.65507
 Alpha  occ. eigenvalues --   -0.65492  -0.64724  -0.64544  -0.64195  -0.63714
 Alpha  occ. eigenvalues --   -0.63034  -0.62701  -0.62115  -0.61920  -0.61560
 Alpha  occ. eigenvalues --   -0.60994  -0.60817  -0.60266  -0.60127  -0.60031
 Alpha  occ. eigenvalues --   -0.59448  -0.59095  -0.58703  -0.58611  -0.58263
 Alpha  occ. eigenvalues --   -0.58073  -0.57765  -0.57195  -0.57119  -0.56633
 Alpha  occ. eigenvalues --   -0.56506  -0.56121  -0.55623  -0.55327  -0.55051
 Alpha  occ. eigenvalues --   -0.54486  -0.54295  -0.54079  -0.53727  -0.53195
 Alpha  occ. eigenvalues --   -0.52635  -0.52515  -0.52308  -0.52182  -0.51468
 Alpha  occ. eigenvalues --   -0.51354  -0.51267  -0.50998  -0.50629  -0.50269
 Alpha  occ. eigenvalues --   -0.49984  -0.49745  -0.49603  -0.49390  -0.48892
 Alpha  occ. eigenvalues --   -0.48813  -0.48650  -0.48290  -0.48174  -0.48080
 Alpha  occ. eigenvalues --   -0.48000  -0.47247  -0.47098  -0.46915  -0.46859
 Alpha  occ. eigenvalues --   -0.46418  -0.46274  -0.46098  -0.45863  -0.45516
 Alpha  occ. eigenvalues --   -0.45380  -0.44873  -0.44673  -0.44320  -0.43808
 Alpha  occ. eigenvalues --   -0.43659  -0.43232  -0.43124  -0.42866  -0.42556
 Alpha  occ. eigenvalues --   -0.41825  -0.41535  -0.40181  -0.39443  -0.39071
 Alpha  occ. eigenvalues --   -0.38741  -0.37134  -0.36009  -0.35033  -0.34312
 Alpha  occ. eigenvalues --   -0.33962  -0.32859  -0.31910  -0.31484  -0.26883
 Alpha  occ. eigenvalues --   -0.22119
 Alpha virt. eigenvalues --   -0.08849  -0.02397  -0.00865   0.00999   0.01755
 Alpha virt. eigenvalues --    0.02267   0.03078   0.03391   0.04384   0.04665
 Alpha virt. eigenvalues --    0.06136   0.06509   0.07061   0.07384   0.08223

 Mulliken charges:
               1
     1  Mg   0.425339
     2  C   -0.034719
     3  C   -0.064405
     4  C   -0.063687
     5  C   -0.095760
     6  N   -0.279355
     7  C    0.134792
     8  C    0.005335
     9  C   -0.004654
    10  C    0.103205
    11  C   -0.052295
    12  C   -0.015542
    13  C   -0.001967
    14  C    0.458143
    15  O   -0.506411
    16  O   -0.270652
    17  N   -0.307359
    18  C    0.086894
    19  C   -0.010000
    20  C   -0.073998
    21  C    0.133768
    22  C   -0.052893
    23  C    0.324451
    24  O   -0.553843
    25  C   -0.028696
    26  N   -0.263370
    27  C    0.115727
    28  C    0.005842
    29  C   -0.004996
    30  C    0.168464
    31  C   -0.056240
    32  C   -0.023336
    33  C   -0.056718
    34  N   -0.320430
    35  C    0.120723
    36  C    0.039236
    37  C   -0.046177
    38  C    0.141120
    39  C   -0.051361
    40  C    0.339974
    41  O   -0.509749
    42  C    0.046415
    43  C    0.485834
    44  O   -0.517621
    45  O   -0.280978
    46  C    0.074562
    47  C    0.118151
    48  C   -0.087919
    49  C   -0.021375
    50  C   -0.043493
    51  C   -0.020414
    52  C   -0.030840
    53  C   -0.046320
    54  C   -0.017692
    55  C   -0.053176
    56  C   -0.031174
    57  C   -0.045790
    58  C   -0.042822
    59  C   -0.017944
    60  C   -0.057129
    61  C   -0.039687
    62  C   -0.041899
    63  C   -0.038818
    64  C   -0.012972
    65  C   -0.056133
    66  C   -0.061882
    67  H    0.025322
    68  H    0.044989
    69  H    0.035911
    70  H    0.048454
    71  H    0.026075
    72  H    0.014999
    73  H    0.029302
    74  H    0.029352
    75  H    0.035476
    76  H    0.030182
    77  H    0.044505
    78  H    0.038407
    79  H    0.022366
    80  H    0.036106
    81  H    0.037493
    82  H    0.041399
    83  H    0.046932
    84  H    0.033072
    85  H    0.038222
    86  H    0.037001
    87  H    0.016473
    88  H    0.039717
    89  H    0.020642
    90  H    0.013562
    91  H    0.018909
    92  H    0.023293
    93  H    0.020514
    94  H    0.016867
    95  H    0.036458
    96  H    0.019492
    97  H    0.033922
    98  H    0.064627
    99  H    0.027266
   100  H    0.052002
   101  H    0.038559
   102  H    0.049382
   103  H    0.050139
   104  H    0.026591
   105  H    0.030338
   106  H    0.029648
   107  H    0.022285
   108  H    0.021609
   109  H    0.004600
   110  H    0.029621
   111  H    0.010510
   112  H    0.020255
   113  H    0.025612
   114  H    0.019994
   115  H    0.012528
   116  H    0.023513
   117  H    0.019402
   118  H    0.021698
   119  H    0.021416
   120  H    0.013983
   121  H    0.020472
   122  H    0.009004
   123  H    0.033410
   124  H    0.021872
   125  H    0.011451
   126  H    0.022616
   127  H    0.026137
   128  H    0.023637
   129  H    0.015543
   130  H    0.032519
   131  H    0.022083
   132  H    0.009356
   133  H    0.026511
   134  H    0.013170
   135  H    0.022369
   136  H    0.022611
   137  H    0.015380
   138  H    0.013419
   139  H    0.019075
   140  H    0.015089
 Sum of Mulliken charges =  -0.00000

 Dipole moment (field-independent basis, Debye):
    X=              3.9263    Y=              0.4608    Z=             -2.2058  Tot=              4.5270
 N-N= 4.489855975506D+03 E-N= 0.000000000000D+00  KE=-9.653728069951D+03
 Leave Link  601 at Wed May  4 07:58:29 2022, MaxMem=  6710886400 cpu:               0.8 elap:               0.0
 (Enter /sw/apps/gaussian-16.0/g16/l9999.exe)
 1\1\GINC-BP1-COMPUTE089\SP\RZINDO CIS\STO-3G\C55H74Mg1N4O6\OF15641\04-
 May-2022\0\\#p ZINDO=(nstates=5)\\step_1501_chromophore_12 ZINDO\\0,1\
 Mg,0,47.743,15.257,27.457\C,0,45.586,14.98,30.261\C,0,49.63,17.399,29.
 321\C,0,49.688,15.361,24.871\C,0,45.404,13.324,25.673\N,0,47.651,16.02
 9,29.579\C,0,46.734,15.746,30.608\C,0,47.055,16.422,31.94\C,0,48.134,1
 7.47,31.432\C,0,48.576,16.87,30.033\C,0,47.545,18.902,31.325\C,0,47.60
 5,15.384,32.983\C,0,47.074,15.585,34.429\C,0,48.126,15.438,35.58\O,0,4

 Normal termination of Gaussian 16 at Wed May  4 07:58:30 2022.
