 Gaussian 16, Revision A.03,
 Gaussian 16:  ES64L-G16RevA.03 25-Dec-2016

 ------------------------------
 #p blyp/Def2SVP td=(nstates=5)
 ------------------------------

 --------------------------------------------------
 step_1201_chromophore_5 TDDFT with blyp functional
 --------------------------------------------------
 Symbolic Z-matrix:
 Charge =  0 Multiplicity = 1

                         Standard orientation:
 ---------------------------------------------------------------------
 Center     Atomic      Atomic             Coordinates (Angstroms)
 Number     Number       Type             X           Y           Z
 ---------------------------------------------------------------------
      1         12           0        5.755532    0.328509   -0.277818
      2          6           0        3.901223   -2.660285   -0.460273
      3          6           0        3.156056    1.817429   -2.139122
      4          6           0        6.983500    3.367394    0.340871
      5          6           0        7.783306   -1.050279    2.138323
      6          7           0        3.711551   -0.298598   -0.971349
      7          6           0        3.185770   -1.558878   -1.040187
      8          6           0        1.786356   -1.598564   -1.603065
      9          6           0        1.661563   -0.206896   -2.288296
     10          6           0        2.889139    0.522359   -1.712325
     11          6           0        1.604436   -0.229795   -3.776319
     12          6           0        0.601033   -1.858744   -0.502088
     13          6           0       -0.468854   -2.851443   -1.106724
     14          6           0       -1.560861   -2.103763   -1.822066
     15          8           0       -1.508411   -1.631250   -2.970521
     16          8           0       -2.578687   -1.866539   -0.947083
     17          7           0        5.248082    2.305634   -0.991185
     18          6           0        4.189315    2.693393   -1.713351
     19          6           0        4.249017    4.135592   -1.988733
     20          6           0        5.305489    4.613042   -1.240265
     21          6           0        5.898741    3.422498   -0.584223
     22          6           0        3.359341    4.835765   -2.953048
     23          6           0        5.728588    6.146708   -1.101807
     24          8           0        5.142387    6.918358   -1.796122
     25          6           0        6.635097    6.648076   -0.104855
     26          7           0        7.068285    1.035627    1.135074
     27          6           0        7.558542    2.297018    1.121142
     28          6           0        8.734810    2.502453    2.069491
     29          6           0        8.973711    1.112022    2.600146
     30          6           0        7.857091    0.301102    1.952260
     31          6           0       10.059531    3.079782    1.366552
     32          6           0        9.216696    1.039813    4.105288
     33          6           0       10.579616    0.472254    4.563763
     34          7           0        5.804755   -1.434577    0.770528
     35          6           0        6.815886   -1.941678    1.554971
     36          6           0        6.619065   -3.359968    1.772137
     37          6           0        5.418686   -3.675717    1.041403
     38          6           0        5.026506   -2.460852    0.374985
     39          6           0        7.471768   -4.203032    2.547212
     40          6           0        4.566266   -4.764188    0.682538
     41          8           0        4.448064   -5.890074    1.156478
     42          6           0        3.497639   -4.108260   -0.317517
     43          6           0        3.604153   -4.704018   -1.633397
     44          8           0        2.613605   -5.104051   -2.232460
     45          8           0        4.839243   -4.773457   -2.237165
     46          6           0        4.874378   -5.366781   -3.584368
     47          6           0       -3.963280   -1.667137   -1.472289
     48          6           0       -4.464406   -0.288547   -1.283342
     49          6           0       -4.869398    0.414336   -0.142004
     50          6           0       -4.914815   -0.098993    1.306885
     51          6           0       -5.478248    1.759724   -0.267667
     52          6           0       -7.062377    1.781930   -0.450532
     53          6           0       -7.851858    2.555634    0.592151
     54          6           0       -9.106705    1.855534    1.009348
     55          6           0      -10.176332    2.929195    1.012159
     56          6           0       -9.049989    1.163943    2.387460
     57          6           0       -9.574958   -0.343699    2.458387
     58          6           0      -10.960887   -0.467840    3.103574
     59          6           0      -12.108259   -1.012473    2.205021
     60          6           0      -12.154070   -2.513867    2.289918
     61          6           0      -13.387096   -0.287521    2.472850
     62          6           0      -13.730349    0.750373    1.384892
     63          6           0      -14.785897    0.263745    0.292904
     64          6           0      -14.631193    1.024997   -1.037522
     65          6           0      -15.808739    0.863530   -1.928782
     66          6           0      -13.423604    0.368159   -1.866768
     67          1           0        2.430345    2.206273   -2.855843
     68          1           0        7.618777    4.230646    0.549217
     69          1           0        8.542732   -1.507902    2.777309
     70          1           0        1.790989   -2.432482   -2.304920
     71          1           0        0.736962    0.217882   -1.897734
     72          1           0        0.565933   -0.161820   -4.097375
     73          1           0        1.867833   -1.181832   -4.237007
     74          1           0        2.120852    0.573175   -4.302393
     75          1           0        0.102173   -0.923027   -0.247050
     76          1           0        1.085802   -2.295231    0.370526
     77          1           0       -0.842459   -3.501638   -0.315377
     78          1           0       -0.119986   -3.458235   -1.941010
     79          1           0        2.457084    4.952621   -2.353073
     80          1           0        3.167299    4.150970   -3.779304
     81          1           0        3.705739    5.732428   -3.465628
     82          1           0        7.570413    6.154128    0.155686
     83          1           0        6.032733    6.555368    0.799298
     84          1           0        6.808389    7.714215   -0.253440
     85          1           0        8.411566    3.257382    2.786407
     86          1           0        9.880498    0.678825    2.178395
     87          1           0        9.837036    3.190511    0.305462
     88          1           0       10.928816    2.427896    1.460947
     89          1           0       10.418345    3.974704    1.875906
     90          1           0        8.416256    0.404325    4.485749
     91          1           0        9.236515    2.062798    4.481570
     92          1           0       10.386815   -0.218693    5.384744
     93          1           0       11.234004    1.342291    4.622520
     94          1           0       11.076132   -0.127879    3.800678
     95          1           0        7.184981   -5.245825    2.417696
     96          1           0        7.668489   -3.970501    3.594614
     97          1           0        8.422782   -4.105786    2.022674
     98          1           0        2.511659   -4.262862    0.120896
     99          1           0        5.826684   -5.869076   -3.753633
    100          1           0        4.929418   -4.568348   -4.324966
    101          1           0        4.071267   -6.053504   -3.852236
    102          1           0       -4.483516   -2.434279   -0.897628
    103          1           0       -4.057713   -1.951643   -2.520639
    104          1           0       -4.654873    0.211401   -2.233803
    105          1           0       -4.866956   -1.184325    1.393943
    106          1           0       -5.902632    0.162008    1.686835
    107          1           0       -4.164958    0.404498    1.916644
    108          1           0       -5.100746    2.322894   -1.120596
    109          1           0       -5.214741    2.462857    0.521542
    110          1           0       -7.365108    0.734811   -0.445051
    111          1           0       -7.346659    2.225062   -1.404405
    112          1           0       -7.906018    3.602570    0.294269
    113          1           0       -7.244946    2.663227    1.491933
    114          1           0       -9.360645    1.101116    0.264493
    115          1           0       -9.786848    3.845779    1.456435
    116          1           0      -11.027923    2.686688    1.647084
    117          1           0      -10.575675    3.186312    0.030483
    118          1           0       -9.502664    1.901988    3.049865
    119          1           0       -7.996095    1.062070    2.646385
    120          1           0       -8.888697   -0.899926    3.096267
    121          1           0       -9.391375   -0.854607    1.513168
    122          1           0      -11.284402    0.454973    3.586929
    123          1           0      -10.807099   -1.182441    3.912117
    124          1           0      -11.954353   -0.862611    1.135862
    125          1           0      -11.401493   -3.078124    1.739358
    126          1           0      -13.080708   -2.870484    1.839302
    127          1           0      -12.251834   -2.845195    3.323351
    128          1           0      -13.571691    0.121236    3.466292
    129          1           0      -14.129077   -1.082901    2.407866
    130          1           0      -12.815724    1.120916    0.923171
    131          1           0      -14.210837    1.521601    1.987504
    132          1           0      -15.769217    0.604840    0.616121
    133          1           0      -14.784940   -0.812877    0.125361
    134          1           0      -14.407219    2.086939   -0.934723
    135          1           0      -16.240220   -0.133574   -1.831524
    136          1           0      -15.600765    0.885335   -2.997844
    137          1           0      -16.522573    1.641346   -1.657297
    138          1           0      -12.842023    1.178907   -2.304745
    139          1           0      -13.862211   -0.313432   -2.596122
    140          1           0      -12.813233   -0.174863   -1.144381
 ---------------------------------------------------------------------

 SCF Done:  E(RB-LYP) =  -3007.35668413     A.U. after   21 cycles

 Excitation energies and oscillator strengths:

 Excited State   1:      Singlet-A      1.8017 eV  688.13 nm  f=0.2954  <S**2>=0.000
     245 -> 248        0.19040
     246 -> 247        0.68559
     246 <- 247       -0.15286
 This state for optimization and/or second-order correction.
 Total Energy, E(TD-HF/TD-DFT) =  -3007.29047117
 Copying the excited state density for this state as the 1-particle RhoCI density.

 Excited State   2:      Singlet-A      1.9057 eV  650.59 nm  f=0.0237  <S**2>=0.000
     244 -> 247        0.59601
     245 -> 247       -0.35454
     246 -> 247       -0.10570

 Excited State   3:      Singlet-A      2.0994 eV  590.56 nm  f=0.0570  <S**2>=0.000
     244 -> 247        0.35698
     245 -> 247        0.53349
     246 -> 248       -0.27874

 Excited State   4:      Singlet-A      2.1676 eV  571.99 nm  f=0.0001  <S**2>=0.000
     243 -> 247        0.70592

 Excited State   5:      Singlet-A      2.4730 eV  501.35 nm  f=0.0003  <S**2>=0.000
     241 -> 247        0.70602

 The electronic state is 1-A.
 Alpha  occ. eigenvalues --  -46.27521 -18.81731 -18.80913 -18.76340 -18.75713
 Alpha  occ. eigenvalues --  -18.75373 -18.75297 -14.03226 -14.03160 -14.01145
 Alpha  occ. eigenvalues --  -14.00620 -10.03514 -10.03171 -10.00228  -9.99065
 Alpha  occ. eigenvalues --   -9.97803  -9.97354  -9.96771  -9.96389  -9.96091
 Alpha  occ. eigenvalues --   -9.95962  -9.95783  -9.95282  -9.95039  -9.94365
 Alpha  occ. eigenvalues --   -9.94350  -9.94273  -9.94050  -9.93625  -9.93537
 Alpha  occ. eigenvalues --   -9.93310  -9.93203  -9.93169  -9.93092  -9.93015
 Alpha  occ. eigenvalues --   -9.92956  -9.92860  -9.92843  -9.92716  -9.92643
 Alpha  occ. eigenvalues --   -9.92427  -9.92359  -9.92334  -9.92246  -9.92238
 Alpha  occ. eigenvalues --   -9.92175  -9.91948  -9.91838  -9.91718  -9.91703
 Alpha  occ. eigenvalues --   -9.91617  -9.91593  -9.91525  -9.91415  -9.91404
 Alpha  occ. eigenvalues --   -9.91350  -9.91252  -9.90917  -9.90702  -9.90701
 Alpha  occ. eigenvalues --   -9.90669  -9.90629  -9.90567  -9.90511  -9.90410
 Alpha  occ. eigenvalues --   -9.90383  -2.92211  -1.72594  -1.72100  -1.71934
 Alpha  occ. eigenvalues --   -0.97125  -0.96410  -0.93667  -0.90546  -0.88456
 Alpha  occ. eigenvalues --   -0.88433  -0.87185  -0.86284  -0.85755  -0.84863
 Alpha  occ. eigenvalues --   -0.75380  -0.74042  -0.73337  -0.73276  -0.72394
 Alpha  occ. eigenvalues --   -0.71885  -0.71611  -0.71474  -0.70663  -0.70421
 Alpha  occ. eigenvalues --   -0.69854  -0.69091  -0.68005  -0.67589  -0.67538
 Alpha  occ. eigenvalues --   -0.66752  -0.66293  -0.65392  -0.64961  -0.64327
 Alpha  occ. eigenvalues --   -0.64160  -0.62317  -0.62047  -0.61665  -0.61093
 Alpha  occ. eigenvalues --   -0.60663  -0.59839  -0.59791  -0.59418  -0.59240
 Alpha  occ. eigenvalues --   -0.57814  -0.57259  -0.56513  -0.55666  -0.54927
 Alpha  occ. eigenvalues --   -0.54296  -0.53875  -0.52644  -0.52072  -0.51881
 Alpha  occ. eigenvalues --   -0.51509  -0.50688  -0.50607  -0.50202  -0.50085
 Alpha  occ. eigenvalues --   -0.49577  -0.49344  -0.49148  -0.48895  -0.46422
 Alpha  occ. eigenvalues --   -0.45963  -0.45605  -0.45577  -0.45167  -0.44444
 Alpha  occ. eigenvalues --   -0.43743  -0.43497  -0.43265  -0.42316  -0.42194
 Alpha  occ. eigenvalues --   -0.41970  -0.41351  -0.41287  -0.41142  -0.41034
 Alpha  occ. eigenvalues --   -0.40678  -0.40489  -0.40417  -0.40194  -0.40044
 Alpha  occ. eigenvalues --   -0.39992  -0.39734  -0.39596  -0.39400  -0.39045
 Alpha  occ. eigenvalues --   -0.38685  -0.38611  -0.38564  -0.38442  -0.38282
 Alpha  occ. eigenvalues --   -0.37941  -0.37861  -0.37598  -0.37412  -0.37151
 Alpha  occ. eigenvalues --   -0.37111  -0.36883  -0.36827  -0.36786  -0.36429
 Alpha  occ. eigenvalues --   -0.36152  -0.36093  -0.35918  -0.35789  -0.35464
 Alpha  occ. eigenvalues --   -0.35310  -0.34924  -0.34786  -0.34708  -0.34599
 Alpha  occ. eigenvalues --   -0.34529  -0.34274  -0.34153  -0.33955  -0.33777
 Alpha  occ. eigenvalues --   -0.33597  -0.33524  -0.33368  -0.33265  -0.33002
 Alpha  occ. eigenvalues --   -0.32911  -0.32748  -0.32575  -0.32459  -0.32248
 Alpha  occ. eigenvalues --   -0.32071  -0.31905  -0.31684  -0.31611  -0.31475
 Alpha  occ. eigenvalues --   -0.31349  -0.31189  -0.31096  -0.30828  -0.30734
 Alpha  occ. eigenvalues --   -0.30557  -0.30482  -0.30354  -0.30109  -0.29536
 Alpha  occ. eigenvalues --   -0.29476  -0.29369  -0.29051  -0.28916  -0.28775
 Alpha  occ. eigenvalues --   -0.28699  -0.28391  -0.28311  -0.28003  -0.27770
 Alpha  occ. eigenvalues --   -0.27627  -0.27301  -0.27049  -0.26590  -0.26366
 Alpha  occ. eigenvalues --   -0.26013  -0.25869  -0.25727  -0.25575  -0.24871
 Alpha  occ. eigenvalues --   -0.24724  -0.24252  -0.23863  -0.23816  -0.23533
 Alpha  occ. eigenvalues --   -0.23240  -0.21866  -0.21440  -0.20789  -0.20488
 Alpha  occ. eigenvalues --   -0.20222  -0.20111  -0.19041  -0.18157  -0.17098
 Alpha  occ. eigenvalues --   -0.15343
 Alpha virt. eigenvalues --   -0.11136  -0.06485  -0.05690  -0.04282  -0.04220
 Alpha virt. eigenvalues --   -0.04038  -0.03014  -0.01681  -0.01523   0.00097
 Alpha virt. eigenvalues --    0.00993   0.01769   0.02077   0.02434   0.02688

 Mulliken charges:
               1
     1  Mg   0.713811
     2  C   -0.087566
     3  C   -0.091628
     4  C   -0.032287
     5  C   -0.105015
     6  N   -0.197944
     7  C   -0.084044
     8  C    0.025937
     9  C    0.031826
    10  C    0.042310
    11  C    0.130871
    12  C    0.110186
    13  C    0.161880
    14  C    0.037091
    15  O   -0.210399
    16  O   -0.279580
    17  N   -0.225387
    18  C    0.110995
    19  C   -0.154730
    20  C    0.001259
    21  C    0.145255
    22  C    0.191787
    23  C   -0.054242
    24  O   -0.132345
    25  C    0.135900
    26  N   -0.234087
    27  C   -0.064596
    28  C    0.014751
    29  C    0.062320
    30  C    0.048433
    31  C    0.102242
    32  C    0.099281
    33  C    0.053907
    34  N   -0.264179
    35  C    0.100718
    36  C   -0.141338
    37  C    0.050024
    38  C    0.131698
    39  C    0.174698
    40  C   -0.044485
    41  O   -0.137093
    42  C    0.100249
    43  C    0.107232
    44  O   -0.197670
    45  O   -0.278261
    46  C    0.218897
    47  C    0.347185
    48  C   -0.098595
    49  C   -0.125367
    50  C    0.154519
    51  C    0.123504
    52  C    0.054924
    53  C    0.118581
    54  C   -0.073752
    55  C    0.094860
    56  C    0.108154
    57  C    0.085521
    58  C    0.143191
    59  C   -0.053533
    60  C    0.102126
    61  C    0.113367
    62  C    0.047127
    63  C    0.115694
    64  C   -0.124426
    65  C    0.123445
    66  C    0.090288
    67  H   -0.057746
    68  H   -0.101587
    69  H   -0.072154
    70  H   -0.010358
    71  H   -0.020794
    72  H   -0.005932
    73  H   -0.016218
    74  H   -0.016196
    75  H    0.001651
    76  H   -0.009855
    77  H   -0.014397
    78  H    0.015300
    79  H    0.004628
    80  H   -0.010786
    81  H    0.012636
    82  H    0.019772
    83  H    0.010069
    84  H   -0.005548
    85  H   -0.010950
    86  H   -0.029172
    87  H    0.004457
    88  H   -0.012824
    89  H   -0.009891
    90  H   -0.016649
    91  H   -0.021336
    92  H    0.006446
    93  H   -0.003783
    94  H   -0.020379
    95  H   -0.000066
    96  H    0.004126
    97  H   -0.011240
    98  H   -0.007813
    99  H    0.004200
   100  H    0.000868
   101  H    0.032018
   102  H   -0.014218
   103  H   -0.010053
   104  H   -0.032281
   105  H   -0.011270
   106  H   -0.012937
   107  H    0.010046
   108  H   -0.037074
   109  H   -0.034109
   110  H   -0.022318
   111  H   -0.019848
   112  H   -0.036217
   113  H   -0.053054
   114  H   -0.035756
   115  H   -0.025125
   116  H   -0.021878
   117  H   -0.016074
   118  H   -0.035971
   119  H   -0.040044
   120  H   -0.047637
   121  H   -0.032450
   122  H   -0.034507
   123  H   -0.041371
   124  H   -0.036862
   125  H   -0.013721
   126  H   -0.035235
   127  H   -0.024207
   128  H   -0.040005
   129  H   -0.064950
   130  H   -0.003098
   131  H   -0.035033
   132  H   -0.035415
   133  H   -0.022052
   134  H   -0.033393
   135  H   -0.026767
   136  H   -0.021913
   137  H   -0.017323
   138  H   -0.009765
   139  H   -0.014810
   140  H   -0.025302
 Sum of Mulliken charges =  -0.00000

 Dipole moment (field-independent basis, Debye):
    X=              1.7711    Y=              3.2551    Z=              1.9091  Tot=              4.1686
 Quadrupole moment (field-independent basis, Debye-Ang):
   XX=           -325.5285   YY=           -447.9290   ZZ=           -401.4080
   XY=             11.1492   XZ=              4.9377   YZ=             19.8126

 Normal termination of Gaussian 16 at Wed May  4 02:02:29 2022.
