 Gaussian 16, Revision A.03,
 Gaussian 16:  ES64L-G16RevA.03 25-Dec-2016

 -----------------------------------
 #p cam-b3lyp/Def2SVP td=(nstates=5)
 -----------------------------------

 -------------------------------------------------------
 step_1201_chromophore_5 TDDFT with cam-b3lyp functional
 -------------------------------------------------------
 Symbolic Z-matrix:
 Charge =  0 Multiplicity = 1

                         Standard orientation:
 ---------------------------------------------------------------------
 Center     Atomic      Atomic             Coordinates (Angstroms)
 Number     Number       Type             X           Y           Z
 ---------------------------------------------------------------------
      1         12           0        5.755532    0.328509   -0.277818
      2          6           0        3.901223   -2.660285   -0.460273
      3          6           0        3.156056    1.817429   -2.139122
      4          6           0        6.983500    3.367394    0.340871
      5          6           0        7.783306   -1.050279    2.138323
      6          7           0        3.711551   -0.298598   -0.971349
      7          6           0        3.185770   -1.558878   -1.040187
      8          6           0        1.786356   -1.598564   -1.603065
      9          6           0        1.661563   -0.206896   -2.288296
     10          6           0        2.889139    0.522359   -1.712325
     11          6           0        1.604436   -0.229795   -3.776319
     12          6           0        0.601033   -1.858744   -0.502088
     13          6           0       -0.468854   -2.851443   -1.106724
     14          6           0       -1.560861   -2.103763   -1.822066
     15          8           0       -1.508411   -1.631250   -2.970521
     16          8           0       -2.578687   -1.866539   -0.947083
     17          7           0        5.248082    2.305634   -0.991185
     18          6           0        4.189315    2.693393   -1.713351
     19          6           0        4.249017    4.135592   -1.988733
     20          6           0        5.305489    4.613042   -1.240265
     21          6           0        5.898741    3.422498   -0.584223
     22          6           0        3.359341    4.835765   -2.953048
     23          6           0        5.728588    6.146708   -1.101807
     24          8           0        5.142387    6.918358   -1.796122
     25          6           0        6.635097    6.648076   -0.104855
     26          7           0        7.068285    1.035627    1.135074
     27          6           0        7.558542    2.297018    1.121142
     28          6           0        8.734810    2.502453    2.069491
     29          6           0        8.973711    1.112022    2.600146
     30          6           0        7.857091    0.301102    1.952260
     31          6           0       10.059531    3.079782    1.366552
     32          6           0        9.216696    1.039813    4.105288
     33          6           0       10.579616    0.472254    4.563763
     34          7           0        5.804755   -1.434577    0.770528
     35          6           0        6.815886   -1.941678    1.554971
     36          6           0        6.619065   -3.359968    1.772137
     37          6           0        5.418686   -3.675717    1.041403
     38          6           0        5.026506   -2.460852    0.374985
     39          6           0        7.471768   -4.203032    2.547212
     40          6           0        4.566266   -4.764188    0.682538
     41          8           0        4.448064   -5.890074    1.156478
     42          6           0        3.497639   -4.108260   -0.317517
     43          6           0        3.604153   -4.704018   -1.633397
     44          8           0        2.613605   -5.104051   -2.232460
     45          8           0        4.839243   -4.773457   -2.237165
     46          6           0        4.874378   -5.366781   -3.584368
     47          6           0       -3.963280   -1.667137   -1.472289
     48          6           0       -4.464406   -0.288547   -1.283342
     49          6           0       -4.869398    0.414336   -0.142004
     50          6           0       -4.914815   -0.098993    1.306885
     51          6           0       -5.478248    1.759724   -0.267667
     52          6           0       -7.062377    1.781930   -0.450532
     53          6           0       -7.851858    2.555634    0.592151
     54          6           0       -9.106705    1.855534    1.009348
     55          6           0      -10.176332    2.929195    1.012159
     56          6           0       -9.049989    1.163943    2.387460
     57          6           0       -9.574958   -0.343699    2.458387
     58          6           0      -10.960887   -0.467840    3.103574
     59          6           0      -12.108259   -1.012473    2.205021
     60          6           0      -12.154070   -2.513867    2.289918
     61          6           0      -13.387096   -0.287521    2.472850
     62          6           0      -13.730349    0.750373    1.384892
     63          6           0      -14.785897    0.263745    0.292904
     64          6           0      -14.631193    1.024997   -1.037522
     65          6           0      -15.808739    0.863530   -1.928782
     66          6           0      -13.423604    0.368159   -1.866768
     67          1           0        2.430345    2.206273   -2.855843
     68          1           0        7.618777    4.230646    0.549217
     69          1           0        8.542732   -1.507902    2.777309
     70          1           0        1.790989   -2.432482   -2.304920
     71          1           0        0.736962    0.217882   -1.897734
     72          1           0        0.565933   -0.161820   -4.097375
     73          1           0        1.867833   -1.181832   -4.237007
     74          1           0        2.120852    0.573175   -4.302393
     75          1           0        0.102173   -0.923027   -0.247050
     76          1           0        1.085802   -2.295231    0.370526
     77          1           0       -0.842459   -3.501638   -0.315377
     78          1           0       -0.119986   -3.458235   -1.941010
     79          1           0        2.457084    4.952621   -2.353073
     80          1           0        3.167299    4.150970   -3.779304
     81          1           0        3.705739    5.732428   -3.465628
     82          1           0        7.570413    6.154128    0.155686
     83          1           0        6.032733    6.555368    0.799298
     84          1           0        6.808389    7.714215   -0.253440
     85          1           0        8.411566    3.257382    2.786407
     86          1           0        9.880498    0.678825    2.178395
     87          1           0        9.837036    3.190511    0.305462
     88          1           0       10.928816    2.427896    1.460947
     89          1           0       10.418345    3.974704    1.875906
     90          1           0        8.416256    0.404325    4.485749
     91          1           0        9.236515    2.062798    4.481570
     92          1           0       10.386815   -0.218693    5.384744
     93          1           0       11.234004    1.342291    4.622520
     94          1           0       11.076132   -0.127879    3.800678
     95          1           0        7.184981   -5.245825    2.417696
     96          1           0        7.668489   -3.970501    3.594614
     97          1           0        8.422782   -4.105786    2.022674
     98          1           0        2.511659   -4.262862    0.120896
     99          1           0        5.826684   -5.869076   -3.753633
    100          1           0        4.929418   -4.568348   -4.324966
    101          1           0        4.071267   -6.053504   -3.852236
    102          1           0       -4.483516   -2.434279   -0.897628
    103          1           0       -4.057713   -1.951643   -2.520639
    104          1           0       -4.654873    0.211401   -2.233803
    105          1           0       -4.866956   -1.184325    1.393943
    106          1           0       -5.902632    0.162008    1.686835
    107          1           0       -4.164958    0.404498    1.916644
    108          1           0       -5.100746    2.322894   -1.120596
    109          1           0       -5.214741    2.462857    0.521542
    110          1           0       -7.365108    0.734811   -0.445051
    111          1           0       -7.346659    2.225062   -1.404405
    112          1           0       -7.906018    3.602570    0.294269
    113          1           0       -7.244946    2.663227    1.491933
    114          1           0       -9.360645    1.101116    0.264493
    115          1           0       -9.786848    3.845779    1.456435
    116          1           0      -11.027923    2.686688    1.647084
    117          1           0      -10.575675    3.186312    0.030483
    118          1           0       -9.502664    1.901988    3.049865
    119          1           0       -7.996095    1.062070    2.646385
    120          1           0       -8.888697   -0.899926    3.096267
    121          1           0       -9.391375   -0.854607    1.513168
    122          1           0      -11.284402    0.454973    3.586929
    123          1           0      -10.807099   -1.182441    3.912117
    124          1           0      -11.954353   -0.862611    1.135862
    125          1           0      -11.401493   -3.078124    1.739358
    126          1           0      -13.080708   -2.870484    1.839302
    127          1           0      -12.251834   -2.845195    3.323351
    128          1           0      -13.571691    0.121236    3.466292
    129          1           0      -14.129077   -1.082901    2.407866
    130          1           0      -12.815724    1.120916    0.923171
    131          1           0      -14.210837    1.521601    1.987504
    132          1           0      -15.769217    0.604840    0.616121
    133          1           0      -14.784940   -0.812877    0.125361
    134          1           0      -14.407219    2.086939   -0.934723
    135          1           0      -16.240220   -0.133574   -1.831524
    136          1           0      -15.600765    0.885335   -2.997844
    137          1           0      -16.522573    1.641346   -1.657297
    138          1           0      -12.842023    1.178907   -2.304745
    139          1           0      -13.862211   -0.313432   -2.596122
    140          1           0      -12.813233   -0.174863   -1.144381
 ---------------------------------------------------------------------

 SCF Done:  E(RCAM-B3LYP) =  -3007.15663381     A.U. after   18 cycles

 Excitation energies and oscillator strengths:

 Excited State   1:      Singlet-A      1.7076 eV  726.06 nm  f=0.3753  <S**2>=0.000
     245 -> 248        0.17347
     246 -> 247        0.68806
     245 <- 248        0.10736
 This state for optimization and/or second-order correction.
 Total Energy, E(TD-HF/TD-DFT) =  -3007.09387984
 Copying the excited state density for this state as the 1-particle RhoCI density.

 Excited State   2:      Singlet-A      2.2835 eV  542.97 nm  f=0.0928  <S**2>=0.000
     245 -> 247        0.62420
     246 -> 248       -0.32081

 Excited State   3:      Singlet-A      3.4703 eV  357.27 nm  f=0.1227  <S**2>=0.000
     242 -> 247       -0.20745
     243 -> 247       -0.21560
     244 -> 247        0.45467
     245 -> 247        0.13376
     246 -> 248        0.31384
     246 -> 249        0.12434
     246 -> 250        0.11526

 Excited State   4:      Singlet-A      3.4903 eV  355.23 nm  f=0.1907  <S**2>=0.000
     241 -> 247       -0.32992
     244 -> 247        0.33512
     245 -> 247       -0.14622
     246 -> 248       -0.30717
     246 -> 249       -0.32177
     246 -> 250       -0.20898

 Excited State   5:      Singlet-A      3.5226 eV  351.97 nm  f=0.0300  <S**2>=0.000
     241 -> 247       -0.23981
     242 -> 247        0.21376
     243 -> 247        0.22889
     244 -> 247        0.23071
     246 -> 248       -0.10870
     246 -> 249        0.41321
     246 -> 250        0.22335

 The electronic state is 1-A.
 Alpha  occ. eigenvalues --  -46.89146 -19.24593 -19.23768 -19.19269 -19.19121
 Alpha  occ. eigenvalues --  -19.18358 -19.18211 -14.42121 -14.42069 -14.39880
 Alpha  occ. eigenvalues --  -14.38834 -10.38771 -10.38517 -10.35559 -10.34196
 Alpha  occ. eigenvalues --  -10.31980 -10.31648 -10.31242 -10.31039 -10.30749
 Alpha  occ. eigenvalues --  -10.30722 -10.30106 -10.29879 -10.28805 -10.28518
 Alpha  occ. eigenvalues --  -10.28409 -10.28391 -10.27961 -10.27951 -10.27758
 Alpha  occ. eigenvalues --  -10.27744 -10.27295 -10.27269 -10.27115 -10.27086
 Alpha  occ. eigenvalues --  -10.27069 -10.26976 -10.26830 -10.26719 -10.26528
 Alpha  occ. eigenvalues --  -10.26458 -10.26383 -10.26292 -10.26282 -10.26103
 Alpha  occ. eigenvalues --  -10.25944 -10.25636 -10.25601 -10.25489 -10.25361
 Alpha  occ. eigenvalues --  -10.25303 -10.25213 -10.25077 -10.25073 -10.25034
 Alpha  occ. eigenvalues --  -10.25019 -10.24879 -10.24551 -10.24381 -10.24340
 Alpha  occ. eigenvalues --  -10.24282 -10.24243 -10.24127 -10.24088 -10.24019
 Alpha  occ. eigenvalues --  -10.23935  -3.17734  -1.92592  -1.92194  -1.92038
 Alpha  occ. eigenvalues --   -1.15593  -1.14810  -1.12365  -1.08632  -1.06314
 Alpha  occ. eigenvalues --   -1.06233  -1.05019  -1.04213  -1.03350  -1.02229
 Alpha  occ. eigenvalues --   -0.92372  -0.90892  -0.90080  -0.90048  -0.89108
 Alpha  occ. eigenvalues --   -0.88606  -0.88388  -0.88102  -0.87268  -0.86966
 Alpha  occ. eigenvalues --   -0.86571  -0.85502  -0.84376  -0.83872  -0.83673
 Alpha  occ. eigenvalues --   -0.82947  -0.82374  -0.81302  -0.80811  -0.80099
 Alpha  occ. eigenvalues --   -0.79908  -0.77932  -0.77578  -0.77396  -0.76483
 Alpha  occ. eigenvalues --   -0.76011  -0.75174  -0.75103  -0.74700  -0.74495
 Alpha  occ. eigenvalues --   -0.72772  -0.72154  -0.71475  -0.70481  -0.69516
 Alpha  occ. eigenvalues --   -0.68890  -0.68389  -0.67001  -0.66749  -0.65963
 Alpha  occ. eigenvalues --   -0.65745  -0.64885  -0.64649  -0.64146  -0.64031
 Alpha  occ. eigenvalues --   -0.63419  -0.63236  -0.62817  -0.62777  -0.60140
 Alpha  occ. eigenvalues --   -0.59626  -0.59149  -0.58988  -0.58689  -0.57888
 Alpha  occ. eigenvalues --   -0.57162  -0.56889  -0.56519  -0.55338  -0.55071
 Alpha  occ. eigenvalues --   -0.54838  -0.54303  -0.54095  -0.54071  -0.53846
 Alpha  occ. eigenvalues --   -0.53540  -0.53332  -0.53091  -0.52982  -0.52911
 Alpha  occ. eigenvalues --   -0.52703  -0.52466  -0.52359  -0.52113  -0.51900
 Alpha  occ. eigenvalues --   -0.51392  -0.51104  -0.50977  -0.50895  -0.50657
 Alpha  occ. eigenvalues --   -0.50475  -0.50211  -0.50095  -0.49820  -0.49706
 Alpha  occ. eigenvalues --   -0.49309  -0.49244  -0.49020  -0.48918  -0.48839
 Alpha  occ. eigenvalues --   -0.48560  -0.48475  -0.48187  -0.47832  -0.47667
 Alpha  occ. eigenvalues --   -0.47506  -0.46985  -0.46921  -0.46490  -0.46458
 Alpha  occ. eigenvalues --   -0.46347  -0.46123  -0.46069  -0.45825  -0.45644
 Alpha  occ. eigenvalues --   -0.45396  -0.45309  -0.45239  -0.45097  -0.44631
 Alpha  occ. eigenvalues --   -0.44543  -0.44444  -0.44311  -0.44177  -0.43854
 Alpha  occ. eigenvalues --   -0.43721  -0.43502  -0.43154  -0.43091  -0.43025
 Alpha  occ. eigenvalues --   -0.42866  -0.42794  -0.42581  -0.42307  -0.42222
 Alpha  occ. eigenvalues --   -0.42139  -0.41796  -0.41747  -0.41682  -0.41041
 Alpha  occ. eigenvalues --   -0.40752  -0.40580  -0.40416  -0.40190  -0.39927
 Alpha  occ. eigenvalues --   -0.39794  -0.39378  -0.39247  -0.39186  -0.38755
 Alpha  occ. eigenvalues --   -0.38575  -0.38200  -0.37805  -0.37417  -0.37358
 Alpha  occ. eigenvalues --   -0.37096  -0.36504  -0.36393  -0.36327  -0.35597
 Alpha  occ. eigenvalues --   -0.35371  -0.35238  -0.35147  -0.34429  -0.34248
 Alpha  occ. eigenvalues --   -0.33577  -0.33423  -0.32671  -0.31483  -0.30996
 Alpha  occ. eigenvalues --   -0.30271  -0.29770  -0.29728  -0.29001  -0.23992
 Alpha  occ. eigenvalues --   -0.20612
 Alpha virt. eigenvalues --   -0.08189  -0.01384   0.00684   0.01232   0.02877
 Alpha virt. eigenvalues --    0.03078   0.04738   0.05618   0.06183   0.07101
 Alpha virt. eigenvalues --    0.08162   0.08225   0.08407   0.08516   0.08660

 Mulliken charges:
               1
     1  Mg   0.844187
     2  C   -0.112954
     3  C   -0.108757
     4  C   -0.057914
     5  C   -0.103704
     6  N   -0.266997
     7  C   -0.037992
     8  C   -0.018382
     9  C   -0.027928
    10  C    0.069024
    11  C    0.068493
    12  C    0.059542
    13  C    0.084233
    14  C    0.123114
    15  O   -0.253630
    16  O   -0.343436
    17  N   -0.312703
    18  C    0.120528
    19  C   -0.157296
    20  C   -0.058372
    21  C    0.175332
    22  C    0.131522
    23  C    0.026965
    24  O   -0.172122
    25  C    0.048062
    26  N   -0.309800
    27  C   -0.030325
    28  C   -0.046057
    29  C    0.006241
    30  C    0.063127
    31  C    0.046055
    32  C    0.038877
    33  C   -0.006192
    34  N   -0.351613
    35  C    0.099394
    36  C   -0.136646
    37  C   -0.028726
    38  C    0.164491
    39  C    0.112525
    40  C    0.054797
    41  O   -0.178627
    42  C    0.012708
    43  C    0.203297
    44  O   -0.237971
    45  O   -0.340395
    46  C    0.180247
    47  C    0.311488
    48  C   -0.123857
    49  C   -0.144908
    50  C    0.100990
    51  C    0.057255
    52  C    0.004053
    53  C    0.061835
    54  C   -0.129110
    55  C    0.037773
    56  C    0.054903
    57  C    0.031903
    58  C    0.085086
    59  C   -0.110915
    60  C    0.047262
    61  C    0.056144
    62  C   -0.000683
    63  C    0.059647
    64  C   -0.179895
    65  C    0.058121
    66  C    0.035459
    67  H   -0.021087
    68  H   -0.068807
    69  H   -0.036630
    70  H    0.022744
    71  H    0.015064
    72  H    0.022586
    73  H    0.010765
    74  H    0.009042
    75  H    0.030762
    76  H    0.020725
    77  H    0.022102
    78  H    0.045608
    79  H    0.032535
    80  H    0.014753
    81  H    0.044925
    82  H    0.047235
    83  H    0.038757
    84  H    0.031045
    85  H    0.024065
    86  H    0.006276
    87  H    0.029133
    88  H    0.013056
    89  H    0.015092
    90  H    0.014470
    91  H    0.006649
    92  H    0.030830
    93  H    0.018320
    94  H    0.002324
    95  H    0.028378
    96  H    0.029077
    97  H    0.013754
    98  H    0.034129
    99  H    0.027197
   100  H    0.022313
   101  H    0.057511
   102  H    0.015861
   103  H    0.023007
   104  H    0.000184
   105  H    0.013807
   106  H    0.003771
   107  H    0.035082
   108  H   -0.003961
   109  H   -0.002806
   110  H    0.004405
   111  H    0.008512
   112  H   -0.005013
   113  H   -0.023602
   114  H   -0.005386
   115  H   -0.000511
   116  H   -0.000613
   117  H    0.008453
   118  H   -0.006381
   119  H   -0.012523
   120  H   -0.016017
   121  H   -0.005657
   122  H   -0.006006
   123  H   -0.011434
   124  H   -0.008543
   125  H    0.011231
   126  H   -0.010743
   127  H   -0.000155
   128  H   -0.009012
   129  H   -0.032505
   130  H    0.017089
   131  H   -0.005221
   132  H   -0.005774
   133  H    0.003453
   134  H   -0.001694
   135  H   -0.001760
   136  H    0.004583
   137  H    0.007431
   138  H    0.013629
   139  H    0.008950
   140  H   -0.005603
 Sum of Mulliken charges =  -0.00000

 Dipole moment (field-independent basis, Debye):
    X=              1.8650    Y=              4.1050    Z=              1.5771  Tot=              4.7767
 Quadrupole moment (field-independent basis, Debye-Ang):
   XX=           -321.3190   YY=           -445.1684   ZZ=           -400.3977
   XY=             17.8395   XZ=              4.2560   YZ=             20.7642

 Normal termination of Gaussian 16 at Wed May  4 01:01:04 2022.
