 Gaussian 16, Revision A.03,
 Gaussian 16:  ES64L-G16RevA.03 25-Dec-2016

 ---------------------------------
 #p PBE1PBE/Def2SVP td=(nstates=5)
 ---------------------------------

 -----------------------------------------------------
 step_1201_chromophore_5 TDDFT with PBE1PBE functional
 -----------------------------------------------------
 Symbolic Z-matrix:
 Charge =  0 Multiplicity = 1

                         Standard orientation:
 ---------------------------------------------------------------------
 Center     Atomic      Atomic             Coordinates (Angstroms)
 Number     Number       Type             X           Y           Z
 ---------------------------------------------------------------------
      1         12           0        5.755532    0.328509   -0.277818
      2          6           0        3.901223   -2.660285   -0.460273
      3          6           0        3.156056    1.817429   -2.139122
      4          6           0        6.983500    3.367394    0.340871
      5          6           0        7.783306   -1.050279    2.138323
      6          7           0        3.711551   -0.298598   -0.971349
      7          6           0        3.185770   -1.558878   -1.040187
      8          6           0        1.786356   -1.598564   -1.603065
      9          6           0        1.661563   -0.206896   -2.288296
     10          6           0        2.889139    0.522359   -1.712325
     11          6           0        1.604436   -0.229795   -3.776319
     12          6           0        0.601033   -1.858744   -0.502088
     13          6           0       -0.468854   -2.851443   -1.106724
     14          6           0       -1.560861   -2.103763   -1.822066
     15          8           0       -1.508411   -1.631250   -2.970521
     16          8           0       -2.578687   -1.866539   -0.947083
     17          7           0        5.248082    2.305634   -0.991185
     18          6           0        4.189315    2.693393   -1.713351
     19          6           0        4.249017    4.135592   -1.988733
     20          6           0        5.305489    4.613042   -1.240265
     21          6           0        5.898741    3.422498   -0.584223
     22          6           0        3.359341    4.835765   -2.953048
     23          6           0        5.728588    6.146708   -1.101807
     24          8           0        5.142387    6.918358   -1.796122
     25          6           0        6.635097    6.648076   -0.104855
     26          7           0        7.068285    1.035627    1.135074
     27          6           0        7.558542    2.297018    1.121142
     28          6           0        8.734810    2.502453    2.069491
     29          6           0        8.973711    1.112022    2.600146
     30          6           0        7.857091    0.301102    1.952260
     31          6           0       10.059531    3.079782    1.366552
     32          6           0        9.216696    1.039813    4.105288
     33          6           0       10.579616    0.472254    4.563763
     34          7           0        5.804755   -1.434577    0.770528
     35          6           0        6.815886   -1.941678    1.554971
     36          6           0        6.619065   -3.359968    1.772137
     37          6           0        5.418686   -3.675717    1.041403
     38          6           0        5.026506   -2.460852    0.374985
     39          6           0        7.471768   -4.203032    2.547212
     40          6           0        4.566266   -4.764188    0.682538
     41          8           0        4.448064   -5.890074    1.156478
     42          6           0        3.497639   -4.108260   -0.317517
     43          6           0        3.604153   -4.704018   -1.633397
     44          8           0        2.613605   -5.104051   -2.232460
     45          8           0        4.839243   -4.773457   -2.237165
     46          6           0        4.874378   -5.366781   -3.584368
     47          6           0       -3.963280   -1.667137   -1.472289
     48          6           0       -4.464406   -0.288547   -1.283342
     49          6           0       -4.869398    0.414336   -0.142004
     50          6           0       -4.914815   -0.098993    1.306885
     51          6           0       -5.478248    1.759724   -0.267667
     52          6           0       -7.062377    1.781930   -0.450532
     53          6           0       -7.851858    2.555634    0.592151
     54          6           0       -9.106705    1.855534    1.009348
     55          6           0      -10.176332    2.929195    1.012159
     56          6           0       -9.049989    1.163943    2.387460
     57          6           0       -9.574958   -0.343699    2.458387
     58          6           0      -10.960887   -0.467840    3.103574
     59          6           0      -12.108259   -1.012473    2.205021
     60          6           0      -12.154070   -2.513867    2.289918
     61          6           0      -13.387096   -0.287521    2.472850
     62          6           0      -13.730349    0.750373    1.384892
     63          6           0      -14.785897    0.263745    0.292904
     64          6           0      -14.631193    1.024997   -1.037522
     65          6           0      -15.808739    0.863530   -1.928782
     66          6           0      -13.423604    0.368159   -1.866768
     67          1           0        2.430345    2.206273   -2.855843
     68          1           0        7.618777    4.230646    0.549217
     69          1           0        8.542732   -1.507902    2.777309
     70          1           0        1.790989   -2.432482   -2.304920
     71          1           0        0.736962    0.217882   -1.897734
     72          1           0        0.565933   -0.161820   -4.097375
     73          1           0        1.867833   -1.181832   -4.237007
     74          1           0        2.120852    0.573175   -4.302393
     75          1           0        0.102173   -0.923027   -0.247050
     76          1           0        1.085802   -2.295231    0.370526
     77          1           0       -0.842459   -3.501638   -0.315377
     78          1           0       -0.119986   -3.458235   -1.941010
     79          1           0        2.457084    4.952621   -2.353073
     80          1           0        3.167299    4.150970   -3.779304
     81          1           0        3.705739    5.732428   -3.465628
     82          1           0        7.570413    6.154128    0.155686
     83          1           0        6.032733    6.555368    0.799298
     84          1           0        6.808389    7.714215   -0.253440
     85          1           0        8.411566    3.257382    2.786407
     86          1           0        9.880498    0.678825    2.178395
     87          1           0        9.837036    3.190511    0.305462
     88          1           0       10.928816    2.427896    1.460947
     89          1           0       10.418345    3.974704    1.875906
     90          1           0        8.416256    0.404325    4.485749
     91          1           0        9.236515    2.062798    4.481570
     92          1           0       10.386815   -0.218693    5.384744
     93          1           0       11.234004    1.342291    4.622520
     94          1           0       11.076132   -0.127879    3.800678
     95          1           0        7.184981   -5.245825    2.417696
     96          1           0        7.668489   -3.970501    3.594614
     97          1           0        8.422782   -4.105786    2.022674
     98          1           0        2.511659   -4.262862    0.120896
     99          1           0        5.826684   -5.869076   -3.753633
    100          1           0        4.929418   -4.568348   -4.324966
    101          1           0        4.071267   -6.053504   -3.852236
    102          1           0       -4.483516   -2.434279   -0.897628
    103          1           0       -4.057713   -1.951643   -2.520639
    104          1           0       -4.654873    0.211401   -2.233803
    105          1           0       -4.866956   -1.184325    1.393943
    106          1           0       -5.902632    0.162008    1.686835
    107          1           0       -4.164958    0.404498    1.916644
    108          1           0       -5.100746    2.322894   -1.120596
    109          1           0       -5.214741    2.462857    0.521542
    110          1           0       -7.365108    0.734811   -0.445051
    111          1           0       -7.346659    2.225062   -1.404405
    112          1           0       -7.906018    3.602570    0.294269
    113          1           0       -7.244946    2.663227    1.491933
    114          1           0       -9.360645    1.101116    0.264493
    115          1           0       -9.786848    3.845779    1.456435
    116          1           0      -11.027923    2.686688    1.647084
    117          1           0      -10.575675    3.186312    0.030483
    118          1           0       -9.502664    1.901988    3.049865
    119          1           0       -7.996095    1.062070    2.646385
    120          1           0       -8.888697   -0.899926    3.096267
    121          1           0       -9.391375   -0.854607    1.513168
    122          1           0      -11.284402    0.454973    3.586929
    123          1           0      -10.807099   -1.182441    3.912117
    124          1           0      -11.954353   -0.862611    1.135862
    125          1           0      -11.401493   -3.078124    1.739358
    126          1           0      -13.080708   -2.870484    1.839302
    127          1           0      -12.251834   -2.845195    3.323351
    128          1           0      -13.571691    0.121236    3.466292
    129          1           0      -14.129077   -1.082901    2.407866
    130          1           0      -12.815724    1.120916    0.923171
    131          1           0      -14.210837    1.521601    1.987504
    132          1           0      -15.769217    0.604840    0.616121
    133          1           0      -14.784940   -0.812877    0.125361
    134          1           0      -14.407219    2.086939   -0.934723
    135          1           0      -16.240220   -0.133574   -1.831524
    136          1           0      -15.600765    0.885335   -2.997844
    137          1           0      -16.522573    1.641346   -1.657297
    138          1           0      -12.842023    1.178907   -2.304745
    139          1           0      -13.862211   -0.313432   -2.596122
    140          1           0      -12.813233   -0.174863   -1.144381
 ---------------------------------------------------------------------

 SCF Done:  E(RPBE1PBE) =  -3005.34657332     A.U. after   15 cycles

 Excitation energies and oscillator strengths:

 Excited State   1:      Singlet-A      1.8471 eV  671.23 nm  f=0.3649  <S**2>=0.000
     245 -> 248        0.17139
     246 -> 247        0.69483
     246 <- 247       -0.11163
 This state for optimization and/or second-order correction.
 Total Energy, E(TD-HF/TD-DFT) =  -3005.27869260
 Copying the excited state density for this state as the 1-particle RhoCI density.

 Excited State   2:      Singlet-A      2.2926 eV  540.81 nm  f=0.0926  <S**2>=0.000
     245 -> 247        0.63736
     246 -> 248       -0.29791

 Excited State   3:      Singlet-A      2.9616 eV  418.64 nm  f=0.0004  <S**2>=0.000
     243 -> 247        0.25387
     244 -> 247        0.62326
     244 -> 249        0.13894

 Excited State   4:      Singlet-A      3.1382 eV  395.08 nm  f=0.0037  <S**2>=0.000
     241 -> 247       -0.19576
     243 -> 247        0.61333
     244 -> 247       -0.26960

 Excited State   5:      Singlet-A      3.2599 eV  380.33 nm  f=0.0108  <S**2>=0.000
     239 -> 247        0.13171
     241 -> 247        0.63105
     243 -> 247        0.16810
     246 -> 248        0.20443

 The electronic state is 1-A.
 Alpha  occ. eigenvalues --  -46.92527 -19.25230 -19.24448 -19.19550 -19.19140
 Alpha  occ. eigenvalues --  -19.18669 -19.18636 -14.41632 -14.41533 -14.39315
 Alpha  occ. eigenvalues --  -14.38624 -10.35810 -10.35559 -10.32510 -10.31514
 Alpha  occ. eigenvalues --  -10.29301 -10.29146 -10.28608 -10.28489 -10.28371
 Alpha  occ. eigenvalues --  -10.28226 -10.27751 -10.27434 -10.26869 -10.26309
 Alpha  occ. eigenvalues --  -10.26160 -10.26154 -10.25687 -10.25682 -10.25462
 Alpha  occ. eigenvalues --  -10.25299 -10.25161 -10.25055 -10.24853 -10.24830
 Alpha  occ. eigenvalues --  -10.24552 -10.24539 -10.24507 -10.24273 -10.24045
 Alpha  occ. eigenvalues --  -10.24004 -10.23995 -10.23705 -10.23645 -10.23634
 Alpha  occ. eigenvalues --  -10.23422 -10.23192 -10.23059 -10.22954 -10.22911
 Alpha  occ. eigenvalues --  -10.22848 -10.22773 -10.22696 -10.22675 -10.22661
 Alpha  occ. eigenvalues --  -10.22585 -10.22542 -10.22414 -10.22102 -10.21841
 Alpha  occ. eigenvalues --  -10.21764 -10.21660 -10.21569 -10.21514 -10.21467
 Alpha  occ. eigenvalues --  -10.21308  -3.14691  -1.87488  -1.87070  -1.86917
 Alpha  occ. eigenvalues --   -1.10369  -1.09601  -1.06950  -1.03575  -1.01164
 Alpha  occ. eigenvalues --   -1.01077  -0.99576  -0.98693  -0.98020  -0.97015
 Alpha  occ. eigenvalues --   -0.86831  -0.84990  -0.84350  -0.84174  -0.83256
 Alpha  occ. eigenvalues --   -0.82838  -0.82609  -0.82215  -0.81568  -0.81264
 Alpha  occ. eigenvalues --   -0.80845  -0.79707  -0.78483  -0.78004  -0.77969
 Alpha  occ. eigenvalues --   -0.77124  -0.76609  -0.75559  -0.75103  -0.74350
 Alpha  occ. eigenvalues --   -0.74148  -0.72285  -0.71844  -0.71602  -0.70800
 Alpha  occ. eigenvalues --   -0.70154  -0.69511  -0.69230  -0.68814  -0.68614
 Alpha  occ. eigenvalues --   -0.67171  -0.66601  -0.65870  -0.64773  -0.63918
 Alpha  occ. eigenvalues --   -0.63106  -0.62950  -0.61235  -0.61036  -0.60392
 Alpha  occ. eigenvalues --   -0.59949  -0.59315  -0.59189  -0.58599  -0.58362
 Alpha  occ. eigenvalues --   -0.57757  -0.57437  -0.57345  -0.56968  -0.54606
 Alpha  occ. eigenvalues --   -0.54123  -0.53695  -0.53384  -0.53240  -0.52529
 Alpha  occ. eigenvalues --   -0.51636  -0.51376  -0.50971  -0.49991  -0.49640
 Alpha  occ. eigenvalues --   -0.49224  -0.48837  -0.48634  -0.48499  -0.48397
 Alpha  occ. eigenvalues --   -0.48098  -0.47906  -0.47535  -0.47401  -0.47359
 Alpha  occ. eigenvalues --   -0.47118  -0.46964  -0.46916  -0.46642  -0.46385
 Alpha  occ. eigenvalues --   -0.46020  -0.45702  -0.45445  -0.45408  -0.45177
 Alpha  occ. eigenvalues --   -0.44957  -0.44896  -0.44629  -0.44442  -0.44228
 Alpha  occ. eigenvalues --   -0.43962  -0.43903  -0.43658  -0.43533  -0.43373
 Alpha  occ. eigenvalues --   -0.43202  -0.43169  -0.42777  -0.42475  -0.42293
 Alpha  occ. eigenvalues --   -0.42182  -0.41689  -0.41539  -0.41160  -0.41068
 Alpha  occ. eigenvalues --   -0.41048  -0.40783  -0.40691  -0.40533  -0.40333
 Alpha  occ. eigenvalues --   -0.40153  -0.40016  -0.39892  -0.39758  -0.39428
 Alpha  occ. eigenvalues --   -0.39205  -0.39168  -0.39043  -0.38940  -0.38567
 Alpha  occ. eigenvalues --   -0.38461  -0.38218  -0.38044  -0.37836  -0.37775
 Alpha  occ. eigenvalues --   -0.37601  -0.37590  -0.37337  -0.37179  -0.37016
 Alpha  occ. eigenvalues --   -0.36930  -0.36622  -0.36507  -0.36462  -0.35897
 Alpha  occ. eigenvalues --   -0.35531  -0.35366  -0.35216  -0.34989  -0.34745
 Alpha  occ. eigenvalues --   -0.34636  -0.34235  -0.34079  -0.33980  -0.33676
 Alpha  occ. eigenvalues --   -0.33333  -0.33178  -0.32604  -0.32421  -0.32182
 Alpha  occ. eigenvalues --   -0.32096  -0.31384  -0.31337  -0.31243  -0.30574
 Alpha  occ. eigenvalues --   -0.30265  -0.30116  -0.30096  -0.29613  -0.29168
 Alpha  occ. eigenvalues --   -0.28529  -0.28340  -0.28023  -0.26561  -0.26065
 Alpha  occ. eigenvalues --   -0.25646  -0.25116  -0.24963  -0.24748  -0.20856
 Alpha  occ. eigenvalues --   -0.18234
 Alpha virt. eigenvalues --   -0.10686  -0.04843  -0.03325  -0.01789  -0.01503
 Alpha virt. eigenvalues --   -0.01361   0.00191   0.01285   0.01506   0.03111
 Alpha virt. eigenvalues --    0.04097   0.04611   0.04980   0.05286   0.05368

 Mulliken charges:
               1
     1  Mg   0.985449
     2  C   -0.118023
     3  C   -0.096261
     4  C   -0.059514
     5  C   -0.092738
     6  N   -0.368191
     7  C    0.039683
     8  C   -0.076815
     9  C   -0.110833
    10  C    0.110273
    11  C    0.014826
    12  C    0.005304
    13  C    0.005626
    14  C    0.193777
    15  O   -0.286586
    16  O   -0.371407
    17  N   -0.426406
    18  C    0.137160
    19  C   -0.185928
    20  C   -0.096313
    21  C    0.192434
    22  C    0.070642
    23  C    0.078829
    24  O   -0.208024
    25  C   -0.025449
    26  N   -0.420570
    27  C    0.014699
    28  C   -0.128673
    29  C   -0.063659
    30  C    0.100096
    31  C   -0.009090
    32  C   -0.025201
    33  C   -0.077109
    34  N   -0.477530
    35  C    0.127217
    36  C   -0.162321
    37  C   -0.069675
    38  C    0.208878
    39  C    0.057190
    40  C    0.152240
    41  O   -0.222867
    42  C   -0.108800
    43  C    0.302656
    44  O   -0.274317
    45  O   -0.372462
    46  C    0.125134
    47  C    0.265818
    48  C   -0.134980
    49  C   -0.188935
    50  C    0.032201
    51  C   -0.004470
    52  C   -0.058353
    53  C    0.012692
    54  C   -0.216486
    55  C   -0.026146
    56  C   -0.001102
    57  C   -0.029024
    58  C    0.032710
    59  C   -0.207343
    60  C   -0.011435
    61  C    0.006749
    62  C   -0.070317
    63  C    0.000872
    64  C   -0.269350
    65  C   -0.004227
    66  C   -0.030916
    67  H    0.009212
    68  H   -0.029319
    69  H   -0.003933
    70  H    0.062471
    71  H    0.051726
    72  H    0.050882
    73  H    0.037489
    74  H    0.036104
    75  H    0.062482
    76  H    0.053930
    77  H    0.054028
    78  H    0.076778
    79  H    0.060963
    80  H    0.040974
    81  H    0.070598
    82  H    0.070889
    83  H    0.067075
    84  H    0.057818
    85  H    0.059480
    86  H    0.045287
    87  H    0.056090
    88  H    0.039051
    89  H    0.041947
    90  H    0.047331
    91  H    0.040665
    92  H    0.057729
    93  H    0.046208
    94  H    0.029163
    95  H    0.057624
    96  H    0.056697
    97  H    0.043640
    98  H    0.071382
    99  H    0.049450
   100  H    0.044821
   101  H    0.077885
   102  H    0.042286
   103  H    0.048278
   104  H    0.029619
   105  H    0.040971
   106  H    0.037857
   107  H    0.062663
   108  H    0.028770
   109  H    0.029423
   110  H    0.037679
   111  H    0.041335
   112  H    0.026631
   113  H    0.008954
   114  H    0.032044
   115  H    0.028235
   116  H    0.028840
   117  H    0.036928
   118  H    0.025293
   119  H    0.022519
   120  H    0.017008
   121  H    0.024333
   122  H    0.025178
   123  H    0.021373
   124  H    0.035986
   125  H    0.038613
   126  H    0.017459
   127  H    0.027582
   128  H    0.022026
   129  H    0.002028
   130  H    0.054191
   131  H    0.028429
   132  H    0.028863
   133  H    0.034219
   134  H    0.034540
   135  H    0.026320
   136  H    0.032889
   137  H    0.036038
   138  H    0.041642
   139  H    0.036565
   140  H    0.026463
 Sum of Mulliken charges =  -0.00000

 Dipole moment (field-independent basis, Debye):
    X=              1.9282    Y=              3.6618    Z=              1.8004  Tot=              4.5131
 Quadrupole moment (field-independent basis, Debye-Ang):
   XX=           -315.1006   YY=           -442.6694   ZZ=           -396.8893
   XY=             15.0470   XZ=              6.4971   YZ=             20.7029

 Normal termination of Gaussian 16 at Wed May  4 01:21:52 2022.
