 Gaussian 16, Revision A.03,
 Gaussian 16:  ES64L-G16RevA.03 25-Dec-2016

 --------------------------------
 #p wB97XD/Def2SVP td=(nstates=5)
 --------------------------------

 ----------------------------------------------------
 step_1201_chromophore_5 TDDFT with wB97XD functional
 ----------------------------------------------------
 Symbolic Z-matrix:
 Charge =  0 Multiplicity = 1

                         Standard orientation:
 ---------------------------------------------------------------------
 Center     Atomic      Atomic             Coordinates (Angstroms)
 Number     Number       Type             X           Y           Z
 ---------------------------------------------------------------------
      1         12           0        5.755532    0.328509   -0.277818
      2          6           0        3.901223   -2.660285   -0.460273
      3          6           0        3.156056    1.817429   -2.139122
      4          6           0        6.983500    3.367394    0.340871
      5          6           0        7.783306   -1.050279    2.138323
      6          7           0        3.711551   -0.298598   -0.971349
      7          6           0        3.185770   -1.558878   -1.040187
      8          6           0        1.786356   -1.598564   -1.603065
      9          6           0        1.661563   -0.206896   -2.288296
     10          6           0        2.889139    0.522359   -1.712325
     11          6           0        1.604436   -0.229795   -3.776319
     12          6           0        0.601033   -1.858744   -0.502088
     13          6           0       -0.468854   -2.851443   -1.106724
     14          6           0       -1.560861   -2.103763   -1.822066
     15          8           0       -1.508411   -1.631250   -2.970521
     16          8           0       -2.578687   -1.866539   -0.947083
     17          7           0        5.248082    2.305634   -0.991185
     18          6           0        4.189315    2.693393   -1.713351
     19          6           0        4.249017    4.135592   -1.988733
     20          6           0        5.305489    4.613042   -1.240265
     21          6           0        5.898741    3.422498   -0.584223
     22          6           0        3.359341    4.835765   -2.953048
     23          6           0        5.728588    6.146708   -1.101807
     24          8           0        5.142387    6.918358   -1.796122
     25          6           0        6.635097    6.648076   -0.104855
     26          7           0        7.068285    1.035627    1.135074
     27          6           0        7.558542    2.297018    1.121142
     28          6           0        8.734810    2.502453    2.069491
     29          6           0        8.973711    1.112022    2.600146
     30          6           0        7.857091    0.301102    1.952260
     31          6           0       10.059531    3.079782    1.366552
     32          6           0        9.216696    1.039813    4.105288
     33          6           0       10.579616    0.472254    4.563763
     34          7           0        5.804755   -1.434577    0.770528
     35          6           0        6.815886   -1.941678    1.554971
     36          6           0        6.619065   -3.359968    1.772137
     37          6           0        5.418686   -3.675717    1.041403
     38          6           0        5.026506   -2.460852    0.374985
     39          6           0        7.471768   -4.203032    2.547212
     40          6           0        4.566266   -4.764188    0.682538
     41          8           0        4.448064   -5.890074    1.156478
     42          6           0        3.497639   -4.108260   -0.317517
     43          6           0        3.604153   -4.704018   -1.633397
     44          8           0        2.613605   -5.104051   -2.232460
     45          8           0        4.839243   -4.773457   -2.237165
     46          6           0        4.874378   -5.366781   -3.584368
     47          6           0       -3.963280   -1.667137   -1.472289
     48          6           0       -4.464406   -0.288547   -1.283342
     49          6           0       -4.869398    0.414336   -0.142004
     50          6           0       -4.914815   -0.098993    1.306885
     51          6           0       -5.478248    1.759724   -0.267667
     52          6           0       -7.062377    1.781930   -0.450532
     53          6           0       -7.851858    2.555634    0.592151
     54          6           0       -9.106705    1.855534    1.009348
     55          6           0      -10.176332    2.929195    1.012159
     56          6           0       -9.049989    1.163943    2.387460
     57          6           0       -9.574958   -0.343699    2.458387
     58          6           0      -10.960887   -0.467840    3.103574
     59          6           0      -12.108259   -1.012473    2.205021
     60          6           0      -12.154070   -2.513867    2.289918
     61          6           0      -13.387096   -0.287521    2.472850
     62          6           0      -13.730349    0.750373    1.384892
     63          6           0      -14.785897    0.263745    0.292904
     64          6           0      -14.631193    1.024997   -1.037522
     65          6           0      -15.808739    0.863530   -1.928782
     66          6           0      -13.423604    0.368159   -1.866768
     67          1           0        2.430345    2.206273   -2.855843
     68          1           0        7.618777    4.230646    0.549217
     69          1           0        8.542732   -1.507902    2.777309
     70          1           0        1.790989   -2.432482   -2.304920
     71          1           0        0.736962    0.217882   -1.897734
     72          1           0        0.565933   -0.161820   -4.097375
     73          1           0        1.867833   -1.181832   -4.237007
     74          1           0        2.120852    0.573175   -4.302393
     75          1           0        0.102173   -0.923027   -0.247050
     76          1           0        1.085802   -2.295231    0.370526
     77          1           0       -0.842459   -3.501638   -0.315377
     78          1           0       -0.119986   -3.458235   -1.941010
     79          1           0        2.457084    4.952621   -2.353073
     80          1           0        3.167299    4.150970   -3.779304
     81          1           0        3.705739    5.732428   -3.465628
     82          1           0        7.570413    6.154128    0.155686
     83          1           0        6.032733    6.555368    0.799298
     84          1           0        6.808389    7.714215   -0.253440
     85          1           0        8.411566    3.257382    2.786407
     86          1           0        9.880498    0.678825    2.178395
     87          1           0        9.837036    3.190511    0.305462
     88          1           0       10.928816    2.427896    1.460947
     89          1           0       10.418345    3.974704    1.875906
     90          1           0        8.416256    0.404325    4.485749
     91          1           0        9.236515    2.062798    4.481570
     92          1           0       10.386815   -0.218693    5.384744
     93          1           0       11.234004    1.342291    4.622520
     94          1           0       11.076132   -0.127879    3.800678
     95          1           0        7.184981   -5.245825    2.417696
     96          1           0        7.668489   -3.970501    3.594614
     97          1           0        8.422782   -4.105786    2.022674
     98          1           0        2.511659   -4.262862    0.120896
     99          1           0        5.826684   -5.869076   -3.753633
    100          1           0        4.929418   -4.568348   -4.324966
    101          1           0        4.071267   -6.053504   -3.852236
    102          1           0       -4.483516   -2.434279   -0.897628
    103          1           0       -4.057713   -1.951643   -2.520639
    104          1           0       -4.654873    0.211401   -2.233803
    105          1           0       -4.866956   -1.184325    1.393943
    106          1           0       -5.902632    0.162008    1.686835
    107          1           0       -4.164958    0.404498    1.916644
    108          1           0       -5.100746    2.322894   -1.120596
    109          1           0       -5.214741    2.462857    0.521542
    110          1           0       -7.365108    0.734811   -0.445051
    111          1           0       -7.346659    2.225062   -1.404405
    112          1           0       -7.906018    3.602570    0.294269
    113          1           0       -7.244946    2.663227    1.491933
    114          1           0       -9.360645    1.101116    0.264493
    115          1           0       -9.786848    3.845779    1.456435
    116          1           0      -11.027923    2.686688    1.647084
    117          1           0      -10.575675    3.186312    0.030483
    118          1           0       -9.502664    1.901988    3.049865
    119          1           0       -7.996095    1.062070    2.646385
    120          1           0       -8.888697   -0.899926    3.096267
    121          1           0       -9.391375   -0.854607    1.513168
    122          1           0      -11.284402    0.454973    3.586929
    123          1           0      -10.807099   -1.182441    3.912117
    124          1           0      -11.954353   -0.862611    1.135862
    125          1           0      -11.401493   -3.078124    1.739358
    126          1           0      -13.080708   -2.870484    1.839302
    127          1           0      -12.251834   -2.845195    3.323351
    128          1           0      -13.571691    0.121236    3.466292
    129          1           0      -14.129077   -1.082901    2.407866
    130          1           0      -12.815724    1.120916    0.923171
    131          1           0      -14.210837    1.521601    1.987504
    132          1           0      -15.769217    0.604840    0.616121
    133          1           0      -14.784940   -0.812877    0.125361
    134          1           0      -14.407219    2.086939   -0.934723
    135          1           0      -16.240220   -0.133574   -1.831524
    136          1           0      -15.600765    0.885335   -2.997844
    137          1           0      -16.522573    1.641346   -1.657297
    138          1           0      -12.842023    1.178907   -2.304745
    139          1           0      -13.862211   -0.313432   -2.596122
    140          1           0      -12.813233   -0.174863   -1.144381
 ---------------------------------------------------------------------

 SCF Done:  E(RwB97XD) =  -3007.85552770     A.U. after   19 cycles

 Excitation energies and oscillator strengths:

 Excited State   1:      Singlet-A      1.6614 eV  746.26 nm  f=0.3754  <S**2>=0.000
     245 -> 248        0.17723
     246 -> 247        0.68618
     245 <- 248        0.11544
 This state for optimization and/or second-order correction.
 Total Energy, E(TD-HF/TD-DFT) =  -3007.79447236
 Copying the excited state density for this state as the 1-particle RhoCI density.

 Excited State   2:      Singlet-A      2.2317 eV  555.55 nm  f=0.0912  <S**2>=0.000
     245 -> 247        0.62287
     246 -> 248       -0.32143

 Excited State   3:      Singlet-A      3.5089 eV  353.34 nm  f=0.3321  <S**2>=0.000
     243 -> 247       -0.21084
     243 -> 249       -0.14697
     244 -> 247        0.35594
     245 -> 247        0.20893
     246 -> 248        0.46454

 Excited State   4:      Singlet-A      3.5274 eV  351.49 nm  f=0.1377  <S**2>=0.000
     241 -> 247       -0.44091
     244 -> 247        0.44726
     245 -> 247       -0.11580
     246 -> 248       -0.24169

 Excited State   5:      Singlet-A      3.5917 eV  345.20 nm  f=0.0833  <S**2>=0.000
     240 -> 247        0.10019
     242 -> 247        0.12205
     243 -> 247        0.48392
     243 -> 249        0.29242
     243 -> 251       -0.13677
     244 -> 247        0.18877
     246 -> 248        0.20913

 The electronic state is 1-A.
 Alpha  occ. eigenvalues --  -46.95502 -19.29767 -19.28985 -19.24201 -19.24155
 Alpha  occ. eigenvalues --  -19.23269 -19.23219 -14.46710 -14.46654 -14.44492
 Alpha  occ. eigenvalues --  -14.43374 -10.42565 -10.42318 -10.39538 -10.38174
 Alpha  occ. eigenvalues --  -10.35842 -10.35737 -10.35178 -10.34946 -10.34807
 Alpha  occ. eigenvalues --  -10.34725 -10.34224 -10.33822 -10.32745 -10.32517
 Alpha  occ. eigenvalues --  -10.32470 -10.32332 -10.32136 -10.31938 -10.31855
 Alpha  occ. eigenvalues --  -10.31749 -10.31371 -10.31355 -10.31229 -10.31143
 Alpha  occ. eigenvalues --  -10.31002 -10.30995 -10.30873 -10.30611 -10.30534
 Alpha  occ. eigenvalues --  -10.30411 -10.30304 -10.30281 -10.30085 -10.30030
 Alpha  occ. eigenvalues --  -10.29767 -10.29558 -10.29555 -10.29413 -10.29275
 Alpha  occ. eigenvalues --  -10.29225 -10.29143 -10.29012 -10.28973 -10.28959
 Alpha  occ. eigenvalues --  -10.28879 -10.28832 -10.28475 -10.28367 -10.28212
 Alpha  occ. eigenvalues --  -10.28199 -10.28064 -10.27958 -10.27929 -10.27909
 Alpha  occ. eigenvalues --  -10.27738  -3.21536  -1.95079  -1.94663  -1.94506
 Alpha  occ. eigenvalues --   -1.17716  -1.16967  -1.14607  -1.10824  -1.08476
 Alpha  occ. eigenvalues --   -1.08407  -1.07037  -1.06289  -1.05341  -1.04221
 Alpha  occ. eigenvalues --   -0.94304  -0.92648  -0.91905  -0.91835  -0.90907
 Alpha  occ. eigenvalues --   -0.90505  -0.90278  -0.89866  -0.89191  -0.88946
 Alpha  occ. eigenvalues --   -0.88483  -0.87384  -0.86260  -0.85715  -0.85548
 Alpha  occ. eigenvalues --   -0.84847  -0.84259  -0.83165  -0.82698  -0.81982
 Alpha  occ. eigenvalues --   -0.81789  -0.79885  -0.79479  -0.79316  -0.78383
 Alpha  occ. eigenvalues --   -0.77832  -0.77138  -0.76908  -0.76494  -0.76299
 Alpha  occ. eigenvalues --   -0.74702  -0.74097  -0.73454  -0.72378  -0.71443
 Alpha  occ. eigenvalues --   -0.70740  -0.70365  -0.68861  -0.68779  -0.67878
 Alpha  occ. eigenvalues --   -0.67586  -0.66868  -0.66628  -0.66035  -0.65962
 Alpha  occ. eigenvalues --   -0.65298  -0.65074  -0.64727  -0.64627  -0.62126
 Alpha  occ. eigenvalues --   -0.61603  -0.61140  -0.60881  -0.60671  -0.59866
 Alpha  occ. eigenvalues --   -0.59103  -0.58813  -0.58417  -0.57298  -0.57002
 Alpha  occ. eigenvalues --   -0.56685  -0.56226  -0.55981  -0.55947  -0.55718
 Alpha  occ. eigenvalues --   -0.55436  -0.55279  -0.55018  -0.54900  -0.54781
 Alpha  occ. eigenvalues --   -0.54667  -0.54324  -0.54302  -0.54011  -0.53771
 Alpha  occ. eigenvalues --   -0.53322  -0.53061  -0.52904  -0.52752  -0.52539
 Alpha  occ. eigenvalues --   -0.52444  -0.52112  -0.52031  -0.51717  -0.51570
 Alpha  occ. eigenvalues --   -0.51205  -0.51157  -0.50949  -0.50805  -0.50696
 Alpha  occ. eigenvalues --   -0.50464  -0.50385  -0.50132  -0.49746  -0.49534
 Alpha  occ. eigenvalues --   -0.49411  -0.48897  -0.48843  -0.48376  -0.48321
 Alpha  occ. eigenvalues --   -0.48235  -0.48032  -0.47986  -0.47702  -0.47563
 Alpha  occ. eigenvalues --   -0.47281  -0.47216  -0.47114  -0.46999  -0.46529
 Alpha  occ. eigenvalues --   -0.46392  -0.46333  -0.46202  -0.46075  -0.45755
 Alpha  occ. eigenvalues --   -0.45654  -0.45386  -0.45049  -0.44991  -0.44896
 Alpha  occ. eigenvalues --   -0.44836  -0.44683  -0.44445  -0.44261  -0.44217
 Alpha  occ. eigenvalues --   -0.44072  -0.43702  -0.43625  -0.43570  -0.42941
 Alpha  occ. eigenvalues --   -0.42625  -0.42439  -0.42281  -0.42080  -0.41750
 Alpha  occ. eigenvalues --   -0.41668  -0.41263  -0.41118  -0.41043  -0.40676
 Alpha  occ. eigenvalues --   -0.40392  -0.40122  -0.39629  -0.39341  -0.39195
 Alpha  occ. eigenvalues --   -0.39082  -0.38380  -0.38327  -0.38234  -0.37609
 Alpha  occ. eigenvalues --   -0.37206  -0.37110  -0.37057  -0.36405  -0.36073
 Alpha  occ. eigenvalues --   -0.35474  -0.35378  -0.34860  -0.33465  -0.33194
 Alpha  occ. eigenvalues --   -0.32495  -0.31768  -0.31680  -0.31114  -0.25921
 Alpha  occ. eigenvalues --   -0.22424
 Alpha virt. eigenvalues --   -0.06518   0.00544   0.03029   0.04240   0.04984
 Alpha virt. eigenvalues --    0.05278   0.07032   0.08004   0.08370   0.09753
 Alpha virt. eigenvalues --    0.10989   0.11150   0.11592   0.11764   0.11935

 Mulliken charges:
               1
     1  Mg   0.976966
     2  C   -0.120570
     3  C   -0.115665
     4  C   -0.071530
     5  C   -0.108818
     6  N   -0.335726
     7  C    0.005351
     8  C   -0.052820
     9  C   -0.082525
    10  C    0.096982
    11  C    0.022228
    12  C    0.017629
    13  C    0.023420
    14  C    0.177910
    15  O   -0.283032
    16  O   -0.370931
    17  N   -0.394172
    18  C    0.135615
    19  C   -0.173580
    20  C   -0.095712
    21  C    0.196671
    22  C    0.081945
    23  C    0.077293
    24  O   -0.203533
    25  C   -0.018009
    26  N   -0.385847
    27  C    0.003699
    28  C   -0.103731
    29  C   -0.035608
    30  C    0.086806
    31  C    0.001650
    32  C   -0.010714
    33  C   -0.061061
    34  N   -0.439177
    35  C    0.111464
    36  C   -0.152642
    37  C   -0.069869
    38  C    0.191667
    39  C    0.064125
    40  C    0.131289
    41  O   -0.215172
    42  C   -0.067227
    43  C    0.278145
    44  O   -0.269257
    45  O   -0.371796
    46  C    0.141082
    47  C    0.278157
    48  C   -0.145887
    49  C   -0.174212
    50  C    0.053135
    51  C    0.011240
    52  C   -0.040131
    53  C    0.025421
    54  C   -0.186010
    55  C   -0.007829
    56  C    0.015801
    57  C   -0.013824
    58  C    0.045855
    59  C   -0.169503
    60  C    0.001918
    61  C    0.018419
    62  C   -0.043604
    63  C    0.016772
    64  C   -0.241786
    65  C    0.007186
    66  C   -0.013863
    67  H    0.002013
    68  H   -0.047115
    69  H   -0.009868
    70  H    0.043766
    71  H    0.041519
    72  H    0.046329
    73  H    0.033326
    74  H    0.029643
    75  H    0.055001
    76  H    0.045727
    77  H    0.050545
    78  H    0.071265
    79  H    0.056756
    80  H    0.035903
    81  H    0.069503
    82  H    0.069826
    83  H    0.062014
    84  H    0.057798
    85  H    0.050322
    86  H    0.028285
    87  H    0.049510
    88  H    0.034197
    89  H    0.037409
    90  H    0.039140
    91  H    0.031391
    92  H    0.053473
    93  H    0.039928
    94  H    0.022149
    95  H    0.053726
    96  H    0.051855
    97  H    0.035934
    98  H    0.065063
    99  H    0.045398
   100  H    0.040037
   101  H    0.074305
   102  H    0.038965
   103  H    0.045836
   104  H    0.026716
   105  H    0.036383
   106  H    0.022585
   107  H    0.057971
   108  H    0.022216
   109  H    0.021508
   110  H    0.024262
   111  H    0.034724
   112  H    0.019736
   113  H   -0.004073
   114  H    0.017434
   115  H    0.020733
   116  H    0.017831
   117  H    0.031543
   118  H    0.016625
   119  H    0.010435
   120  H    0.010491
   121  H    0.016133
   122  H    0.015257
   123  H    0.012826
   124  H    0.014143
   125  H    0.033981
   126  H    0.009674
   127  H    0.020702
   128  H    0.016218
   129  H   -0.009716
   130  H    0.033342
   131  H    0.021294
   132  H    0.019837
   133  H    0.024361
   134  H    0.025470
   135  H    0.019208
   136  H    0.026615
   137  H    0.030529
   138  H    0.036328
   139  H    0.029907
   140  H    0.015429
 Sum of Mulliken charges =  -0.00000

 Dipole moment (field-independent basis, Debye):
    X=              1.9156    Y=              4.2840    Z=              1.5100  Tot=              4.9298
 Quadrupole moment (field-independent basis, Debye-Ang):
   XX=           -315.4817   YY=           -441.0606   ZZ=           -396.7225
   XY=             18.9296   XZ=              4.6140   YZ=             20.6025

 Normal termination of Gaussian 16 at Wed May  4 01:49:54 2022.
