 Gaussian 16, Revision A.03,
 Gaussian 16:  ES64L-G16RevA.03 25-Dec-2016

 --------------------
 #p ZINDO=(nstates=5)
 --------------------

 -----------------------------
 step_1201_chromophore_5 ZINDO
 -----------------------------
 Symbolic Z-matrix:
 Charge =  0 Multiplicity = 1

                         Standard orientation:
 ---------------------------------------------------------------------
 Center     Atomic      Atomic             Coordinates (Angstroms)
 Number     Number       Type             X           Y           Z
 ---------------------------------------------------------------------
      1         12           0        5.755532    0.328509   -0.277818
      2          6           0        3.901223   -2.660285   -0.460273
      3          6           0        3.156056    1.817429   -2.139122
      4          6           0        6.983500    3.367394    0.340871
      5          6           0        7.783306   -1.050279    2.138323
      6          7           0        3.711551   -0.298598   -0.971349
      7          6           0        3.185770   -1.558878   -1.040187
      8          6           0        1.786356   -1.598564   -1.603065
      9          6           0        1.661563   -0.206896   -2.288296
     10          6           0        2.889139    0.522359   -1.712325
     11          6           0        1.604436   -0.229795   -3.776319
     12          6           0        0.601033   -1.858744   -0.502088
     13          6           0       -0.468854   -2.851443   -1.106724
     14          6           0       -1.560861   -2.103763   -1.822066
     15          8           0       -1.508411   -1.631250   -2.970521
     16          8           0       -2.578687   -1.866539   -0.947083
     17          7           0        5.248082    2.305634   -0.991185
     18          6           0        4.189315    2.693393   -1.713351
     19          6           0        4.249017    4.135592   -1.988733
     20          6           0        5.305489    4.613042   -1.240265
     21          6           0        5.898741    3.422498   -0.584223
     22          6           0        3.359341    4.835765   -2.953048
     23          6           0        5.728588    6.146708   -1.101807
     24          8           0        5.142387    6.918358   -1.796122
     25          6           0        6.635097    6.648076   -0.104855
     26          7           0        7.068285    1.035627    1.135074
     27          6           0        7.558542    2.297018    1.121142
     28          6           0        8.734810    2.502453    2.069491
     29          6           0        8.973711    1.112022    2.600146
     30          6           0        7.857091    0.301102    1.952260
     31          6           0       10.059531    3.079782    1.366552
     32          6           0        9.216696    1.039813    4.105288
     33          6           0       10.579616    0.472254    4.563763
     34          7           0        5.804755   -1.434577    0.770528
     35          6           0        6.815886   -1.941678    1.554971
     36          6           0        6.619065   -3.359968    1.772137
     37          6           0        5.418686   -3.675717    1.041403
     38          6           0        5.026506   -2.460852    0.374985
     39          6           0        7.471768   -4.203032    2.547212
     40          6           0        4.566266   -4.764188    0.682538
     41          8           0        4.448064   -5.890074    1.156478
     42          6           0        3.497639   -4.108260   -0.317517
     43          6           0        3.604153   -4.704018   -1.633397
     44          8           0        2.613605   -5.104051   -2.232460
     45          8           0        4.839243   -4.773457   -2.237165
     46          6           0        4.874378   -5.366781   -3.584368
     47          6           0       -3.963280   -1.667137   -1.472289
     48          6           0       -4.464406   -0.288547   -1.283342
     49          6           0       -4.869398    0.414336   -0.142004
     50          6           0       -4.914815   -0.098993    1.306885
     51          6           0       -5.478248    1.759724   -0.267667
     52          6           0       -7.062377    1.781930   -0.450532
     53          6           0       -7.851858    2.555634    0.592151
     54          6           0       -9.106705    1.855534    1.009348
     55          6           0      -10.176332    2.929195    1.012159
     56          6           0       -9.049989    1.163943    2.387460
     57          6           0       -9.574958   -0.343699    2.458387
     58          6           0      -10.960887   -0.467840    3.103574
     59          6           0      -12.108259   -1.012473    2.205021
     60          6           0      -12.154070   -2.513867    2.289918
     61          6           0      -13.387096   -0.287521    2.472850
     62          6           0      -13.730349    0.750373    1.384892
     63          6           0      -14.785897    0.263745    0.292904
     64          6           0      -14.631193    1.024997   -1.037522
     65          6           0      -15.808739    0.863530   -1.928782
     66          6           0      -13.423604    0.368159   -1.866768
     67          1           0        2.430345    2.206273   -2.855843
     68          1           0        7.618777    4.230646    0.549217
     69          1           0        8.542732   -1.507902    2.777309
     70          1           0        1.790989   -2.432482   -2.304920
     71          1           0        0.736962    0.217882   -1.897734
     72          1           0        0.565933   -0.161820   -4.097375
     73          1           0        1.867833   -1.181832   -4.237007
     74          1           0        2.120852    0.573175   -4.302393
     75          1           0        0.102173   -0.923027   -0.247050
     76          1           0        1.085802   -2.295231    0.370526
     77          1           0       -0.842459   -3.501638   -0.315377
     78          1           0       -0.119986   -3.458235   -1.941010
     79          1           0        2.457084    4.952621   -2.353073
     80          1           0        3.167299    4.150970   -3.779304
     81          1           0        3.705739    5.732428   -3.465628
     82          1           0        7.570413    6.154128    0.155686
     83          1           0        6.032733    6.555368    0.799298
     84          1           0        6.808389    7.714215   -0.253440
     85          1           0        8.411566    3.257382    2.786407
     86          1           0        9.880498    0.678825    2.178395
     87          1           0        9.837036    3.190511    0.305462
     88          1           0       10.928816    2.427896    1.460947
     89          1           0       10.418345    3.974704    1.875906
     90          1           0        8.416256    0.404325    4.485749
     91          1           0        9.236515    2.062798    4.481570
     92          1           0       10.386815   -0.218693    5.384744
     93          1           0       11.234004    1.342291    4.622520
     94          1           0       11.076132   -0.127879    3.800678
     95          1           0        7.184981   -5.245825    2.417696
     96          1           0        7.668489   -3.970501    3.594614
     97          1           0        8.422782   -4.105786    2.022674
     98          1           0        2.511659   -4.262862    0.120896
     99          1           0        5.826684   -5.869076   -3.753633
    100          1           0        4.929418   -4.568348   -4.324966
    101          1           0        4.071267   -6.053504   -3.852236
    102          1           0       -4.483516   -2.434279   -0.897628
    103          1           0       -4.057713   -1.951643   -2.520639
    104          1           0       -4.654873    0.211401   -2.233803
    105          1           0       -4.866956   -1.184325    1.393943
    106          1           0       -5.902632    0.162008    1.686835
    107          1           0       -4.164958    0.404498    1.916644
    108          1           0       -5.100746    2.322894   -1.120596
    109          1           0       -5.214741    2.462857    0.521542
    110          1           0       -7.365108    0.734811   -0.445051
    111          1           0       -7.346659    2.225062   -1.404405
    112          1           0       -7.906018    3.602570    0.294269
    113          1           0       -7.244946    2.663227    1.491933
    114          1           0       -9.360645    1.101116    0.264493
    115          1           0       -9.786848    3.845779    1.456435
    116          1           0      -11.027923    2.686688    1.647084
    117          1           0      -10.575675    3.186312    0.030483
    118          1           0       -9.502664    1.901988    3.049865
    119          1           0       -7.996095    1.062070    2.646385
    120          1           0       -8.888697   -0.899926    3.096267
    121          1           0       -9.391375   -0.854607    1.513168
    122          1           0      -11.284402    0.454973    3.586929
    123          1           0      -10.807099   -1.182441    3.912117
    124          1           0      -11.954353   -0.862611    1.135862
    125          1           0      -11.401493   -3.078124    1.739358
    126          1           0      -13.080708   -2.870484    1.839302
    127          1           0      -12.251834   -2.845195    3.323351
    128          1           0      -13.571691    0.121236    3.466292
    129          1           0      -14.129077   -1.082901    2.407866
    130          1           0      -12.815724    1.120916    0.923171
    131          1           0      -14.210837    1.521601    1.987504
    132          1           0      -15.769217    0.604840    0.616121
    133          1           0      -14.784940   -0.812877    0.125361
    134          1           0      -14.407219    2.086939   -0.934723
    135          1           0      -16.240220   -0.133574   -1.831524
    136          1           0      -15.600765    0.885335   -2.997844
    137          1           0      -16.522573    1.641346   -1.657297
    138          1           0      -12.842023    1.178907   -2.304745
    139          1           0      -13.862211   -0.313432   -2.596122
    140          1           0      -12.813233   -0.174863   -1.144381
 ---------------------------------------------------------------------

 SCF Done:  E(RZINDO/S) =  -474.538332237     A.U. after   19 cycles

 Excitation energies and oscillator strengths:

 Excited State   1:      Singlet-A      1.2855 eV  964.46 nm  f=0.5464  <S**2>=0.000
     175 ->178         0.16256
     176 ->177         0.67116
 This state for optimization and/or second-order correction.
 Total Energy, E(CIS/TDA) =  -474.491089865
 Copying the excited state density for this state as the 1-particle RhoCI density.

 Excited State   2:      Singlet-A      1.9162 eV  647.04 nm  f=0.0265  <S**2>=0.000
     175 ->177         0.52143
     176 ->178        -0.44407

 Excited State   3:      Singlet-A      2.7955 eV  443.51 nm  f=0.0090  <S**2>=0.000
     176 ->180         0.70122

 Excited State   4:      Singlet-A      2.9533 eV  419.82 nm  f=0.6992  <S**2>=0.000
     175 ->177         0.34495
     176 ->178         0.40707
     176 ->179        -0.35098
     176 ->181        -0.19922

 Excited State   5:      Singlet-A      3.0477 eV  406.81 nm  f=0.6401  <S**2>=0.000
     175 ->177         0.23438
     175 ->178        -0.10438
     176 ->178         0.31850
     176 ->179         0.48009
     176 ->181         0.19838

 The electronic state is 1-A.
 Alpha  occ. eigenvalues --   -1.84399  -1.82207  -1.81474  -1.72943  -1.71575
 Alpha  occ. eigenvalues --   -1.70345  -1.66767  -1.63587  -1.62858  -1.56838
 Alpha  occ. eigenvalues --   -1.56008  -1.51557  -1.50065  -1.47656  -1.46606
 Alpha  occ. eigenvalues --   -1.44360  -1.41630  -1.40837  -1.39505  -1.38976
 Alpha  occ. eigenvalues --   -1.36547  -1.34889  -1.32781  -1.31472  -1.28573
 Alpha  occ. eigenvalues --   -1.27607  -1.27299  -1.23459  -1.21461  -1.17779
 Alpha  occ. eigenvalues --   -1.16223  -1.14790  -1.13743  -1.13489  -1.13106
 Alpha  occ. eigenvalues --   -1.12194  -1.11785  -1.10539  -1.05870  -1.04727
 Alpha  occ. eigenvalues --   -1.01400  -1.01239  -0.99060  -0.97562  -0.97315
 Alpha  occ. eigenvalues --   -0.96792  -0.95461  -0.95175  -0.93352  -0.92532
 Alpha  occ. eigenvalues --   -0.91476  -0.90919  -0.89829  -0.88688  -0.87704
 Alpha  occ. eigenvalues --   -0.85936  -0.84943  -0.83282  -0.83105  -0.81297
 Alpha  occ. eigenvalues --   -0.79661  -0.78848  -0.77879  -0.77175  -0.76571
 Alpha  occ. eigenvalues --   -0.75431  -0.74906  -0.74287  -0.73660  -0.73234
 Alpha  occ. eigenvalues --   -0.72812  -0.72702  -0.71966  -0.71432  -0.70760
 Alpha  occ. eigenvalues --   -0.70379  -0.69483  -0.69366  -0.68708  -0.68299
 Alpha  occ. eigenvalues --   -0.67286  -0.67194  -0.66198  -0.65929  -0.65607
 Alpha  occ. eigenvalues --   -0.65166  -0.64953  -0.64191  -0.64085  -0.63717
 Alpha  occ. eigenvalues --   -0.63650  -0.62768  -0.62652  -0.62500  -0.62143
 Alpha  occ. eigenvalues --   -0.61640  -0.61499  -0.60920  -0.60141  -0.59642
 Alpha  occ. eigenvalues --   -0.59161  -0.59055  -0.58918  -0.58492  -0.58076
 Alpha  occ. eigenvalues --   -0.57733  -0.57615  -0.57121  -0.56594  -0.56339
 Alpha  occ. eigenvalues --   -0.55957  -0.55320  -0.55174  -0.54926  -0.54628
 Alpha  occ. eigenvalues --   -0.54203  -0.53927  -0.53045  -0.52998  -0.52661
 Alpha  occ. eigenvalues --   -0.52637  -0.52466  -0.51997  -0.51764  -0.51344
 Alpha  occ. eigenvalues --   -0.51072  -0.50783  -0.50649  -0.50437  -0.50296
 Alpha  occ. eigenvalues --   -0.50196  -0.49419  -0.48978  -0.48827  -0.48550
 Alpha  occ. eigenvalues --   -0.48308  -0.48260  -0.47927  -0.47702  -0.47677
 Alpha  occ. eigenvalues --   -0.47532  -0.47171  -0.46901  -0.46868  -0.46426
 Alpha  occ. eigenvalues --   -0.46109  -0.46010  -0.45848  -0.45673  -0.45151
 Alpha  occ. eigenvalues --   -0.44889  -0.44613  -0.44447  -0.44049  -0.43978
 Alpha  occ. eigenvalues --   -0.43453  -0.42926  -0.42378  -0.42351  -0.41824
 Alpha  occ. eigenvalues --   -0.41602  -0.40849  -0.40755  -0.38706  -0.38605
 Alpha  occ. eigenvalues --   -0.37586  -0.36795  -0.36182  -0.34831  -0.34160
 Alpha  occ. eigenvalues --   -0.33473  -0.32506  -0.31880  -0.31247  -0.26883
 Alpha  occ. eigenvalues --   -0.21673
 Alpha virt. eigenvalues --   -0.08222  -0.02177  -0.00175   0.00196   0.01539
 Alpha virt. eigenvalues --    0.02016   0.02875   0.03597   0.03675   0.04228
 Alpha virt. eigenvalues --    0.05789   0.06023   0.07743   0.07962   0.08088

 Mulliken charges:
               1
     1  Mg   0.443124
     2  C   -0.054395
     3  C   -0.094587
     4  C   -0.110951
     5  C   -0.060290
     6  N   -0.294553
     7  C    0.117337
     8  C   -0.001999
     9  C    0.015855
    10  C    0.167879
    11  C   -0.046779
    12  C   -0.017698
    13  C    0.004462
    14  C    0.476838
    15  O   -0.536502
    16  O   -0.283010
    17  N   -0.316982
    18  C    0.152943
    19  C    0.058210
    20  C   -0.054099
    21  C    0.144307
    22  C   -0.033473
    23  C    0.344052
    24  O   -0.508351
    25  C   -0.021643
    26  N   -0.257216
    27  C    0.156637
    28  C    0.007821
    29  C    0.001473
    30  C    0.085718
    31  C   -0.060297
    32  C   -0.034687
    33  C   -0.065656
    34  N   -0.314148
    35  C    0.044550
    36  C    0.026993
    37  C   -0.086908
    38  C    0.103657
    39  C   -0.032586
    40  C    0.320313
    41  O   -0.536951
    42  C    0.064881
    43  C    0.490957
    44  O   -0.556528
    45  O   -0.266983
    46  C    0.077959
    47  C    0.115978
    48  C   -0.091153
    49  C    0.011396
    50  C   -0.040887
    51  C   -0.021744
    52  C   -0.034795
    53  C   -0.027412
    54  C   -0.001139
    55  C   -0.054706
    56  C   -0.040653
    57  C   -0.036753
    58  C   -0.030168
    59  C   -0.000556
    60  C   -0.055072
    61  C   -0.034396
    62  C   -0.042561
    63  C   -0.030247
    64  C   -0.017965
    65  C   -0.051150
    66  C   -0.070591
    67  H    0.029350
    68  H    0.019834
    69  H    0.023211
    70  H    0.044597
    71  H    0.038155
    72  H    0.022441
    73  H    0.025247
    74  H    0.020849
    75  H    0.036571
    76  H    0.031481
    77  H    0.038586
    78  H    0.051738
    79  H    0.041284
    80  H    0.019853
    81  H    0.050144
    82  H    0.038836
    83  H    0.041558
    84  H    0.038243
    85  H    0.036836
    86  H    0.027774
    87  H    0.028221
    88  H    0.021683
    89  H    0.021205
    90  H    0.026632
    91  H    0.020008
    92  H    0.032819
    93  H    0.026875
    94  H    0.012520
    95  H    0.029266
    96  H    0.034126
    97  H    0.022763
    98  H    0.060040
    99  H    0.028192
   100  H    0.029517
   101  H    0.058574
   102  H    0.033202
   103  H    0.049053
   104  H    0.027978
   105  H    0.023440
   106  H    0.023573
   107  H    0.035311
   108  H    0.011659
   109  H    0.019285
   110  H    0.019697
   111  H    0.021142
   112  H    0.021078
   113  H    0.007566
   114  H    0.019687
   115  H    0.013963
   116  H    0.007134
   117  H    0.015066
   118  H    0.030424
   119  H    0.009703
   120  H    0.008236
   121  H    0.027758
   122  H    0.021152
   123  H    0.014568
   124  H    0.018704
   125  H    0.022155
   126  H    0.002987
   127  H    0.016514
   128  H    0.022720
   129  H    0.005872
   130  H    0.028780
   131  H    0.013666
   132  H    0.013246
   133  H    0.032934
   134  H    0.025015
   135  H    0.014829
   136  H    0.015558
   137  H    0.010204
   138  H    0.020217
   139  H    0.027348
   140  H    0.015427
 Sum of Mulliken charges =  -0.00000

 Dipole moment (field-independent basis, Debye):
    X=              2.8567    Y=              7.6534    Z=              1.8333  Tot=              8.3724
 N-N= 4.289936899020D+03 E-N= 0.000000000000D+00  KE=-9.254498612714D+03
 Leave Link  601 at Wed May  4 02:02:36 2022, MaxMem=  6710886400 cpu:               0.8 elap:               0.0
 (Enter /sw/apps/gaussian-16.0/g16/l9999.exe)
 1\1\GINC-BP1-COMPUTE069\SP\RZINDO CIS\STO-3G\C55H74Mg1N4O6\OF15641\04-
 May-2022\0\\#p ZINDO=(nstates=5)\\step_1201_chromophore_5 ZINDO\\0,1\M
 g,0,25.31,-8.057,46.857\C,0,26.997,-5.367,45.333\C,0,22.674,-7.417,44.
 603\C,0,23.843,-10.939,47.674\C,0,28.218,-9.021,48.427\N,0,25.012,-6.7
 32,45.066\C,0,25.756,-5.655,44.671\C,0,25.225,-4.977,43.432\C,0,23.773
 ,-5.53,43.344\C,0,23.831,-6.688,44.357\C,0,22.694,-4.538,43.608\C,0,26
 .082,-5.258,42.064\C,0,26.197,-3.92,41.232\C,0,25.056,-3.784,40.261\O,

 Normal termination of Gaussian 16 at Wed May  4 02:02:36 2022.
