 Gaussian 16, Revision A.03,
 Gaussian 16:  ES64L-G16RevA.03 25-Dec-2016

 ------------------------------
 #p blyp/Def2SVP td=(nstates=5)
 ------------------------------

 ---------------------------------------------------
 step_1751_chromophore_13 TDDFT with blyp functional
 ---------------------------------------------------
 Symbolic Z-matrix:
 Charge =  0 Multiplicity = 1

                         Standard orientation:
 ---------------------------------------------------------------------
 Center     Atomic      Atomic             Coordinates (Angstroms)
 Number     Number       Type             X           Y           Z
 ---------------------------------------------------------------------
      1         12           0       -5.678038    0.463240   -0.423008
      2          6           0       -3.602190   -2.397556    0.077773
      3          6           0       -2.981021    2.415942    0.672899
      4          6           0       -7.893344    2.857286    0.072862
      5          6           0       -8.359741   -1.810849   -0.828177
      6          7           0       -3.489706    0.037802    0.240155
      7          6           0       -2.912612   -1.171821    0.339916
      8          6           0       -1.425568   -1.022995    0.555743
      9          6           0       -1.306332    0.536304    1.031996
     10          6           0       -2.674399    1.031700    0.597739
     11          6           0       -0.824705    0.723079    2.529331
     12          6           0       -0.628158   -1.239688   -0.754212
     13          6           0        0.665466   -2.066437   -0.647748
     14          6           0        2.154738   -1.505697   -1.013797
     15          8           0        2.383259   -0.572622   -1.701992
     16          8           0        3.065511   -2.443686   -0.545737
     17          7           0       -5.439403    2.480539   -0.004848
     18          6           0       -4.281356    3.074591    0.507633
     19          6           0       -4.622501    4.478201    0.670218
     20          6           0       -6.005232    4.604920    0.462390
     21          6           0       -6.535503    3.311898    0.135860
     22          6           0       -3.465600    5.516090    0.986586
     23          6           0       -6.903019    5.803951    0.598363
     24          8           0       -8.088581    5.827605    0.277615
     25          6           0       -6.359027    6.977679    1.164394
     26          7           0       -7.784079    0.513757   -0.349334
     27          6           0       -8.489316    1.624345   -0.081105
     28          6           0      -10.016080    1.398613   -0.020713
     29          6           0      -10.163009   -0.053567   -0.612538
     30          6           0       -8.682029   -0.478791   -0.579073
     31          6           0      -10.592132    1.596320    1.428890
     32          6           0      -10.893053   -0.050467   -2.020798
     33          6           0      -10.027325    0.190920   -3.240695
     34          7           0       -6.024496   -1.652745   -0.503162
     35          6           0       -7.154861   -2.424214   -0.737608
     36          6           0       -6.743887   -3.818863   -0.766854
     37          6           0       -5.435521   -3.857711   -0.465119
     38          6           0       -5.004013   -2.545200   -0.202622
     39          6           0       -7.642238   -5.097710   -1.212718
     40          6           0       -4.259280   -4.732869   -0.276410
     41          8           0       -4.219916   -5.924387   -0.373684
     42          6           0       -3.031333   -3.789811    0.124619
     43          6           0       -2.595612   -4.221361    1.435955
     44          8           0       -3.262770   -4.350072    2.427265
     45          8           0       -1.155244   -4.358981    1.392823
     46          6           0       -0.317748   -4.611422    2.618055
     47          6           0        4.475957   -2.130925   -0.912065
     48          6           0        5.067411   -1.097574    0.012807
     49          6           0        6.348594   -0.796490    0.181886
     50          6           0        7.510044   -1.594553   -0.392944
     51          6           0        6.695614    0.432696    1.063993
     52          6           0        6.971839    1.696039    0.222273
     53          6           0        8.413077    2.214920    0.234876
     54          6           0        9.065030    2.871564   -1.059280
     55          6           0        8.027908    3.710247   -1.790751
     56          6           0        9.774209    1.828640   -2.023098
     57          6           0       11.293757    2.194806   -2.132768
     58          6           0       12.209954    0.951836   -2.557476
     59          6           0       13.345789    0.499096   -1.616134
     60          6           0       14.741722    0.399570   -2.286195
     61          6           0       12.933157   -0.778650   -0.874892
     62          6           0       13.414257   -0.790901    0.582278
     63          6           0       12.612637    0.226867    1.475154
     64          6           0       11.857359   -0.415246    2.681182
     65          6           0       10.527833   -1.091076    2.162936
     66          6           0       11.482333    0.630606    3.751014
     67          1           0       -2.134958    2.994719    1.047286
     68          1           0       -8.672093    3.586817    0.303775
     69          1           0       -9.140741   -2.566623   -0.934145
     70          1           0       -1.075801   -1.738166    1.301516
     71          1           0       -0.641728    1.124280    0.400238
     72          1           0       -1.682276    0.930723    3.169134
     73          1           0       -0.049536    1.488413    2.549815
     74          1           0       -0.403609   -0.244032    2.801554
     75          1           0       -0.183256   -0.322805   -1.142276
     76          1           0       -1.286896   -1.572096   -1.555754
     77          1           0        0.548911   -3.013268   -1.174010
     78          1           0        0.631444   -2.505912    0.349300
     79          1           0       -3.232271    5.728675    2.030067
     80          1           0       -3.534416    6.448571    0.425468
     81          1           0       -2.560175    5.184325    0.480088
     82          1           0       -5.679364    7.303432    0.377561
     83          1           0       -6.036049    6.616532    2.140540
     84          1           0       -7.180705    7.690885    1.228215
     85          1           0      -10.492641    2.138610   -0.664285
     86          1           0      -10.757991   -0.689325    0.043298
     87          1           0       -9.936704    2.147782    2.102939
     88          1           0      -10.705193    0.590123    1.831744
     89          1           0      -11.594840    2.013016    1.514390
     90          1           0      -11.539158    0.826261   -2.052474
     91          1           0      -11.518241   -0.914586   -2.248030
     92          1           0      -10.264696    1.128392   -3.744686
     93          1           0      -10.249847   -0.574705   -3.982469
     94          1           0       -8.953815    0.037871   -3.124926
     95          1           0       -8.677247   -4.769610   -1.117188
     96          1           0       -7.536178   -5.886791   -0.468203
     97          1           0       -7.373499   -5.470050   -2.201179
     98          1           0       -2.241273   -3.959487   -0.606784
     99          1           0        0.371662   -5.451492    2.532224
    100          1           0       -0.894626   -4.831961    3.515790
    101          1           0        0.329485   -3.750882    2.788146
    102          1           0        4.561917   -1.862460   -1.964358
    103          1           0        5.065491   -3.046740   -0.875823
    104          1           0        4.305331   -0.462098    0.465101
    105          1           0        7.188863   -2.169720   -1.261923
    106          1           0        8.000820   -2.165335    0.393772
    107          1           0        8.249653   -0.902922   -0.796702
    108          1           0        7.569366    0.229199    1.683086
    109          1           0        5.953639    0.653693    1.831381
    110          1           0        6.330874    2.523137    0.527284
    111          1           0        6.722608    1.381822   -0.791680
    112          1           0        9.141265    1.488201    0.596475
    113          1           0        8.466890    2.980556    1.008934
    114          1           0        9.803387    3.573847   -0.673597
    115          1           0        6.995165    3.403913   -1.626108
    116          1           0        8.283935    3.749289   -2.850002
    117          1           0        8.082944    4.669667   -1.277216
    118          1           0        9.508579    1.862318   -3.079595
    119          1           0        9.566106    0.791654   -1.757183
    120          1           0       11.675685    2.739429   -1.268470
    121          1           0       11.418821    2.884399   -2.966617
    122          1           0       12.499591    1.211905   -3.574697
    123          1           0       11.528813    0.118431   -2.727682
    124          1           0       13.409917    1.241044   -0.820687
    125          1           0       14.552572    0.510378   -3.353999
    126          1           0       15.293178   -0.532244   -2.163750
    127          1           0       15.421195    1.148797   -1.879969
    128          1           0       13.424732   -1.590349   -1.411298
    129          1           0       11.853116   -0.914222   -0.820220
    130          1           0       14.483388   -0.576887    0.600104
    131          1           0       13.265474   -1.820281    0.908893
    132          1           0       11.863577    0.642882    0.801494
    133          1           0       13.306160    0.983710    1.840962
    134          1           0       12.447408   -1.238339    3.084253
    135          1           0       10.780936   -2.132761    1.965585
    136          1           0       10.166505   -0.500733    1.320493
    137          1           0        9.828000   -1.205962    2.990587
    138          1           0       11.743332    1.635634    3.418117
    139          1           0       12.126413    0.338435    4.580433
    140          1           0       10.419196    0.766199    3.951041
 ---------------------------------------------------------------------

 SCF Done:  E(RB-LYP) =  -3007.34787966     A.U. after   21 cycles

 Excitation energies and oscillator strengths:

 Excited State   1:      Singlet-A      1.7616 eV  703.84 nm  f=0.0016  <S**2>=0.000
     244 -> 247        0.67425
     245 -> 247       -0.20605
 This state for optimization and/or second-order correction.
 Total Energy, E(TD-HF/TD-DFT) =  -3007.28314389
 Copying the excited state density for this state as the 1-particle RhoCI density.

 Excited State   2:      Singlet-A      1.8692 eV  663.30 nm  f=0.2970  <S**2>=0.000
     245 -> 248        0.21288
     246 -> 247        0.68343
     246 <- 247       -0.14134

 Excited State   3:      Singlet-A      2.0391 eV  608.04 nm  f=0.0683  <S**2>=0.000
     244 -> 247        0.19728
     245 -> 247        0.61747
     246 -> 248       -0.26316

 Excited State   4:      Singlet-A      2.2036 eV  562.64 nm  f=0.0001  <S**2>=0.000
     243 -> 247        0.70588

 Excited State   5:      Singlet-A      2.5677 eV  482.86 nm  f=0.0009  <S**2>=0.000
     242 -> 247        0.69786

 The electronic state is 1-A.
 Alpha  occ. eigenvalues --  -46.27781 -18.82303 -18.81356 -18.78181 -18.77634
 Alpha  occ. eigenvalues --  -18.76560 -18.74596 -14.03216 -14.03199 -14.01016
 Alpha  occ. eigenvalues --  -14.00564 -10.04858 -10.04217 -10.00199  -9.98415
 Alpha  occ. eigenvalues --   -9.98199  -9.97933  -9.96740  -9.96368  -9.96296
 Alpha  occ. eigenvalues --   -9.96085  -9.95795  -9.95735  -9.94984  -9.94740
 Alpha  occ. eigenvalues --   -9.94306  -9.94151  -9.94118  -9.94069  -9.94049
 Alpha  occ. eigenvalues --   -9.94002  -9.93978  -9.93600  -9.93486  -9.93204
 Alpha  occ. eigenvalues --   -9.93204  -9.93086  -9.92844  -9.92842  -9.92789
 Alpha  occ. eigenvalues --   -9.92752  -9.92691  -9.92331  -9.92276  -9.92163
 Alpha  occ. eigenvalues --   -9.92122  -9.92065  -9.91980  -9.91782  -9.91743
 Alpha  occ. eigenvalues --   -9.91708  -9.91654  -9.91538  -9.91524  -9.91482
 Alpha  occ. eigenvalues --   -9.91436  -9.91184  -9.91137  -9.91101  -9.90982
 Alpha  occ. eigenvalues --   -9.90976  -9.90916  -9.90903  -9.90765  -9.90659
 Alpha  occ. eigenvalues --   -9.90442  -2.92265  -1.72693  -1.72179  -1.71946
 Alpha  occ. eigenvalues --   -0.98493  -0.96332  -0.93227  -0.91461  -0.90940
 Alpha  occ. eigenvalues --   -0.89277  -0.86938  -0.86713  -0.85012  -0.84317
 Alpha  occ. eigenvalues --   -0.75647  -0.73569  -0.73005  -0.72042  -0.71941
 Alpha  occ. eigenvalues --   -0.71694  -0.71261  -0.70756  -0.70704  -0.69850
 Alpha  occ. eigenvalues --   -0.68864  -0.68553  -0.68184  -0.67593  -0.66946
 Alpha  occ. eigenvalues --   -0.66334  -0.66225  -0.65282  -0.64807  -0.64450
 Alpha  occ. eigenvalues --   -0.64112  -0.62129  -0.61874  -0.61631  -0.60868
 Alpha  occ. eigenvalues --   -0.60690  -0.60172  -0.59935  -0.59485  -0.58920
 Alpha  occ. eigenvalues --   -0.58423  -0.57807  -0.56858  -0.55247  -0.54918
 Alpha  occ. eigenvalues --   -0.54248  -0.53924  -0.53042  -0.52356  -0.51549
 Alpha  occ. eigenvalues --   -0.51221  -0.50973  -0.50468  -0.50166  -0.49755
 Alpha  occ. eigenvalues --   -0.49045  -0.48664  -0.48061  -0.47725  -0.47141
 Alpha  occ. eigenvalues --   -0.46002  -0.45636  -0.45404  -0.44966  -0.44699
 Alpha  occ. eigenvalues --   -0.44040  -0.43877  -0.42717  -0.42439  -0.42213
 Alpha  occ. eigenvalues --   -0.41669  -0.41647  -0.41564  -0.41284  -0.40941
 Alpha  occ. eigenvalues --   -0.40889  -0.40676  -0.40617  -0.40252  -0.40062
 Alpha  occ. eigenvalues --   -0.39868  -0.39585  -0.39484  -0.39318  -0.39153
 Alpha  occ. eigenvalues --   -0.39097  -0.38940  -0.38597  -0.38271  -0.38059
 Alpha  occ. eigenvalues --   -0.37924  -0.37872  -0.37393  -0.37342  -0.37151
 Alpha  occ. eigenvalues --   -0.37013  -0.36915  -0.36779  -0.36588  -0.36470
 Alpha  occ. eigenvalues --   -0.36414  -0.36353  -0.36204  -0.36150  -0.35813
 Alpha  occ. eigenvalues --   -0.35748  -0.35126  -0.34932  -0.34815  -0.34680
 Alpha  occ. eigenvalues --   -0.34596  -0.33992  -0.33943  -0.33915  -0.33802
 Alpha  occ. eigenvalues --   -0.33665  -0.33652  -0.33424  -0.33389  -0.33160
 Alpha  occ. eigenvalues --   -0.32840  -0.32689  -0.32581  -0.32420  -0.32168
 Alpha  occ. eigenvalues --   -0.32116  -0.31663  -0.31543  -0.31463  -0.31199
 Alpha  occ. eigenvalues --   -0.31048  -0.30771  -0.30745  -0.30654  -0.30513
 Alpha  occ. eigenvalues --   -0.30465  -0.30266  -0.29996  -0.29652  -0.29602
 Alpha  occ. eigenvalues --   -0.29514  -0.29466  -0.29373  -0.29352  -0.29058
 Alpha  occ. eigenvalues --   -0.28999  -0.28786  -0.28387  -0.28038  -0.27633
 Alpha  occ. eigenvalues --   -0.27463  -0.26869  -0.26700  -0.26625  -0.26499
 Alpha  occ. eigenvalues --   -0.26345  -0.25936  -0.25860  -0.25532  -0.25376
 Alpha  occ. eigenvalues --   -0.25220  -0.24864  -0.24782  -0.24126  -0.23732
 Alpha  occ. eigenvalues --   -0.23711  -0.23118  -0.22876  -0.21973  -0.20815
 Alpha  occ. eigenvalues --   -0.20809  -0.20272  -0.19336  -0.17790  -0.17178
 Alpha  occ. eigenvalues --   -0.15865
 Alpha virt. eigenvalues --   -0.11350  -0.06802  -0.05767  -0.04265  -0.03165
 Alpha virt. eigenvalues --   -0.02807  -0.02258  -0.01605  -0.01424   0.00451
 Alpha virt. eigenvalues --    0.01221   0.01355   0.01718   0.02332   0.02849

 Mulliken charges:
               1
     1  Mg   0.696049
     2  C   -0.003580
     3  C   -0.033212
     4  C   -0.010788
     5  C   -0.072518
     6  N   -0.153455
     7  C   -0.073613
     8  C    0.000712
     9  C   -0.022446
    10  C   -0.014043
    11  C    0.147132
    12  C    0.145439
    13  C    0.051101
    14  C    0.105550
    15  O   -0.139063
    16  O   -0.284789
    17  N   -0.341054
    18  C    0.129973
    19  C   -0.125178
    20  C    0.043346
    21  C    0.116965
    22  C    0.136210
    23  C   -0.135618
    24  O   -0.172322
    25  C    0.202745
    26  N   -0.203985
    27  C   -0.013009
    28  C    0.024016
    29  C    0.065400
    30  C    0.039350
    31  C    0.119636
    32  C    0.090667
    33  C    0.041785
    34  N   -0.280525
    35  C    0.100742
    36  C   -0.204699
    37  C    0.128147
    38  C    0.065249
    39  C    0.152156
    40  C   -0.061905
    41  O   -0.087931
    42  C    0.098168
    43  C    0.125642
    44  O   -0.131764
    45  O   -0.338699
    46  C    0.204248
    47  C    0.298737
    48  C   -0.083790
    49  C   -0.159718
    50  C    0.164083
    51  C    0.140272
    52  C    0.068803
    53  C    0.062279
    54  C   -0.043136
    55  C    0.106997
    56  C    0.084481
    57  C    0.016584
    58  C    0.101435
    59  C   -0.057820
    60  C    0.120903
    61  C    0.075697
    62  C    0.075043
    63  C    0.080101
    64  C   -0.113762
    65  C    0.054565
    66  C    0.121544
    67  H   -0.060007
    68  H   -0.048641
    69  H   -0.072921
    70  H   -0.017347
    71  H   -0.014512
    72  H    0.002505
    73  H   -0.000844
    74  H   -0.010608
    75  H   -0.019792
    76  H   -0.021755
    77  H    0.001621
    78  H   -0.024476
    79  H    0.014247
    80  H   -0.016878
    81  H   -0.013512
    82  H    0.009139
    83  H    0.013448
    84  H   -0.017097
    85  H   -0.014866
    86  H   -0.031170
    87  H    0.002817
    88  H   -0.021439
    89  H   -0.004446
    90  H   -0.024452
    91  H   -0.017039
    92  H   -0.006374
    93  H   -0.026039
    94  H    0.005620
    95  H   -0.020444
    96  H    0.008049
    97  H    0.024394
    98  H   -0.007327
    99  H    0.015548
   100  H    0.021845
   101  H    0.014651
   102  H    0.007311
   103  H   -0.004602
   104  H   -0.032403
   105  H   -0.015412
   106  H    0.019037
   107  H   -0.020753
   108  H   -0.038327
   109  H   -0.038297
   110  H   -0.016467
   111  H   -0.004721
   112  H   -0.044239
   113  H   -0.043824
   114  H   -0.032152
   115  H   -0.011580
   116  H   -0.011635
   117  H   -0.030509
   118  H   -0.033668
   119  H   -0.018042
   120  H   -0.017280
   121  H   -0.029561
   122  H   -0.046786
   123  H   -0.044001
   124  H   -0.037812
   125  H   -0.017199
   126  H   -0.021822
   127  H   -0.013684
   128  H   -0.039640
   129  H   -0.028712
   130  H   -0.038442
   131  H   -0.034762
   132  H   -0.013789
   133  H   -0.023528
   134  H   -0.030958
   135  H   -0.019923
   136  H    0.026115
   137  H   -0.012374
   138  H   -0.029313
   139  H   -0.003569
   140  H   -0.014101
 Sum of Mulliken charges =  -0.00000

 Dipole moment (field-independent basis, Debye):
    X=              3.7823    Y=              1.7794    Z=              0.3966  Tot=              4.1988
 Quadrupole moment (field-independent basis, Debye-Ang):
   XX=           -372.2361   YY=           -433.5865   ZZ=           -402.7942
   XY=              1.7346   XZ=             14.2063   YZ=              8.0486

 Normal termination of Gaussian 16 at Wed May  4 13:38:43 2022.
