 Gaussian 16, Revision A.03,
 Gaussian 16:  ES64L-G16RevA.03 25-Dec-2016

 -----------------------------------
 #p cam-b3lyp/Def2SVP td=(nstates=5)
 -----------------------------------

 --------------------------------------------------------
 step_1751_chromophore_13 TDDFT with cam-b3lyp functional
 --------------------------------------------------------
 Symbolic Z-matrix:
 Charge =  0 Multiplicity = 1

                         Standard orientation:
 ---------------------------------------------------------------------
 Center     Atomic      Atomic             Coordinates (Angstroms)
 Number     Number       Type             X           Y           Z
 ---------------------------------------------------------------------
      1         12           0       -5.678038    0.463240   -0.423008
      2          6           0       -3.602190   -2.397556    0.077773
      3          6           0       -2.981021    2.415942    0.672899
      4          6           0       -7.893344    2.857286    0.072862
      5          6           0       -8.359741   -1.810849   -0.828177
      6          7           0       -3.489706    0.037802    0.240155
      7          6           0       -2.912612   -1.171821    0.339916
      8          6           0       -1.425568   -1.022995    0.555743
      9          6           0       -1.306332    0.536304    1.031996
     10          6           0       -2.674399    1.031700    0.597739
     11          6           0       -0.824705    0.723079    2.529331
     12          6           0       -0.628158   -1.239688   -0.754212
     13          6           0        0.665466   -2.066437   -0.647748
     14          6           0        2.154738   -1.505697   -1.013797
     15          8           0        2.383259   -0.572622   -1.701992
     16          8           0        3.065511   -2.443686   -0.545737
     17          7           0       -5.439403    2.480539   -0.004848
     18          6           0       -4.281356    3.074591    0.507633
     19          6           0       -4.622501    4.478201    0.670218
     20          6           0       -6.005232    4.604920    0.462390
     21          6           0       -6.535503    3.311898    0.135860
     22          6           0       -3.465600    5.516090    0.986586
     23          6           0       -6.903019    5.803951    0.598363
     24          8           0       -8.088581    5.827605    0.277615
     25          6           0       -6.359027    6.977679    1.164394
     26          7           0       -7.784079    0.513757   -0.349334
     27          6           0       -8.489316    1.624345   -0.081105
     28          6           0      -10.016080    1.398613   -0.020713
     29          6           0      -10.163009   -0.053567   -0.612538
     30          6           0       -8.682029   -0.478791   -0.579073
     31          6           0      -10.592132    1.596320    1.428890
     32          6           0      -10.893053   -0.050467   -2.020798
     33          6           0      -10.027325    0.190920   -3.240695
     34          7           0       -6.024496   -1.652745   -0.503162
     35          6           0       -7.154861   -2.424214   -0.737608
     36          6           0       -6.743887   -3.818863   -0.766854
     37          6           0       -5.435521   -3.857711   -0.465119
     38          6           0       -5.004013   -2.545200   -0.202622
     39          6           0       -7.642238   -5.097710   -1.212718
     40          6           0       -4.259280   -4.732869   -0.276410
     41          8           0       -4.219916   -5.924387   -0.373684
     42          6           0       -3.031333   -3.789811    0.124619
     43          6           0       -2.595612   -4.221361    1.435955
     44          8           0       -3.262770   -4.350072    2.427265
     45          8           0       -1.155244   -4.358981    1.392823
     46          6           0       -0.317748   -4.611422    2.618055
     47          6           0        4.475957   -2.130925   -0.912065
     48          6           0        5.067411   -1.097574    0.012807
     49          6           0        6.348594   -0.796490    0.181886
     50          6           0        7.510044   -1.594553   -0.392944
     51          6           0        6.695614    0.432696    1.063993
     52          6           0        6.971839    1.696039    0.222273
     53          6           0        8.413077    2.214920    0.234876
     54          6           0        9.065030    2.871564   -1.059280
     55          6           0        8.027908    3.710247   -1.790751
     56          6           0        9.774209    1.828640   -2.023098
     57          6           0       11.293757    2.194806   -2.132768
     58          6           0       12.209954    0.951836   -2.557476
     59          6           0       13.345789    0.499096   -1.616134
     60          6           0       14.741722    0.399570   -2.286195
     61          6           0       12.933157   -0.778650   -0.874892
     62          6           0       13.414257   -0.790901    0.582278
     63          6           0       12.612637    0.226867    1.475154
     64          6           0       11.857359   -0.415246    2.681182
     65          6           0       10.527833   -1.091076    2.162936
     66          6           0       11.482333    0.630606    3.751014
     67          1           0       -2.134958    2.994719    1.047286
     68          1           0       -8.672093    3.586817    0.303775
     69          1           0       -9.140741   -2.566623   -0.934145
     70          1           0       -1.075801   -1.738166    1.301516
     71          1           0       -0.641728    1.124280    0.400238
     72          1           0       -1.682276    0.930723    3.169134
     73          1           0       -0.049536    1.488413    2.549815
     74          1           0       -0.403609   -0.244032    2.801554
     75          1           0       -0.183256   -0.322805   -1.142276
     76          1           0       -1.286896   -1.572096   -1.555754
     77          1           0        0.548911   -3.013268   -1.174010
     78          1           0        0.631444   -2.505912    0.349300
     79          1           0       -3.232271    5.728675    2.030067
     80          1           0       -3.534416    6.448571    0.425468
     81          1           0       -2.560175    5.184325    0.480088
     82          1           0       -5.679364    7.303432    0.377561
     83          1           0       -6.036049    6.616532    2.140540
     84          1           0       -7.180705    7.690885    1.228215
     85          1           0      -10.492641    2.138610   -0.664285
     86          1           0      -10.757991   -0.689325    0.043298
     87          1           0       -9.936704    2.147782    2.102939
     88          1           0      -10.705193    0.590123    1.831744
     89          1           0      -11.594840    2.013016    1.514390
     90          1           0      -11.539158    0.826261   -2.052474
     91          1           0      -11.518241   -0.914586   -2.248030
     92          1           0      -10.264696    1.128392   -3.744686
     93          1           0      -10.249847   -0.574705   -3.982469
     94          1           0       -8.953815    0.037871   -3.124926
     95          1           0       -8.677247   -4.769610   -1.117188
     96          1           0       -7.536178   -5.886791   -0.468203
     97          1           0       -7.373499   -5.470050   -2.201179
     98          1           0       -2.241273   -3.959487   -0.606784
     99          1           0        0.371662   -5.451492    2.532224
    100          1           0       -0.894626   -4.831961    3.515790
    101          1           0        0.329485   -3.750882    2.788146
    102          1           0        4.561917   -1.862460   -1.964358
    103          1           0        5.065491   -3.046740   -0.875823
    104          1           0        4.305331   -0.462098    0.465101
    105          1           0        7.188863   -2.169720   -1.261923
    106          1           0        8.000820   -2.165335    0.393772
    107          1           0        8.249653   -0.902922   -0.796702
    108          1           0        7.569366    0.229199    1.683086
    109          1           0        5.953639    0.653693    1.831381
    110          1           0        6.330874    2.523137    0.527284
    111          1           0        6.722608    1.381822   -0.791680
    112          1           0        9.141265    1.488201    0.596475
    113          1           0        8.466890    2.980556    1.008934
    114          1           0        9.803387    3.573847   -0.673597
    115          1           0        6.995165    3.403913   -1.626108
    116          1           0        8.283935    3.749289   -2.850002
    117          1           0        8.082944    4.669667   -1.277216
    118          1           0        9.508579    1.862318   -3.079595
    119          1           0        9.566106    0.791654   -1.757183
    120          1           0       11.675685    2.739429   -1.268470
    121          1           0       11.418821    2.884399   -2.966617
    122          1           0       12.499591    1.211905   -3.574697
    123          1           0       11.528813    0.118431   -2.727682
    124          1           0       13.409917    1.241044   -0.820687
    125          1           0       14.552572    0.510378   -3.353999
    126          1           0       15.293178   -0.532244   -2.163750
    127          1           0       15.421195    1.148797   -1.879969
    128          1           0       13.424732   -1.590349   -1.411298
    129          1           0       11.853116   -0.914222   -0.820220
    130          1           0       14.483388   -0.576887    0.600104
    131          1           0       13.265474   -1.820281    0.908893
    132          1           0       11.863577    0.642882    0.801494
    133          1           0       13.306160    0.983710    1.840962
    134          1           0       12.447408   -1.238339    3.084253
    135          1           0       10.780936   -2.132761    1.965585
    136          1           0       10.166505   -0.500733    1.320493
    137          1           0        9.828000   -1.205962    2.990587
    138          1           0       11.743332    1.635634    3.418117
    139          1           0       12.126413    0.338435    4.580433
    140          1           0       10.419196    0.766199    3.951041
 ---------------------------------------------------------------------

 SCF Done:  E(RCAM-B3LYP) =  -3007.13851221     A.U. after   19 cycles

 Excitation energies and oscillator strengths:

 Excited State   1:      Singlet-A      1.7532 eV  707.18 nm  f=0.3684  <S**2>=0.000
     245 -> 248        0.19750
     246 -> 247        0.68142
     245 <- 248        0.11175
 This state for optimization and/or second-order correction.
 Total Energy, E(TD-HF/TD-DFT) =  -3007.07408249
 Copying the excited state density for this state as the 1-particle RhoCI density.

 Excited State   2:      Singlet-A      2.2449 eV  552.30 nm  f=0.0926  <S**2>=0.000
     245 -> 247        0.63142
     246 -> 248       -0.30911

 Excited State   3:      Singlet-A      3.4206 eV  362.46 nm  f=0.0103  <S**2>=0.000
     242 -> 247       -0.13689
     243 -> 247        0.10566
     244 -> 247        0.65768
     246 -> 248        0.11927

 Excited State   4:      Singlet-A      3.4902 eV  355.24 nm  f=0.3967  <S**2>=0.000
     242 -> 247        0.42680
     245 -> 247        0.20958
     246 -> 248        0.51401

 Excited State   5:      Singlet-A      3.6011 eV  344.30 nm  f=0.0007  <S**2>=0.000
     243 -> 247        0.57543
     243 -> 249       -0.24013
     243 -> 251       -0.24422

 The electronic state is 1-A.
 Alpha  occ. eigenvalues --  -46.89355 -19.25191 -19.24424 -19.21210 -19.20966
 Alpha  occ. eigenvalues --  -19.20039 -19.17567 -14.42104 -14.42020 -14.39338
 Alpha  occ. eigenvalues --  -14.39059 -10.40212 -10.39928 -10.35731 -10.33301
 Alpha  occ. eigenvalues --  -10.32279 -10.32128 -10.31401 -10.30900 -10.30582
 Alpha  occ. eigenvalues --  -10.30200 -10.30005 -10.29857 -10.29389 -10.29325
 Alpha  occ. eigenvalues --  -10.28646 -10.28632 -10.28356 -10.28311 -10.28175
 Alpha  occ. eigenvalues --  -10.28100 -10.27991 -10.27856 -10.27538 -10.27296
 Alpha  occ. eigenvalues --  -10.27213 -10.27009 -10.26816 -10.26586 -10.26528
 Alpha  occ. eigenvalues --  -10.26521 -10.26482 -10.26167 -10.26098 -10.26073
 Alpha  occ. eigenvalues --  -10.26068 -10.25868 -10.25755 -10.25743 -10.25678
 Alpha  occ. eigenvalues --  -10.25394 -10.25370 -10.25261 -10.25257 -10.25195
 Alpha  occ. eigenvalues --  -10.25144 -10.25002 -10.24845 -10.24783 -10.24703
 Alpha  occ. eigenvalues --  -10.24697 -10.24685 -10.24579 -10.24495 -10.24421
 Alpha  occ. eigenvalues --  -10.24017  -3.17735  -1.92641  -1.92212  -1.92002
 Alpha  occ. eigenvalues --   -1.17047  -1.15100  -1.11945  -1.09337  -1.09145
 Alpha  occ. eigenvalues --   -1.07267  -1.04696  -1.04410  -1.02720  -1.01633
 Alpha  occ. eigenvalues --   -0.92944  -0.90454  -0.89829  -0.88751  -0.88626
 Alpha  occ. eigenvalues --   -0.88383  -0.87852  -0.87328  -0.87270  -0.86391
 Alpha  occ. eigenvalues --   -0.85438  -0.84854  -0.84466  -0.83765  -0.83068
 Alpha  occ. eigenvalues --   -0.82392  -0.82300  -0.81205  -0.80638  -0.80276
 Alpha  occ. eigenvalues --   -0.79871  -0.77713  -0.77472  -0.77171  -0.76328
 Alpha  occ. eigenvalues --   -0.76082  -0.75515  -0.75175  -0.74773  -0.74166
 Alpha  occ. eigenvalues --   -0.73491  -0.72872  -0.71738  -0.69998  -0.69557
 Alpha  occ. eigenvalues --   -0.68899  -0.68579  -0.67500  -0.66650  -0.65754
 Alpha  occ. eigenvalues --   -0.65253  -0.65214  -0.64460  -0.64229  -0.63795
 Alpha  occ. eigenvalues --   -0.62746  -0.62555  -0.61866  -0.61482  -0.60716
 Alpha  occ. eigenvalues --   -0.59505  -0.59173  -0.59007  -0.58700  -0.57991
 Alpha  occ. eigenvalues --   -0.57695  -0.57155  -0.55874  -0.55677  -0.55192
 Alpha  occ. eigenvalues --   -0.54772  -0.54563  -0.54388  -0.54281  -0.54180
 Alpha  occ. eigenvalues --   -0.53884  -0.53615  -0.53326  -0.53251  -0.52941
 Alpha  occ. eigenvalues --   -0.52421  -0.52378  -0.52118  -0.51865  -0.51702
 Alpha  occ. eigenvalues --   -0.51619  -0.51518  -0.51438  -0.51104  -0.50778
 Alpha  occ. eigenvalues --   -0.50225  -0.50046  -0.49896  -0.49748  -0.49508
 Alpha  occ. eigenvalues --   -0.49449  -0.49125  -0.49039  -0.48821  -0.48744
 Alpha  occ. eigenvalues --   -0.48546  -0.48488  -0.48389  -0.48065  -0.47890
 Alpha  occ. eigenvalues --   -0.47753  -0.47304  -0.46991  -0.46749  -0.46706
 Alpha  occ. eigenvalues --   -0.46515  -0.46367  -0.45820  -0.45701  -0.45612
 Alpha  occ. eigenvalues --   -0.45447  -0.45349  -0.45340  -0.45238  -0.45029
 Alpha  occ. eigenvalues --   -0.44618  -0.44289  -0.44219  -0.44148  -0.43779
 Alpha  occ. eigenvalues --   -0.43596  -0.43259  -0.43158  -0.42866  -0.42752
 Alpha  occ. eigenvalues --   -0.42475  -0.42231  -0.42059  -0.42024  -0.42000
 Alpha  occ. eigenvalues --   -0.41864  -0.41794  -0.41580  -0.41339  -0.40903
 Alpha  occ. eigenvalues --   -0.40838  -0.40721  -0.40489  -0.40468  -0.40255
 Alpha  occ. eigenvalues --   -0.40069  -0.39858  -0.39380  -0.38955  -0.38786
 Alpha  occ. eigenvalues --   -0.38300  -0.37886  -0.37585  -0.37528  -0.37404
 Alpha  occ. eigenvalues --   -0.37125  -0.37017  -0.36660  -0.36489  -0.36270
 Alpha  occ. eigenvalues --   -0.36162  -0.35882  -0.35424  -0.35248  -0.34847
 Alpha  occ. eigenvalues --   -0.34531  -0.34411  -0.33063  -0.31558  -0.31343
 Alpha  occ. eigenvalues --   -0.30514  -0.30299  -0.29993  -0.29554  -0.23948
 Alpha  occ. eigenvalues --   -0.21123
 Alpha virt. eigenvalues --   -0.08366  -0.01798   0.00902   0.02215   0.02929
 Alpha virt. eigenvalues --    0.04509   0.05647   0.05753   0.06030   0.06893
 Alpha virt. eigenvalues --    0.07408   0.07992   0.08442   0.08619   0.09024

 Mulliken charges:
               1
     1  Mg   0.824447
     2  C   -0.043173
     3  C   -0.046981
     4  C   -0.029705
     5  C   -0.078155
     6  N   -0.224084
     7  C   -0.025709
     8  C   -0.050170
     9  C   -0.073662
    10  C    0.005936
    11  C    0.091117
    12  C    0.091368
    13  C   -0.007753
    14  C    0.179958
    15  O   -0.179097
    16  O   -0.348744
    17  N   -0.425395
    18  C    0.134900
    19  C   -0.134687
    20  C   -0.029948
    21  C    0.140245
    22  C    0.086655
    23  C   -0.047365
    24  O   -0.215627
    25  C    0.108203
    26  N   -0.273489
    27  C    0.003617
    28  C   -0.028426
    29  C    0.011956
    30  C    0.048063
    31  C    0.063281
    32  C    0.035075
    33  C   -0.019011
    34  N   -0.365372
    35  C    0.103879
    36  C   -0.201554
    37  C    0.048576
    38  C    0.110381
    39  C    0.114212
    40  C    0.038973
    41  O   -0.124762
    42  C    0.018025
    43  C    0.219378
    44  O   -0.167859
    45  O   -0.407848
    46  C    0.172779
    47  C    0.264004
    48  C   -0.100281
    49  C   -0.188368
    50  C    0.111241
    51  C    0.086080
    52  C    0.008825
    53  C    0.020721
    54  C   -0.099920
    55  C    0.049790
    56  C    0.034409
    57  C   -0.033343
    58  C    0.050715
    59  C   -0.119335
    60  C    0.064034
    61  C    0.027717
    62  C    0.022198
    63  C    0.028184
    64  C   -0.165174
    65  C    0.006324
    66  C    0.058134
    67  H   -0.025586
    68  H   -0.009268
    69  H   -0.037724
    70  H    0.012485
    71  H    0.019551
    72  H    0.027961
    73  H    0.022285
    74  H    0.011128
    75  H    0.013734
    76  H    0.010538
    77  H    0.032700
    78  H    0.006158
    79  H    0.039151
    80  H    0.009174
    81  H    0.012780
    82  H    0.035693
    83  H    0.040592
    84  H    0.019764
    85  H    0.019254
    86  H    0.005466
    87  H    0.028405
    88  H    0.001797
    89  H    0.020108
    90  H    0.005134
    91  H    0.011412
    92  H    0.018081
    93  H   -0.000877
    94  H    0.027611
    95  H    0.002822
    96  H    0.034718
    97  H    0.049267
    98  H    0.037234
    99  H    0.037794
   100  H    0.047293
   101  H    0.031886
   102  H    0.037653
   103  H    0.024102
   104  H   -0.000353
   105  H    0.008696
   106  H    0.041932
   107  H   -0.003764
   108  H   -0.010475
   109  H   -0.005255
   110  H    0.011925
   111  H    0.021554
   112  H   -0.021968
   113  H   -0.014178
   114  H    0.000818
   115  H    0.012466
   116  H    0.012311
   117  H   -0.005313
   118  H   -0.004155
   119  H    0.001655
   120  H    0.007154
   121  H   -0.001132
   122  H   -0.016127
   123  H   -0.014795
   124  H   -0.006107
   125  H    0.006830
   126  H    0.002533
   127  H    0.010411
   128  H   -0.009908
   129  H   -0.004630
   130  H   -0.009613
   131  H   -0.005822
   132  H    0.005742
   133  H    0.005540
   134  H    0.000368
   135  H    0.003788
   136  H    0.033789
   137  H    0.011714
   138  H   -0.004168
   139  H    0.020092
   140  H    0.009769
 Sum of Mulliken charges =  -0.00000

 Dipole moment (field-independent basis, Debye):
    X=              3.8718    Y=              1.5369    Z=              0.4567  Tot=              4.1907
 Quadrupole moment (field-independent basis, Debye-Ang):
   XX=           -370.5703   YY=           -430.2150   ZZ=           -402.3668
   XY=              3.4040   XZ=             14.6603   YZ=              9.0705

 Normal termination of Gaussian 16 at Wed May  4 12:36:09 2022.
