 Gaussian 16, Revision A.03,
 Gaussian 16:  ES64L-G16RevA.03 25-Dec-2016

 ---------------------------------
 #p PBE1PBE/Def2SVP td=(nstates=5)
 ---------------------------------

 ------------------------------------------------------
 step_1751_chromophore_13 TDDFT with PBE1PBE functional
 ------------------------------------------------------
 Symbolic Z-matrix:
 Charge =  0 Multiplicity = 1

                         Standard orientation:
 ---------------------------------------------------------------------
 Center     Atomic      Atomic             Coordinates (Angstroms)
 Number     Number       Type             X           Y           Z
 ---------------------------------------------------------------------
      1         12           0       -5.678038    0.463240   -0.423008
      2          6           0       -3.602190   -2.397556    0.077773
      3          6           0       -2.981021    2.415942    0.672899
      4          6           0       -7.893344    2.857286    0.072862
      5          6           0       -8.359741   -1.810849   -0.828177
      6          7           0       -3.489706    0.037802    0.240155
      7          6           0       -2.912612   -1.171821    0.339916
      8          6           0       -1.425568   -1.022995    0.555743
      9          6           0       -1.306332    0.536304    1.031996
     10          6           0       -2.674399    1.031700    0.597739
     11          6           0       -0.824705    0.723079    2.529331
     12          6           0       -0.628158   -1.239688   -0.754212
     13          6           0        0.665466   -2.066437   -0.647748
     14          6           0        2.154738   -1.505697   -1.013797
     15          8           0        2.383259   -0.572622   -1.701992
     16          8           0        3.065511   -2.443686   -0.545737
     17          7           0       -5.439403    2.480539   -0.004848
     18          6           0       -4.281356    3.074591    0.507633
     19          6           0       -4.622501    4.478201    0.670218
     20          6           0       -6.005232    4.604920    0.462390
     21          6           0       -6.535503    3.311898    0.135860
     22          6           0       -3.465600    5.516090    0.986586
     23          6           0       -6.903019    5.803951    0.598363
     24          8           0       -8.088581    5.827605    0.277615
     25          6           0       -6.359027    6.977679    1.164394
     26          7           0       -7.784079    0.513757   -0.349334
     27          6           0       -8.489316    1.624345   -0.081105
     28          6           0      -10.016080    1.398613   -0.020713
     29          6           0      -10.163009   -0.053567   -0.612538
     30          6           0       -8.682029   -0.478791   -0.579073
     31          6           0      -10.592132    1.596320    1.428890
     32          6           0      -10.893053   -0.050467   -2.020798
     33          6           0      -10.027325    0.190920   -3.240695
     34          7           0       -6.024496   -1.652745   -0.503162
     35          6           0       -7.154861   -2.424214   -0.737608
     36          6           0       -6.743887   -3.818863   -0.766854
     37          6           0       -5.435521   -3.857711   -0.465119
     38          6           0       -5.004013   -2.545200   -0.202622
     39          6           0       -7.642238   -5.097710   -1.212718
     40          6           0       -4.259280   -4.732869   -0.276410
     41          8           0       -4.219916   -5.924387   -0.373684
     42          6           0       -3.031333   -3.789811    0.124619
     43          6           0       -2.595612   -4.221361    1.435955
     44          8           0       -3.262770   -4.350072    2.427265
     45          8           0       -1.155244   -4.358981    1.392823
     46          6           0       -0.317748   -4.611422    2.618055
     47          6           0        4.475957   -2.130925   -0.912065
     48          6           0        5.067411   -1.097574    0.012807
     49          6           0        6.348594   -0.796490    0.181886
     50          6           0        7.510044   -1.594553   -0.392944
     51          6           0        6.695614    0.432696    1.063993
     52          6           0        6.971839    1.696039    0.222273
     53          6           0        8.413077    2.214920    0.234876
     54          6           0        9.065030    2.871564   -1.059280
     55          6           0        8.027908    3.710247   -1.790751
     56          6           0        9.774209    1.828640   -2.023098
     57          6           0       11.293757    2.194806   -2.132768
     58          6           0       12.209954    0.951836   -2.557476
     59          6           0       13.345789    0.499096   -1.616134
     60          6           0       14.741722    0.399570   -2.286195
     61          6           0       12.933157   -0.778650   -0.874892
     62          6           0       13.414257   -0.790901    0.582278
     63          6           0       12.612637    0.226867    1.475154
     64          6           0       11.857359   -0.415246    2.681182
     65          6           0       10.527833   -1.091076    2.162936
     66          6           0       11.482333    0.630606    3.751014
     67          1           0       -2.134958    2.994719    1.047286
     68          1           0       -8.672093    3.586817    0.303775
     69          1           0       -9.140741   -2.566623   -0.934145
     70          1           0       -1.075801   -1.738166    1.301516
     71          1           0       -0.641728    1.124280    0.400238
     72          1           0       -1.682276    0.930723    3.169134
     73          1           0       -0.049536    1.488413    2.549815
     74          1           0       -0.403609   -0.244032    2.801554
     75          1           0       -0.183256   -0.322805   -1.142276
     76          1           0       -1.286896   -1.572096   -1.555754
     77          1           0        0.548911   -3.013268   -1.174010
     78          1           0        0.631444   -2.505912    0.349300
     79          1           0       -3.232271    5.728675    2.030067
     80          1           0       -3.534416    6.448571    0.425468
     81          1           0       -2.560175    5.184325    0.480088
     82          1           0       -5.679364    7.303432    0.377561
     83          1           0       -6.036049    6.616532    2.140540
     84          1           0       -7.180705    7.690885    1.228215
     85          1           0      -10.492641    2.138610   -0.664285
     86          1           0      -10.757991   -0.689325    0.043298
     87          1           0       -9.936704    2.147782    2.102939
     88          1           0      -10.705193    0.590123    1.831744
     89          1           0      -11.594840    2.013016    1.514390
     90          1           0      -11.539158    0.826261   -2.052474
     91          1           0      -11.518241   -0.914586   -2.248030
     92          1           0      -10.264696    1.128392   -3.744686
     93          1           0      -10.249847   -0.574705   -3.982469
     94          1           0       -8.953815    0.037871   -3.124926
     95          1           0       -8.677247   -4.769610   -1.117188
     96          1           0       -7.536178   -5.886791   -0.468203
     97          1           0       -7.373499   -5.470050   -2.201179
     98          1           0       -2.241273   -3.959487   -0.606784
     99          1           0        0.371662   -5.451492    2.532224
    100          1           0       -0.894626   -4.831961    3.515790
    101          1           0        0.329485   -3.750882    2.788146
    102          1           0        4.561917   -1.862460   -1.964358
    103          1           0        5.065491   -3.046740   -0.875823
    104          1           0        4.305331   -0.462098    0.465101
    105          1           0        7.188863   -2.169720   -1.261923
    106          1           0        8.000820   -2.165335    0.393772
    107          1           0        8.249653   -0.902922   -0.796702
    108          1           0        7.569366    0.229199    1.683086
    109          1           0        5.953639    0.653693    1.831381
    110          1           0        6.330874    2.523137    0.527284
    111          1           0        6.722608    1.381822   -0.791680
    112          1           0        9.141265    1.488201    0.596475
    113          1           0        8.466890    2.980556    1.008934
    114          1           0        9.803387    3.573847   -0.673597
    115          1           0        6.995165    3.403913   -1.626108
    116          1           0        8.283935    3.749289   -2.850002
    117          1           0        8.082944    4.669667   -1.277216
    118          1           0        9.508579    1.862318   -3.079595
    119          1           0        9.566106    0.791654   -1.757183
    120          1           0       11.675685    2.739429   -1.268470
    121          1           0       11.418821    2.884399   -2.966617
    122          1           0       12.499591    1.211905   -3.574697
    123          1           0       11.528813    0.118431   -2.727682
    124          1           0       13.409917    1.241044   -0.820687
    125          1           0       14.552572    0.510378   -3.353999
    126          1           0       15.293178   -0.532244   -2.163750
    127          1           0       15.421195    1.148797   -1.879969
    128          1           0       13.424732   -1.590349   -1.411298
    129          1           0       11.853116   -0.914222   -0.820220
    130          1           0       14.483388   -0.576887    0.600104
    131          1           0       13.265474   -1.820281    0.908893
    132          1           0       11.863577    0.642882    0.801494
    133          1           0       13.306160    0.983710    1.840962
    134          1           0       12.447408   -1.238339    3.084253
    135          1           0       10.780936   -2.132761    1.965585
    136          1           0       10.166505   -0.500733    1.320493
    137          1           0        9.828000   -1.205962    2.990587
    138          1           0       11.743332    1.635634    3.418117
    139          1           0       12.126413    0.338435    4.580433
    140          1           0       10.419196    0.766199    3.951041
 ---------------------------------------------------------------------

 SCF Done:  E(RPBE1PBE) =  -3005.32515586     A.U. after   15 cycles

 Excitation energies and oscillator strengths:

 Excited State   1:      Singlet-A      1.9144 eV  647.64 nm  f=0.3579  <S**2>=0.000
     245 -> 248        0.19212
     246 -> 247        0.68775
 This state for optimization and/or second-order correction.
 Total Energy, E(TD-HF/TD-DFT) =  -3005.25480275
 Copying the excited state density for this state as the 1-particle RhoCI density.

 Excited State   2:      Singlet-A      2.2533 eV  550.24 nm  f=0.0941  <S**2>=0.000
     245 -> 247        0.64494
     246 -> 248       -0.28082

 Excited State   3:      Singlet-A      2.9431 eV  421.28 nm  f=0.0001  <S**2>=0.000
     244 -> 247        0.68300
     244 -> 249       -0.12346
     244 -> 250       -0.10456

 Excited State   4:      Singlet-A      3.0899 eV  401.26 nm  f=0.0004  <S**2>=0.000
     243 -> 247        0.69314

 Excited State   5:      Singlet-A      3.1944 eV  388.13 nm  f=0.0018  <S**2>=0.000
     240 -> 247        0.30566
     240 -> 249        0.11835
     241 -> 247        0.59265
     246 -> 248        0.14567

 The electronic state is 1-A.
 Alpha  occ. eigenvalues --  -46.92760 -19.25925 -19.25042 -19.21462 -19.21041
 Alpha  occ. eigenvalues --  -19.20105 -19.17909 -14.41568 -14.41513 -14.39104
 Alpha  occ. eigenvalues --  -14.38698 -10.37274 -10.36824 -10.32790 -10.30496
 Alpha  occ. eigenvalues --  -10.29693 -10.29306 -10.29021 -10.28558 -10.28364
 Alpha  occ. eigenvalues --  -10.28112 -10.27827 -10.27722 -10.26940 -10.26896
 Alpha  occ. eigenvalues --  -10.26467 -10.26257 -10.26176 -10.26007 -10.25928
 Alpha  occ. eigenvalues --  -10.25866 -10.25855 -10.25723 -10.25292 -10.24884
 Alpha  occ. eigenvalues --  -10.24823 -10.24560 -10.24207 -10.24139 -10.24097
 Alpha  occ. eigenvalues --  -10.24023 -10.23997 -10.23904 -10.23793 -10.23765
 Alpha  occ. eigenvalues --  -10.23621 -10.23454 -10.23443 -10.23278 -10.23206
 Alpha  occ. eigenvalues --  -10.23068 -10.22951 -10.22856 -10.22837 -10.22772
 Alpha  occ. eigenvalues --  -10.22726 -10.22540 -10.22324 -10.22292 -10.22265
 Alpha  occ. eigenvalues --  -10.22088 -10.22021 -10.21981 -10.21974 -10.21897
 Alpha  occ. eigenvalues --  -10.21408  -3.14725  -1.87569  -1.87120  -1.86914
 Alpha  occ. eigenvalues --   -1.11865  -1.09710  -1.06592  -1.04254  -1.03963
 Alpha  occ. eigenvalues --   -1.02018  -0.99297  -0.99026  -0.97301  -0.96432
 Alpha  occ. eigenvalues --   -0.87207  -0.84574  -0.83906  -0.82988  -0.82867
 Alpha  occ. eigenvalues --   -0.82505  -0.82182  -0.81627  -0.81439  -0.80719
 Alpha  occ. eigenvalues --   -0.79718  -0.79116  -0.78683  -0.78007  -0.77310
 Alpha  occ. eigenvalues --   -0.76617  -0.76573  -0.75456  -0.74884  -0.74603
 Alpha  occ. eigenvalues --   -0.74059  -0.72057  -0.71707  -0.71426  -0.70574
 Alpha  occ. eigenvalues --   -0.70257  -0.69606  -0.69533  -0.68915  -0.68330
 Alpha  occ. eigenvalues --   -0.67812  -0.67246  -0.66198  -0.64334  -0.63874
 Alpha  occ. eigenvalues --   -0.63255  -0.62878  -0.61712  -0.61085  -0.60290
 Alpha  occ. eigenvalues --   -0.59687  -0.59387  -0.59037  -0.58809  -0.57965
 Alpha  occ. eigenvalues --   -0.57341  -0.56724  -0.56374  -0.55742  -0.55050
 Alpha  occ. eigenvalues --   -0.54072  -0.53789  -0.53520  -0.53070  -0.52637
 Alpha  occ. eigenvalues --   -0.52095  -0.51816  -0.50390  -0.50253  -0.49748
 Alpha  occ. eigenvalues --   -0.49249  -0.49069  -0.48933  -0.48725  -0.48604
 Alpha  occ. eigenvalues --   -0.48354  -0.48135  -0.47845  -0.47685  -0.47515
 Alpha  occ. eigenvalues --   -0.46903  -0.46886  -0.46628  -0.46435  -0.46227
 Alpha  occ. eigenvalues --   -0.46169  -0.46045  -0.45935  -0.45523  -0.45382
 Alpha  occ. eigenvalues --   -0.44787  -0.44634  -0.44399  -0.44229  -0.44039
 Alpha  occ. eigenvalues --   -0.44000  -0.43804  -0.43670  -0.43416  -0.43402
 Alpha  occ. eigenvalues --   -0.43208  -0.43084  -0.43005  -0.42644  -0.42569
 Alpha  occ. eigenvalues --   -0.42388  -0.41916  -0.41655  -0.41412  -0.41388
 Alpha  occ. eigenvalues --   -0.41183  -0.40961  -0.40580  -0.40476  -0.40263
 Alpha  occ. eigenvalues --   -0.40026  -0.39983  -0.39972  -0.39943  -0.39803
 Alpha  occ. eigenvalues --   -0.39337  -0.39133  -0.38984  -0.38862  -0.38571
 Alpha  occ. eigenvalues --   -0.38299  -0.38119  -0.37999  -0.37738  -0.37547
 Alpha  occ. eigenvalues --   -0.37350  -0.36959  -0.36854  -0.36777  -0.36753
 Alpha  occ. eigenvalues --   -0.36718  -0.36645  -0.36445  -0.36154  -0.35705
 Alpha  occ. eigenvalues --   -0.35667  -0.35628  -0.35354  -0.35198  -0.35143
 Alpha  occ. eigenvalues --   -0.34949  -0.34652  -0.34170  -0.33750  -0.33663
 Alpha  occ. eigenvalues --   -0.33094  -0.32816  -0.32582  -0.32488  -0.32244
 Alpha  occ. eigenvalues --   -0.32053  -0.31974  -0.31542  -0.31410  -0.31297
 Alpha  occ. eigenvalues --   -0.31099  -0.30771  -0.30292  -0.30056  -0.29858
 Alpha  occ. eigenvalues --   -0.29523  -0.29485  -0.28699  -0.27072  -0.26308
 Alpha  occ. eigenvalues --   -0.25794  -0.25782  -0.25261  -0.24740  -0.20882
 Alpha  occ. eigenvalues --   -0.18782
 Alpha virt. eigenvalues --   -0.10885  -0.05240  -0.03369  -0.01598  -0.00586
 Alpha virt. eigenvalues --   -0.00076   0.01074   0.01319   0.01544   0.03414
 Alpha virt. eigenvalues --    0.04073   0.04081   0.04538   0.05097   0.05772

 Mulliken charges:
               1
     1  Mg   0.965338
     2  C   -0.064397
     3  C   -0.044464
     4  C   -0.028522
     5  C   -0.071859
     6  N   -0.329444
     7  C    0.049503
     8  C   -0.134872
     9  C   -0.143196
    10  C    0.048224
    11  C    0.029515
    12  C    0.048773
    13  C   -0.079357
    14  C    0.238134
    15  O   -0.211337
    16  O   -0.376970
    17  N   -0.534515
    18  C    0.161362
    19  C   -0.153161
    20  C   -0.096259
    21  C    0.182975
    22  C    0.033956
    23  C    0.010681
    24  O   -0.253206
    25  C    0.028600
    26  N   -0.379335
    27  C    0.039423
    28  C   -0.104949
    29  C   -0.053111
    30  C    0.073522
    31  C    0.007639
    32  C   -0.028023
    33  C   -0.087813
    34  N   -0.477719
    35  C    0.121728
    36  C   -0.213711
    37  C   -0.012584
    38  C    0.172823
    39  C    0.060761
    40  C    0.142384
    41  O   -0.172292
    42  C   -0.096902
    43  C    0.312642
    44  O   -0.205027
    45  O   -0.438215
    46  C    0.119278
    47  C    0.221236
    48  C   -0.100888
    49  C   -0.245682
    50  C    0.036815
    51  C    0.027818
    52  C   -0.059375
    53  C   -0.040385
    54  C   -0.186524
    55  C   -0.008227
    56  C   -0.027992
    57  C   -0.096236
    58  C    0.002243
    59  C   -0.206178
    60  C    0.006812
    61  C   -0.037205
    62  C   -0.035610
    63  C   -0.037258
    64  C   -0.253538
    65  C   -0.059001
    66  C   -0.001720
    67  H    0.005789
    68  H    0.022616
    69  H   -0.004845
    70  H    0.054002
    71  H    0.055289
    72  H    0.055656
    73  H    0.048842
    74  H    0.040052
    75  H    0.046316
    76  H    0.043165
    77  H    0.064691
    78  H    0.042265
    79  H    0.066153
    80  H    0.036713
    81  H    0.039175
    82  H    0.063345
    83  H    0.067979
    84  H    0.048309
    85  H    0.055186
    86  H    0.041370
    87  H    0.055547
    88  H    0.030327
    89  H    0.047563
    90  H    0.038427
    91  H    0.042524
    92  H    0.044829
    93  H    0.027490
    94  H    0.057351
    95  H    0.029645
    96  H    0.061411
    97  H    0.074879
    98  H    0.074884
    99  H    0.059186
   100  H    0.067737
   101  H    0.051334
   102  H    0.064357
   103  H    0.050668
   104  H    0.028959
   105  H    0.035994
   106  H    0.070390
   107  H    0.033401
   108  H    0.025288
   109  H    0.026238
   110  H    0.044053
   111  H    0.056268
   112  H    0.021586
   113  H    0.019804
   114  H    0.037976
   115  H    0.039457
   116  H    0.040014
   117  H    0.023073
   118  H    0.028102
   119  H    0.040609
   120  H    0.036466
   121  H    0.032596
   122  H    0.015646
   123  H    0.017194
   124  H    0.035540
   125  H    0.034099
   126  H    0.028717
   127  H    0.037458
   128  H    0.023965
   129  H    0.030099
   130  H    0.024394
   131  H    0.026987
   132  H    0.044664
   133  H    0.037757
   134  H    0.037205
   135  H    0.031548
   136  H    0.063315
   137  H    0.039301
   138  H    0.023111
   139  H    0.047464
   140  H    0.035908
 Sum of Mulliken charges =  -0.00000

 Dipole moment (field-independent basis, Debye):
    X=              3.8686    Y=              1.8742    Z=              0.4543  Tot=              4.3226
 Quadrupole moment (field-independent basis, Debye-Ang):
   XX=           -364.7098   YY=           -427.5422   ZZ=           -399.8371
   XY=              2.0224   XZ=             14.8105   YZ=              9.4992

 Normal termination of Gaussian 16 at Wed May  4 12:56:20 2022.
