 Gaussian 16, Revision A.03,
 Gaussian 16:  ES64L-G16RevA.03 25-Dec-2016

 --------------------------------
 #p wB97XD/Def2SVP td=(nstates=5)
 --------------------------------

 -----------------------------------------------------
 step_1751_chromophore_13 TDDFT with wB97XD functional
 -----------------------------------------------------
 Symbolic Z-matrix:
 Charge =  0 Multiplicity = 1

                         Standard orientation:
 ---------------------------------------------------------------------
 Center     Atomic      Atomic             Coordinates (Angstroms)
 Number     Number       Type             X           Y           Z
 ---------------------------------------------------------------------
      1         12           0       -5.678038    0.463240   -0.423008
      2          6           0       -3.602190   -2.397556    0.077773
      3          6           0       -2.981021    2.415942    0.672899
      4          6           0       -7.893344    2.857286    0.072862
      5          6           0       -8.359741   -1.810849   -0.828177
      6          7           0       -3.489706    0.037802    0.240155
      7          6           0       -2.912612   -1.171821    0.339916
      8          6           0       -1.425568   -1.022995    0.555743
      9          6           0       -1.306332    0.536304    1.031996
     10          6           0       -2.674399    1.031700    0.597739
     11          6           0       -0.824705    0.723079    2.529331
     12          6           0       -0.628158   -1.239688   -0.754212
     13          6           0        0.665466   -2.066437   -0.647748
     14          6           0        2.154738   -1.505697   -1.013797
     15          8           0        2.383259   -0.572622   -1.701992
     16          8           0        3.065511   -2.443686   -0.545737
     17          7           0       -5.439403    2.480539   -0.004848
     18          6           0       -4.281356    3.074591    0.507633
     19          6           0       -4.622501    4.478201    0.670218
     20          6           0       -6.005232    4.604920    0.462390
     21          6           0       -6.535503    3.311898    0.135860
     22          6           0       -3.465600    5.516090    0.986586
     23          6           0       -6.903019    5.803951    0.598363
     24          8           0       -8.088581    5.827605    0.277615
     25          6           0       -6.359027    6.977679    1.164394
     26          7           0       -7.784079    0.513757   -0.349334
     27          6           0       -8.489316    1.624345   -0.081105
     28          6           0      -10.016080    1.398613   -0.020713
     29          6           0      -10.163009   -0.053567   -0.612538
     30          6           0       -8.682029   -0.478791   -0.579073
     31          6           0      -10.592132    1.596320    1.428890
     32          6           0      -10.893053   -0.050467   -2.020798
     33          6           0      -10.027325    0.190920   -3.240695
     34          7           0       -6.024496   -1.652745   -0.503162
     35          6           0       -7.154861   -2.424214   -0.737608
     36          6           0       -6.743887   -3.818863   -0.766854
     37          6           0       -5.435521   -3.857711   -0.465119
     38          6           0       -5.004013   -2.545200   -0.202622
     39          6           0       -7.642238   -5.097710   -1.212718
     40          6           0       -4.259280   -4.732869   -0.276410
     41          8           0       -4.219916   -5.924387   -0.373684
     42          6           0       -3.031333   -3.789811    0.124619
     43          6           0       -2.595612   -4.221361    1.435955
     44          8           0       -3.262770   -4.350072    2.427265
     45          8           0       -1.155244   -4.358981    1.392823
     46          6           0       -0.317748   -4.611422    2.618055
     47          6           0        4.475957   -2.130925   -0.912065
     48          6           0        5.067411   -1.097574    0.012807
     49          6           0        6.348594   -0.796490    0.181886
     50          6           0        7.510044   -1.594553   -0.392944
     51          6           0        6.695614    0.432696    1.063993
     52          6           0        6.971839    1.696039    0.222273
     53          6           0        8.413077    2.214920    0.234876
     54          6           0        9.065030    2.871564   -1.059280
     55          6           0        8.027908    3.710247   -1.790751
     56          6           0        9.774209    1.828640   -2.023098
     57          6           0       11.293757    2.194806   -2.132768
     58          6           0       12.209954    0.951836   -2.557476
     59          6           0       13.345789    0.499096   -1.616134
     60          6           0       14.741722    0.399570   -2.286195
     61          6           0       12.933157   -0.778650   -0.874892
     62          6           0       13.414257   -0.790901    0.582278
     63          6           0       12.612637    0.226867    1.475154
     64          6           0       11.857359   -0.415246    2.681182
     65          6           0       10.527833   -1.091076    2.162936
     66          6           0       11.482333    0.630606    3.751014
     67          1           0       -2.134958    2.994719    1.047286
     68          1           0       -8.672093    3.586817    0.303775
     69          1           0       -9.140741   -2.566623   -0.934145
     70          1           0       -1.075801   -1.738166    1.301516
     71          1           0       -0.641728    1.124280    0.400238
     72          1           0       -1.682276    0.930723    3.169134
     73          1           0       -0.049536    1.488413    2.549815
     74          1           0       -0.403609   -0.244032    2.801554
     75          1           0       -0.183256   -0.322805   -1.142276
     76          1           0       -1.286896   -1.572096   -1.555754
     77          1           0        0.548911   -3.013268   -1.174010
     78          1           0        0.631444   -2.505912    0.349300
     79          1           0       -3.232271    5.728675    2.030067
     80          1           0       -3.534416    6.448571    0.425468
     81          1           0       -2.560175    5.184325    0.480088
     82          1           0       -5.679364    7.303432    0.377561
     83          1           0       -6.036049    6.616532    2.140540
     84          1           0       -7.180705    7.690885    1.228215
     85          1           0      -10.492641    2.138610   -0.664285
     86          1           0      -10.757991   -0.689325    0.043298
     87          1           0       -9.936704    2.147782    2.102939
     88          1           0      -10.705193    0.590123    1.831744
     89          1           0      -11.594840    2.013016    1.514390
     90          1           0      -11.539158    0.826261   -2.052474
     91          1           0      -11.518241   -0.914586   -2.248030
     92          1           0      -10.264696    1.128392   -3.744686
     93          1           0      -10.249847   -0.574705   -3.982469
     94          1           0       -8.953815    0.037871   -3.124926
     95          1           0       -8.677247   -4.769610   -1.117188
     96          1           0       -7.536178   -5.886791   -0.468203
     97          1           0       -7.373499   -5.470050   -2.201179
     98          1           0       -2.241273   -3.959487   -0.606784
     99          1           0        0.371662   -5.451492    2.532224
    100          1           0       -0.894626   -4.831961    3.515790
    101          1           0        0.329485   -3.750882    2.788146
    102          1           0        4.561917   -1.862460   -1.964358
    103          1           0        5.065491   -3.046740   -0.875823
    104          1           0        4.305331   -0.462098    0.465101
    105          1           0        7.188863   -2.169720   -1.261923
    106          1           0        8.000820   -2.165335    0.393772
    107          1           0        8.249653   -0.902922   -0.796702
    108          1           0        7.569366    0.229199    1.683086
    109          1           0        5.953639    0.653693    1.831381
    110          1           0        6.330874    2.523137    0.527284
    111          1           0        6.722608    1.381822   -0.791680
    112          1           0        9.141265    1.488201    0.596475
    113          1           0        8.466890    2.980556    1.008934
    114          1           0        9.803387    3.573847   -0.673597
    115          1           0        6.995165    3.403913   -1.626108
    116          1           0        8.283935    3.749289   -2.850002
    117          1           0        8.082944    4.669667   -1.277216
    118          1           0        9.508579    1.862318   -3.079595
    119          1           0        9.566106    0.791654   -1.757183
    120          1           0       11.675685    2.739429   -1.268470
    121          1           0       11.418821    2.884399   -2.966617
    122          1           0       12.499591    1.211905   -3.574697
    123          1           0       11.528813    0.118431   -2.727682
    124          1           0       13.409917    1.241044   -0.820687
    125          1           0       14.552572    0.510378   -3.353999
    126          1           0       15.293178   -0.532244   -2.163750
    127          1           0       15.421195    1.148797   -1.879969
    128          1           0       13.424732   -1.590349   -1.411298
    129          1           0       11.853116   -0.914222   -0.820220
    130          1           0       14.483388   -0.576887    0.600104
    131          1           0       13.265474   -1.820281    0.908893
    132          1           0       11.863577    0.642882    0.801494
    133          1           0       13.306160    0.983710    1.840962
    134          1           0       12.447408   -1.238339    3.084253
    135          1           0       10.780936   -2.132761    1.965585
    136          1           0       10.166505   -0.500733    1.320493
    137          1           0        9.828000   -1.205962    2.990587
    138          1           0       11.743332    1.635634    3.418117
    139          1           0       12.126413    0.338435    4.580433
    140          1           0       10.419196    0.766199    3.951041
 ---------------------------------------------------------------------

 SCF Done:  E(RwB97XD) =  -3007.84081542     A.U. after   19 cycles

 Excitation energies and oscillator strengths:

 Excited State   1:      Singlet-A      1.6953 eV  731.34 nm  f=0.3665  <S**2>=0.000
     245 -> 248        0.20281
     246 -> 247        0.67948
     245 <- 248        0.12114
 This state for optimization and/or second-order correction.
 Total Energy, E(TD-HF/TD-DFT) =  -3007.77851401
 Copying the excited state density for this state as the 1-particle RhoCI density.

 Excited State   2:      Singlet-A      2.1859 eV  567.20 nm  f=0.0906  <S**2>=0.000
     245 -> 247        0.63008
     246 -> 248       -0.31018

 Excited State   3:      Singlet-A      3.4314 eV  361.32 nm  f=0.0015  <S**2>=0.000
     242 -> 247       -0.23522
     243 -> 247        0.29529
     244 -> 247        0.57172

 Excited State   4:      Singlet-A      3.4872 eV  355.54 nm  f=0.3995  <S**2>=0.000
     242 -> 247        0.40168
     245 -> 247        0.20936
     246 -> 248        0.52354

 Excited State   5:      Singlet-A      3.6237 eV  342.15 nm  f=0.0041  <S**2>=0.000
     243 -> 247        0.50980
     243 -> 249       -0.23375
     243 -> 250       -0.23618
     244 -> 247       -0.21881
     244 -> 249        0.13695
     244 -> 250        0.15649

 The electronic state is 1-A.
 Alpha  occ. eigenvalues --  -46.95684 -19.30486 -19.29679 -19.26144 -19.25896
 Alpha  occ. eigenvalues --  -19.25120 -19.22550 -14.46704 -14.46578 -14.43925
 Alpha  occ. eigenvalues --  -14.43693 -10.44064 -10.43783 -10.39790 -10.37174
 Alpha  occ. eigenvalues --  -10.36194 -10.35894 -10.35459 -10.34933 -10.34569
 Alpha  occ. eigenvalues --  -10.34225 -10.33994 -10.33858 -10.33431 -10.33401
 Alpha  occ. eigenvalues --  -10.32798 -10.32699 -10.32498 -10.32467 -10.32273
 Alpha  occ. eigenvalues --  -10.32167 -10.32047 -10.31902 -10.31600 -10.31249
 Alpha  occ. eigenvalues --  -10.31225 -10.30933 -10.30740 -10.30582 -10.30418
 Alpha  occ. eigenvalues --  -10.30375 -10.30364 -10.30187 -10.30119 -10.30066
 Alpha  occ. eigenvalues --  -10.30037 -10.29826 -10.29792 -10.29615 -10.29601
 Alpha  occ. eigenvalues --  -10.29347 -10.29332 -10.29206 -10.29185 -10.29132
 Alpha  occ. eigenvalues --  -10.29091 -10.29075 -10.28703 -10.28695 -10.28635
 Alpha  occ. eigenvalues --  -10.28512 -10.28488 -10.28407 -10.28338 -10.28311
 Alpha  occ. eigenvalues --  -10.27839  -3.21533  -1.95122  -1.94674  -1.94464
 Alpha  occ. eigenvalues --   -1.19233  -1.17244  -1.14230  -1.11589  -1.11299
 Alpha  occ. eigenvalues --   -1.09488  -1.06694  -1.06413  -1.04793  -1.03647
 Alpha  occ. eigenvalues --   -0.94944  -0.92262  -0.91579  -0.90617  -0.90486
 Alpha  occ. eigenvalues --   -0.90172  -0.89762  -0.89206  -0.89103  -0.88293
 Alpha  occ. eigenvalues --   -0.87429  -0.86745  -0.86340  -0.85626  -0.84945
 Alpha  occ. eigenvalues --   -0.84240  -0.84192  -0.83119  -0.82540  -0.82211
 Alpha  occ. eigenvalues --   -0.81723  -0.79648  -0.79385  -0.79090  -0.78247
 Alpha  occ. eigenvalues --   -0.77941  -0.77309  -0.77101  -0.76590  -0.75997
 Alpha  occ. eigenvalues --   -0.75426  -0.74851  -0.73715  -0.71930  -0.71465
 Alpha  occ. eigenvalues --   -0.70842  -0.70508  -0.69361  -0.68599  -0.67733
 Alpha  occ. eigenvalues --   -0.67184  -0.67046  -0.66477  -0.66243  -0.65626
 Alpha  occ. eigenvalues --   -0.64779  -0.64381  -0.63883  -0.63341  -0.62603
 Alpha  occ. eigenvalues --   -0.61465  -0.61179  -0.60999  -0.60681  -0.59997
 Alpha  occ. eigenvalues --   -0.59606  -0.59153  -0.57821  -0.57660  -0.57159
 Alpha  occ. eigenvalues --   -0.56710  -0.56488  -0.56312  -0.56193  -0.56072
 Alpha  occ. eigenvalues --   -0.55817  -0.55531  -0.55267  -0.55107  -0.54879
 Alpha  occ. eigenvalues --   -0.54294  -0.54269  -0.53978  -0.53752  -0.53601
 Alpha  occ. eigenvalues --   -0.53514  -0.53465  -0.53320  -0.53013  -0.52697
 Alpha  occ. eigenvalues --   -0.52138  -0.51953  -0.51826  -0.51697  -0.51372
 Alpha  occ. eigenvalues --   -0.51333  -0.51042  -0.50944  -0.50693  -0.50667
 Alpha  occ. eigenvalues --   -0.50453  -0.50359  -0.50267  -0.49916  -0.49815
 Alpha  occ. eigenvalues --   -0.49626  -0.49252  -0.48921  -0.48693  -0.48607
 Alpha  occ. eigenvalues --   -0.48400  -0.48329  -0.47729  -0.47646  -0.47472
 Alpha  occ. eigenvalues --   -0.47364  -0.47219  -0.47202  -0.47151  -0.47003
 Alpha  occ. eigenvalues --   -0.46532  -0.46236  -0.46143  -0.46056  -0.45710
 Alpha  occ. eigenvalues --   -0.45461  -0.45222  -0.45119  -0.44769  -0.44652
 Alpha  occ. eigenvalues --   -0.44386  -0.44138  -0.43975  -0.43891  -0.43871
 Alpha  occ. eigenvalues --   -0.43759  -0.43706  -0.43505  -0.43228  -0.42799
 Alpha  occ. eigenvalues --   -0.42752  -0.42704  -0.42381  -0.42331  -0.42191
 Alpha  occ. eigenvalues --   -0.41963  -0.41732  -0.41243  -0.40806  -0.40675
 Alpha  occ. eigenvalues --   -0.40143  -0.39834  -0.39587  -0.39456  -0.39247
 Alpha  occ. eigenvalues --   -0.39037  -0.38975  -0.38533  -0.38486  -0.38251
 Alpha  occ. eigenvalues --   -0.38042  -0.37720  -0.37266  -0.37222  -0.36820
 Alpha  occ. eigenvalues --   -0.36393  -0.36374  -0.35335  -0.33736  -0.33426
 Alpha  occ. eigenvalues --   -0.32549  -0.32461  -0.31892  -0.31668  -0.25869
 Alpha  occ. eigenvalues --   -0.22935
 Alpha virt. eigenvalues --   -0.06720   0.00101   0.02960   0.04983   0.05434
 Alpha virt. eigenvalues --    0.06613   0.07919   0.08039   0.08330   0.09829
 Alpha virt. eigenvalues --    0.10434   0.10601   0.11326   0.11762   0.12409

 Mulliken charges:
               1
     1  Mg   0.956152
     2  C   -0.066867
     3  C   -0.057930
     4  C   -0.041064
     5  C   -0.087047
     6  N   -0.292696
     7  C    0.018732
     8  C   -0.095098
     9  C   -0.118150
    10  C    0.028131
    11  C    0.041860
    12  C    0.056814
    13  C   -0.059588
    14  C    0.230559
    15  O   -0.209124
    16  O   -0.377520
    17  N   -0.505800
    18  C    0.151470
    19  C   -0.151420
    20  C   -0.082667
    21  C    0.167274
    22  C    0.045713
    23  C    0.007443
    24  O   -0.248501
    25  C    0.040175
    26  N   -0.344268
    27  C    0.025719
    28  C   -0.080055
    29  C   -0.033687
    30  C    0.063472
    31  C    0.017864
    32  C   -0.013821
    33  C   -0.071690
    34  N   -0.446699
    35  C    0.117995
    36  C   -0.215178
    37  C   -0.001203
    38  C    0.153042
    39  C    0.076533
    40  C    0.121938
    41  O   -0.162149
    42  C   -0.054674
    43  C    0.288364
    44  O   -0.199072
    45  O   -0.436770
    46  C    0.135373
    47  C    0.237949
    48  C   -0.117085
    49  C   -0.223950
    50  C    0.060214
    51  C    0.046092
    52  C   -0.040912
    53  C   -0.014234
    54  C   -0.156959
    55  C    0.004309
    56  C   -0.005997
    57  C   -0.077550
    58  C    0.016233
    59  C   -0.176477
    60  C    0.017406
    61  C   -0.010534
    62  C   -0.023284
    63  C   -0.009539
    64  C   -0.224373
    65  C   -0.033383
    66  C    0.008973
    67  H   -0.000333
    68  H    0.017160
    69  H   -0.011345
    70  H    0.030493
    71  H    0.044743
    72  H    0.050170
    73  H    0.044122
    74  H    0.032903
    75  H    0.036761
    76  H    0.035563
    77  H    0.058578
    78  H    0.028867
    79  H    0.062069
    80  H    0.030566
    81  H    0.033169
    82  H    0.056622
    83  H    0.062476
    84  H    0.046571
    85  H    0.045315
    86  H    0.032757
    87  H    0.049911
    88  H    0.022298
    89  H    0.042683
    90  H    0.029794
    91  H    0.036797
    92  H    0.040499
    93  H    0.021715
    94  H    0.046748
    95  H    0.023658
    96  H    0.057520
    97  H    0.071334
    98  H    0.068176
    99  H    0.055440
   100  H    0.064629
   101  H    0.047495
   102  H    0.059684
   103  H    0.045880
   104  H    0.025386
   105  H    0.031089
   106  H    0.064573
   107  H    0.018034
   108  H    0.012042
   109  H    0.021196
   110  H    0.037576
   111  H    0.041253
   112  H   -0.002049
   113  H    0.012061
   114  H    0.026594
   115  H    0.032414
   116  H    0.033985
   117  H    0.017315
   118  H    0.020017
   119  H    0.020207
   120  H    0.026548
   121  H    0.024433
   122  H    0.008054
   123  H    0.006955
   124  H    0.017628
   125  H    0.027507
   126  H    0.023005
   127  H    0.032689
   128  H    0.015257
   129  H    0.014806
   130  H    0.015878
   131  H    0.018495
   132  H    0.020442
   133  H    0.030144
   134  H    0.027024
   135  H    0.025471
   136  H    0.041536
   137  H    0.032741
   138  H    0.016809
   139  H    0.042355
   140  H    0.030258
 Sum of Mulliken charges =  -0.00000

 Dipole moment (field-independent basis, Debye):
    X=              3.9062    Y=              1.5136    Z=              0.4156  Tot=              4.2098
 Quadrupole moment (field-independent basis, Debye-Ang):
   XX=           -365.3805   YY=           -426.0206   ZZ=           -399.3088
   XY=              3.7440   XZ=             15.2332   YZ=              9.6238

 Normal termination of Gaussian 16 at Wed May  4 13:25:35 2022.
