 Gaussian 16, Revision A.03,
 Gaussian 16:  ES64L-G16RevA.03 25-Dec-2016

 --------------------
 #p ZINDO=(nstates=5)
 --------------------

 ------------------------------
 step_1751_chromophore_13 ZINDO
 ------------------------------
 Symbolic Z-matrix:
 Charge =  0 Multiplicity = 1

                         Standard orientation:
 ---------------------------------------------------------------------
 Center     Atomic      Atomic             Coordinates (Angstroms)
 Number     Number       Type             X           Y           Z
 ---------------------------------------------------------------------
      1         12           0       -5.678038    0.463240   -0.423008
      2          6           0       -3.602190   -2.397556    0.077773
      3          6           0       -2.981021    2.415942    0.672899
      4          6           0       -7.893344    2.857286    0.072862
      5          6           0       -8.359741   -1.810849   -0.828177
      6          7           0       -3.489706    0.037802    0.240155
      7          6           0       -2.912612   -1.171821    0.339916
      8          6           0       -1.425568   -1.022995    0.555743
      9          6           0       -1.306332    0.536304    1.031996
     10          6           0       -2.674399    1.031700    0.597739
     11          6           0       -0.824705    0.723079    2.529331
     12          6           0       -0.628158   -1.239688   -0.754212
     13          6           0        0.665466   -2.066437   -0.647748
     14          6           0        2.154738   -1.505697   -1.013797
     15          8           0        2.383259   -0.572622   -1.701992
     16          8           0        3.065511   -2.443686   -0.545737
     17          7           0       -5.439403    2.480539   -0.004848
     18          6           0       -4.281356    3.074591    0.507633
     19          6           0       -4.622501    4.478201    0.670218
     20          6           0       -6.005232    4.604920    0.462390
     21          6           0       -6.535503    3.311898    0.135860
     22          6           0       -3.465600    5.516090    0.986586
     23          6           0       -6.903019    5.803951    0.598363
     24          8           0       -8.088581    5.827605    0.277615
     25          6           0       -6.359027    6.977679    1.164394
     26          7           0       -7.784079    0.513757   -0.349334
     27          6           0       -8.489316    1.624345   -0.081105
     28          6           0      -10.016080    1.398613   -0.020713
     29          6           0      -10.163009   -0.053567   -0.612538
     30          6           0       -8.682029   -0.478791   -0.579073
     31          6           0      -10.592132    1.596320    1.428890
     32          6           0      -10.893053   -0.050467   -2.020798
     33          6           0      -10.027325    0.190920   -3.240695
     34          7           0       -6.024496   -1.652745   -0.503162
     35          6           0       -7.154861   -2.424214   -0.737608
     36          6           0       -6.743887   -3.818863   -0.766854
     37          6           0       -5.435521   -3.857711   -0.465119
     38          6           0       -5.004013   -2.545200   -0.202622
     39          6           0       -7.642238   -5.097710   -1.212718
     40          6           0       -4.259280   -4.732869   -0.276410
     41          8           0       -4.219916   -5.924387   -0.373684
     42          6           0       -3.031333   -3.789811    0.124619
     43          6           0       -2.595612   -4.221361    1.435955
     44          8           0       -3.262770   -4.350072    2.427265
     45          8           0       -1.155244   -4.358981    1.392823
     46          6           0       -0.317748   -4.611422    2.618055
     47          6           0        4.475957   -2.130925   -0.912065
     48          6           0        5.067411   -1.097574    0.012807
     49          6           0        6.348594   -0.796490    0.181886
     50          6           0        7.510044   -1.594553   -0.392944
     51          6           0        6.695614    0.432696    1.063993
     52          6           0        6.971839    1.696039    0.222273
     53          6           0        8.413077    2.214920    0.234876
     54          6           0        9.065030    2.871564   -1.059280
     55          6           0        8.027908    3.710247   -1.790751
     56          6           0        9.774209    1.828640   -2.023098
     57          6           0       11.293757    2.194806   -2.132768
     58          6           0       12.209954    0.951836   -2.557476
     59          6           0       13.345789    0.499096   -1.616134
     60          6           0       14.741722    0.399570   -2.286195
     61          6           0       12.933157   -0.778650   -0.874892
     62          6           0       13.414257   -0.790901    0.582278
     63          6           0       12.612637    0.226867    1.475154
     64          6           0       11.857359   -0.415246    2.681182
     65          6           0       10.527833   -1.091076    2.162936
     66          6           0       11.482333    0.630606    3.751014
     67          1           0       -2.134958    2.994719    1.047286
     68          1           0       -8.672093    3.586817    0.303775
     69          1           0       -9.140741   -2.566623   -0.934145
     70          1           0       -1.075801   -1.738166    1.301516
     71          1           0       -0.641728    1.124280    0.400238
     72          1           0       -1.682276    0.930723    3.169134
     73          1           0       -0.049536    1.488413    2.549815
     74          1           0       -0.403609   -0.244032    2.801554
     75          1           0       -0.183256   -0.322805   -1.142276
     76          1           0       -1.286896   -1.572096   -1.555754
     77          1           0        0.548911   -3.013268   -1.174010
     78          1           0        0.631444   -2.505912    0.349300
     79          1           0       -3.232271    5.728675    2.030067
     80          1           0       -3.534416    6.448571    0.425468
     81          1           0       -2.560175    5.184325    0.480088
     82          1           0       -5.679364    7.303432    0.377561
     83          1           0       -6.036049    6.616532    2.140540
     84          1           0       -7.180705    7.690885    1.228215
     85          1           0      -10.492641    2.138610   -0.664285
     86          1           0      -10.757991   -0.689325    0.043298
     87          1           0       -9.936704    2.147782    2.102939
     88          1           0      -10.705193    0.590123    1.831744
     89          1           0      -11.594840    2.013016    1.514390
     90          1           0      -11.539158    0.826261   -2.052474
     91          1           0      -11.518241   -0.914586   -2.248030
     92          1           0      -10.264696    1.128392   -3.744686
     93          1           0      -10.249847   -0.574705   -3.982469
     94          1           0       -8.953815    0.037871   -3.124926
     95          1           0       -8.677247   -4.769610   -1.117188
     96          1           0       -7.536178   -5.886791   -0.468203
     97          1           0       -7.373499   -5.470050   -2.201179
     98          1           0       -2.241273   -3.959487   -0.606784
     99          1           0        0.371662   -5.451492    2.532224
    100          1           0       -0.894626   -4.831961    3.515790
    101          1           0        0.329485   -3.750882    2.788146
    102          1           0        4.561917   -1.862460   -1.964358
    103          1           0        5.065491   -3.046740   -0.875823
    104          1           0        4.305331   -0.462098    0.465101
    105          1           0        7.188863   -2.169720   -1.261923
    106          1           0        8.000820   -2.165335    0.393772
    107          1           0        8.249653   -0.902922   -0.796702
    108          1           0        7.569366    0.229199    1.683086
    109          1           0        5.953639    0.653693    1.831381
    110          1           0        6.330874    2.523137    0.527284
    111          1           0        6.722608    1.381822   -0.791680
    112          1           0        9.141265    1.488201    0.596475
    113          1           0        8.466890    2.980556    1.008934
    114          1           0        9.803387    3.573847   -0.673597
    115          1           0        6.995165    3.403913   -1.626108
    116          1           0        8.283935    3.749289   -2.850002
    117          1           0        8.082944    4.669667   -1.277216
    118          1           0        9.508579    1.862318   -3.079595
    119          1           0        9.566106    0.791654   -1.757183
    120          1           0       11.675685    2.739429   -1.268470
    121          1           0       11.418821    2.884399   -2.966617
    122          1           0       12.499591    1.211905   -3.574697
    123          1           0       11.528813    0.118431   -2.727682
    124          1           0       13.409917    1.241044   -0.820687
    125          1           0       14.552572    0.510378   -3.353999
    126          1           0       15.293178   -0.532244   -2.163750
    127          1           0       15.421195    1.148797   -1.879969
    128          1           0       13.424732   -1.590349   -1.411298
    129          1           0       11.853116   -0.914222   -0.820220
    130          1           0       14.483388   -0.576887    0.600104
    131          1           0       13.265474   -1.820281    0.908893
    132          1           0       11.863577    0.642882    0.801494
    133          1           0       13.306160    0.983710    1.840962
    134          1           0       12.447408   -1.238339    3.084253
    135          1           0       10.780936   -2.132761    1.965585
    136          1           0       10.166505   -0.500733    1.320493
    137          1           0        9.828000   -1.205962    2.990587
    138          1           0       11.743332    1.635634    3.418117
    139          1           0       12.126413    0.338435    4.580433
    140          1           0       10.419196    0.766199    3.951041
 ---------------------------------------------------------------------

 SCF Done:  E(RZINDO/S) =  -474.039131249     A.U. after   19 cycles

 Excitation energies and oscillator strengths:

 Excited State   1:      Singlet-A      1.2920 eV  959.64 nm  f=0.5682  <S**2>=0.000
     175 ->178        -0.20037
     176 ->177         0.66112
 This state for optimization and/or second-order correction.
 Total Energy, E(CIS/TDA) =  -473.991651605
 Copying the excited state density for this state as the 1-particle RhoCI density.

 Excited State   2:      Singlet-A      1.9262 eV  643.66 nm  f=0.0180  <S**2>=0.000
     175 ->177         0.52292
     176 ->178         0.45074

 Excited State   3:      Singlet-A      2.9604 eV  418.81 nm  f=0.0002  <S**2>=0.000
     171 ->177         0.27041
     171 ->179         0.24328
     171 ->181         0.34010
     171 ->183        -0.28021
     171 ->185        -0.20436
     171 ->187        -0.11525
     171 ->188        -0.17141
     171 ->189         0.11265

 Excited State   4:      Singlet-A      3.0089 eV  412.06 nm  f=1.0982  <S**2>=0.000
     175 ->177        -0.38935
     176 ->178         0.49205
     176 ->179         0.19294

 Excited State   5:      Singlet-A      3.0250 eV  409.86 nm  f=0.0479  <S**2>=0.000
     168 ->177         0.31915
     168 ->178        -0.13170
     168 ->179        -0.40844
     168 ->183        -0.24484
     168 ->185         0.18798
     168 ->198         0.11156
     170 ->177        -0.12700
     176 ->178        -0.10308

 The electronic state is 1-A.
 Alpha  occ. eigenvalues --   -1.84136  -1.80942  -1.79216  -1.72188  -1.71292
 Alpha  occ. eigenvalues --   -1.69534  -1.65359  -1.61063  -1.60344  -1.58277
 Alpha  occ. eigenvalues --   -1.54158  -1.51105  -1.48588  -1.48187  -1.46227
 Alpha  occ. eigenvalues --   -1.45723  -1.43729  -1.39643  -1.39096  -1.36888
 Alpha  occ. eigenvalues --   -1.35187  -1.32362  -1.31064  -1.29916  -1.29861
 Alpha  occ. eigenvalues --   -1.27498  -1.25026  -1.22276  -1.19775  -1.18269
 Alpha  occ. eigenvalues --   -1.16998  -1.15776  -1.14408  -1.13789  -1.12641
 Alpha  occ. eigenvalues --   -1.12288  -1.10804  -1.10656  -1.05915  -1.04999
 Alpha  occ. eigenvalues --   -1.03882  -1.01986  -0.99716  -0.98484  -0.97684
 Alpha  occ. eigenvalues --   -0.97502  -0.95189  -0.94510  -0.92975  -0.92463
 Alpha  occ. eigenvalues --   -0.89408  -0.89049  -0.87920  -0.87412  -0.85166
 Alpha  occ. eigenvalues --   -0.83959  -0.83714  -0.82277  -0.81621  -0.81438
 Alpha  occ. eigenvalues --   -0.79777  -0.79522  -0.77111  -0.76576  -0.76120
 Alpha  occ. eigenvalues --   -0.75850  -0.75189  -0.75001  -0.74688  -0.73688
 Alpha  occ. eigenvalues --   -0.73115  -0.73063  -0.71866  -0.71446  -0.70840
 Alpha  occ. eigenvalues --   -0.70107  -0.69315  -0.68824  -0.68706  -0.68633
 Alpha  occ. eigenvalues --   -0.67069  -0.66863  -0.66736  -0.66074  -0.65662
 Alpha  occ. eigenvalues --   -0.65338  -0.65013  -0.63698  -0.63488  -0.63395
 Alpha  occ. eigenvalues --   -0.63136  -0.62733  -0.62447  -0.62321  -0.62087
 Alpha  occ. eigenvalues --   -0.61706  -0.61490  -0.60972  -0.60507  -0.60155
 Alpha  occ. eigenvalues --   -0.59966  -0.59459  -0.59276  -0.58556  -0.58454
 Alpha  occ. eigenvalues --   -0.58082  -0.57366  -0.57326  -0.56109  -0.55956
 Alpha  occ. eigenvalues --   -0.55524  -0.54849  -0.54739  -0.54517  -0.54226
 Alpha  occ. eigenvalues --   -0.53896  -0.53620  -0.53356  -0.53151  -0.52603
 Alpha  occ. eigenvalues --   -0.52344  -0.52272  -0.52025  -0.51839  -0.51503
 Alpha  occ. eigenvalues --   -0.51404  -0.50793  -0.50544  -0.50083  -0.50074
 Alpha  occ. eigenvalues --   -0.49990  -0.49522  -0.49307  -0.49169  -0.49064
 Alpha  occ. eigenvalues --   -0.48714  -0.48634  -0.48415  -0.48281  -0.48007
 Alpha  occ. eigenvalues --   -0.47586  -0.47271  -0.47215  -0.47029  -0.46594
 Alpha  occ. eigenvalues --   -0.46551  -0.46452  -0.45665  -0.45557  -0.45474
 Alpha  occ. eigenvalues --   -0.45000  -0.44757  -0.44472  -0.44368  -0.43848
 Alpha  occ. eigenvalues --   -0.43703  -0.43202  -0.42921  -0.42917  -0.42686
 Alpha  occ. eigenvalues --   -0.42642  -0.42444  -0.42168  -0.39898  -0.39693
 Alpha  occ. eigenvalues --   -0.38607  -0.37558  -0.35838  -0.34720  -0.34001
 Alpha  occ. eigenvalues --   -0.33519  -0.32858  -0.32453  -0.32104  -0.26656
 Alpha  occ. eigenvalues --   -0.21687
 Alpha virt. eigenvalues --   -0.08152  -0.02311  -0.00134   0.01519   0.01857
 Alpha virt. eigenvalues --    0.01914   0.02295   0.02865   0.04837   0.04989
 Alpha virt. eigenvalues --    0.06517   0.06536   0.07276   0.07715   0.07965

 Mulliken charges:
               1
     1  Mg   0.431606
     2  C   -0.060276
     3  C   -0.085418
     4  C   -0.056181
     5  C   -0.061875
     6  N   -0.269891
     7  C    0.147919
     8  C    0.005388
     9  C   -0.012465
    10  C    0.118370
    11  C   -0.050503
    12  C   -0.024293
    13  C   -0.013865
    14  C    0.467917
    15  O   -0.481014
    16  O   -0.277542
    17  N   -0.325665
    18  C    0.079649
    19  C   -0.014085
    20  C   -0.039560
    21  C    0.123798
    22  C   -0.056462
    23  C    0.333428
    24  O   -0.553780
    25  C   -0.035205
    26  N   -0.255280
    27  C    0.118717
    28  C    0.005322
    29  C    0.003676
    30  C    0.156122
    31  C   -0.053267
    32  C   -0.027574
    33  C   -0.057697
    34  N   -0.352809
    35  C    0.127597
    36  C    0.035808
    37  C   -0.021844
    38  C    0.114354
    39  C   -0.047463
    40  C    0.335582
    41  O   -0.489797
    42  C    0.065605
    43  C    0.498303
    44  O   -0.493655
    45  O   -0.313724
    46  C    0.072759
    47  C    0.104586
    48  C   -0.078223
    49  C   -0.003908
    50  C   -0.042250
    51  C   -0.023819
    52  C   -0.022664
    53  C   -0.037919
    54  C   -0.013500
    55  C   -0.060302
    56  C   -0.038284
    57  C   -0.045194
    58  C   -0.044270
    59  C   -0.005537
    60  C   -0.057509
    61  C   -0.032825
    62  C   -0.042523
    63  C   -0.035937
    64  C   -0.018845
    65  C   -0.068411
    66  C   -0.061249
    67  H    0.028566
    68  H    0.037697
    69  H    0.019730
    70  H    0.037161
    71  H    0.033356
    72  H    0.031722
    73  H    0.028196
    74  H    0.020337
    75  H    0.029641
    76  H    0.027721
    77  H    0.037209
    78  H    0.032340
    79  H    0.035649
    80  H    0.019957
    81  H    0.017984
    82  H    0.053422
    83  H    0.050255
    84  H    0.034267
    85  H    0.034126
    86  H    0.030994
    87  H    0.030150
    88  H    0.011670
    89  H    0.023960
    90  H    0.019110
    91  H    0.025602
    92  H    0.023462
    93  H    0.006291
    94  H    0.026905
    95  H    0.020656
    96  H    0.035764
    97  H    0.044121
    98  H    0.053931
    99  H    0.038861
   100  H    0.050027
   101  H    0.032407
   102  H    0.052816
   103  H    0.032298
   104  H    0.032221
   105  H    0.024865
   106  H    0.037014
   107  H    0.022358
   108  H    0.014302
   109  H    0.019999
   110  H    0.024934
   111  H    0.022954
   112  H    0.012965
   113  H    0.007714
   114  H    0.022704
   115  H    0.024838
   116  H    0.023549
   117  H    0.012256
   118  H    0.020000
   119  H    0.024162
   120  H    0.023967
   121  H    0.013598
   122  H    0.014593
   123  H    0.012840
   124  H    0.017604
   125  H    0.021026
   126  H    0.019328
   127  H    0.019397
   128  H    0.013729
   129  H    0.020664
   130  H    0.018370
   131  H    0.013142
   132  H    0.025163
   133  H    0.019600
   134  H    0.023797
   135  H    0.014048
   136  H    0.033923
   137  H    0.015839
   138  H    0.012177
   139  H    0.023123
   140  H    0.026726
 Sum of Mulliken charges =  -0.00000

 Dipole moment (field-independent basis, Debye):
    X=              4.7601    Y=              0.2961    Z=              0.8264  Tot=              4.8404
 N-N= 4.329269680564D+03 E-N= 0.000000000000D+00  KE=-9.332517325823D+03
 Leave Link  601 at Wed May  4 13:38:52 2022, MaxMem=  6710886400 cpu:               0.7 elap:               0.0
 (Enter /sw/apps/gaussian-16.0/g16/l9999.exe)
 1\1\GINC-BP1-COMPUTE067\SP\RZINDO CIS\STO-3G\C55H74Mg1N4O6\OF15641\04-
 May-2022\0\\#p ZINDO=(nstates=5)\\step_1751_chromophore_13 ZINDO\\0,1\
 Mg,0,46.953,25.288,28.789\C,0,47.941,27.399,31.493\C,0,46.222,22.832,3
 1.181\C,0,47.054,23.134,26.292\C,0,48.403,27.703,26.646\N,0,47.016,25.
 17,31.111\C,0,47.432,26.14,31.943\C,0,47.09,25.784,33.37\C,0,46.8,24.1
 79,33.259\C,0,46.647,24.06,31.753\C,0,47.846,23.275,34.032\C,0,45.818,
 26.52,33.859\C,0,45.855,27.09,35.288\C,0,44.843,26.643,36.489\O,0,43.7

 Normal termination of Gaussian 16 at Wed May  4 13:38:52 2022.
