 Gaussian 16, Revision A.03,
 Gaussian 16:  ES64L-G16RevA.03 25-Dec-2016

 ------------------------------
 #p blyp/Def2SVP td=(nstates=5)
 ------------------------------

 ---------------------------------------------------
 step_1651_chromophore_22 TDDFT with blyp functional
 ---------------------------------------------------
 Symbolic Z-matrix:
 Charge =  0 Multiplicity = 1

                         Standard orientation:
 ---------------------------------------------------------------------
 Center     Atomic      Atomic             Coordinates (Angstroms)
 Number     Number       Type             X           Y           Z
 ---------------------------------------------------------------------
      1         12           0        6.113374    0.417862    0.044347
      2          6           0        3.893245   -2.205930   -0.736249
      3          6           0        4.063032    2.544582   -1.340703
      4          6           0        8.421417    2.925541    0.726913
      5          6           0        8.475844   -1.987899    0.811626
      6          7           0        4.334951    0.143423   -1.061153
      7          6           0        3.481438   -0.993873   -1.238148
      8          6           0        2.171731   -0.544349   -1.915758
      9          6           0        2.478990    0.875056   -2.362469
     10          6           0        3.689965    1.249111   -1.490032
     11          6           0        2.893790    0.970051   -3.849986
     12          6           0        1.049937   -0.518640   -0.940726
     13          6           0       -0.273741   -1.169202   -1.473227
     14          6           0       -1.402897   -0.890321   -0.504506
     15          8           0       -1.583462    0.035403    0.260965
     16          8           0       -2.266508   -1.930150   -0.567221
     17          7           0        6.210093    2.555204   -0.147873
     18          6           0        5.219894    3.229457   -0.764468
     19          6           0        5.568146    4.656849   -0.736808
     20          6           0        6.860983    4.766273   -0.228863
     21          6           0        7.229967    3.385254    0.133281
     22          6           0        4.649017    5.707551   -1.307751
     23          6           0        7.761354    5.875169   -0.280951
     24          8           0        8.909834    5.816253    0.032202
     25          6           0        7.269908    7.260157   -0.514208
     26          7           0        8.056201    0.518329    0.747714
     27          6           0        8.799276    1.621180    0.965661
     28          6           0       10.223946    1.289980    1.582126
     29          6           0       10.288597   -0.323567    1.366095
     30          6           0        8.850304   -0.613250    1.020762
     31          6           0       11.533164    1.950141    0.998032
     32          6           0       10.872231   -1.210389    2.458078
     33          6           0       12.091309   -2.139369    2.148824
     34          7           0        6.249928   -1.658485    0.033136
     35          6           0        7.256767   -2.502930    0.426284
     36          6           0        6.788679   -3.865886    0.381119
     37          6           0        5.433298   -3.776005   -0.011815
     38          6           0        5.176286   -2.414357   -0.198665
     39          6           0        7.544185   -5.131649    0.741520
     40          6           0        4.230197   -4.526858   -0.219889
     41          8           0        4.089546   -5.715505   -0.180043
     42          6           0        3.113872   -3.539256   -0.629162
     43          6           0        2.169771   -3.513009    0.533907
     44          8           0        2.231290   -2.649022    1.424228
     45          8           0        1.171309   -4.479746    0.467458
     46          6           0        0.163270   -4.405118    1.558867
     47          6           0       -3.486191   -1.929494    0.307457
     48          6           0       -4.641570   -1.130443   -0.277723
     49          6           0       -6.001190   -1.343820   -0.332745
     50          6           0       -6.671124   -2.522155    0.280031
     51          6           0       -6.879342   -0.377374   -1.032833
     52          6           0       -8.010324   -0.787819   -1.973526
     53          6           0       -9.088296    0.248563   -2.326981
     54          6           0      -10.537743   -0.229295   -2.138113
     55          6           0      -11.019802   -1.185295   -3.305904
     56          6           0      -11.524464    0.923447   -1.882812
     57          6           0      -12.270024    0.721508   -0.486479
     58          6           0      -13.603949   -0.110393   -0.852338
     59          6           0      -14.983444    0.563801   -0.311887
     60          6           0      -16.110393   -0.083330   -1.127731
     61          6           0      -15.347177    0.130536    1.220851
     62          6           0      -15.174746    1.281090    2.252553
     63          6           0      -13.867528    1.189581    3.131152
     64          6           0      -13.240465    2.646147    3.439540
     65          6           0      -11.842447    2.808196    2.806054
     66          6           0      -13.386438    3.050388    4.931718
     67          1           0        3.267079    3.107681   -1.832926
     68          1           0        9.166059    3.625024    1.113768
     69          1           0        9.159518   -2.785006    1.110004
     70          1           0        1.941946   -1.241570   -2.720968
     71          1           0        1.691472    1.598506   -2.151694
     72          1           0        3.835227    1.511163   -3.950278
     73          1           0        2.140021    1.671611   -4.207072
     74          1           0        2.830916    0.019103   -4.379222
     75          1           0        1.020704    0.463873   -0.469091
     76          1           0        1.381477   -1.046288   -0.046707
     77          1           0       -0.142802   -2.220475   -1.728222
     78          1           0       -0.720727   -0.591767   -2.282091
     79          1           0        3.629698    5.340466   -1.427981
     80          1           0        5.040451    6.100813   -2.245660
     81          1           0        4.517196    6.551241   -0.630441
     82          1           0        8.089055    7.888855   -0.165595
     83          1           0        6.468009    7.503111    0.183116
     84          1           0        7.098960    7.595528   -1.537737
     85          1           0       10.096743    1.594685    2.621193
     86          1           0       10.766647   -0.613305    0.429594
     87          1           0       11.938518    1.284337    0.235785
     88          1           0       12.255084    2.166886    1.785178
     89          1           0       11.287734    2.871384    0.470959
     90          1           0       10.088448   -1.694950    3.038863
     91          1           0       11.240703   -0.588679    3.273382
     92          1           0       12.160243   -2.177924    1.061565
     93          1           0       11.852345   -3.135966    2.521154
     94          1           0       12.980911   -1.723258    2.621103
     95          1           0        8.286841   -4.763401    1.448931
     96          1           0        8.006594   -5.652144   -0.097054
     97          1           0        6.832215   -5.777588    1.256084
     98          1           0        2.564772   -3.763852   -1.543402
     99          1           0        0.565002   -3.998038    2.486160
    100          1           0       -0.223281   -5.376224    1.868117
    101          1           0       -0.700838   -3.811998    1.261539
    102          1           0       -3.308035   -1.498474    1.292903
    103          1           0       -3.773664   -2.975191    0.420005
    104          1           0       -4.241109   -0.371300   -0.949081
    105          1           0       -5.918752   -2.836404    1.003518
    106          1           0       -6.914255   -3.209401   -0.530316
    107          1           0       -7.626337   -2.230006    0.718195
    108          1           0       -6.404933    0.418092   -1.606962
    109          1           0       -7.331966    0.113276   -0.171730
    110          1           0       -8.442248   -1.709763   -1.586415
    111          1           0       -7.510740   -1.020297   -2.913970
    112          1           0       -8.910723    0.667546   -3.317302
    113          1           0       -8.990119    1.062111   -1.608838
    114          1           0      -10.444090   -0.934793   -1.312458
    115          1           0      -11.150160   -2.211613   -2.962768
    116          1           0      -10.358677   -1.283913   -4.167058
    117          1           0      -11.906248   -0.886272   -3.864787
    118          1           0      -12.303837    0.990091   -2.642406
    119          1           0      -11.049532    1.883924   -1.682280
    120          1           0      -12.435060    1.699962   -0.035100
    121          1           0      -11.694062    0.198803    0.276552
    122          1           0      -13.399633   -1.056595   -0.351791
    123          1           0      -13.658835   -0.360897   -1.911099
    124          1           0      -14.971008    1.648383   -0.426269
    125          1           0      -16.227354   -1.138702   -0.881277
    126          1           0      -15.956742   -0.036014   -2.205277
    127          1           0      -17.030825    0.393069   -0.790478
    128          1           0      -14.653128   -0.661791    1.499216
    129          1           0      -16.332183   -0.330534    1.289192
    130          1           0      -16.019812    1.218003    2.937304
    131          1           0      -15.247528    2.239823    1.739843
    132          1           0      -13.206183    0.401036    2.771363
    133          1           0      -14.147387    0.716360    4.072431
    134          1           0      -13.888624    3.395639    2.986006
    135          1           0      -11.389653    1.846536    3.046023
    136          1           0      -11.261831    3.625556    3.234363
    137          1           0      -11.987375    2.946252    1.734349
    138          1           0      -13.823565    2.288298    5.577367
    139          1           0      -13.977839    3.954165    5.074218
    140          1           0      -12.356739    3.181685    5.264847
 ---------------------------------------------------------------------

 SCF Done:  E(RB-LYP) =  -3007.35569316     A.U. after   21 cycles

 Excitation energies and oscillator strengths:

 Excited State   1:      Singlet-A      1.7464 eV  709.94 nm  f=0.0947  <S**2>=0.000
     244 -> 247        0.51532
     245 -> 247       -0.25333
     246 -> 247       -0.40076
 This state for optimization and/or second-order correction.
 Total Energy, E(TD-HF/TD-DFT) =  -3007.29151362
 Copying the excited state density for this state as the 1-particle RhoCI density.

 Excited State   2:      Singlet-A      1.7907 eV  692.38 nm  f=0.2263  <S**2>=0.000
     244 -> 247        0.39196
     245 -> 247       -0.12521
     245 -> 248       -0.12385
     246 -> 247        0.56604
     246 <- 247       -0.13494

 Excited State   3:      Singlet-A      1.9571 eV  633.51 nm  f=0.0508  <S**2>=0.000
     243 -> 247        0.48740
     244 -> 247        0.22288
     245 -> 247        0.43067
     246 -> 248        0.11252

 Excited State   4:      Singlet-A      2.1184 eV  585.26 nm  f=0.0553  <S**2>=0.000
     243 -> 247        0.49816
     244 -> 247       -0.16164
     245 -> 247       -0.41648
     246 -> 248       -0.17343
     246 -> 249       -0.10835

 Excited State   5:      Singlet-A      2.1879 eV  566.67 nm  f=0.0001  <S**2>=0.000
     242 -> 247        0.70708

 The electronic state is 1-A.
 Alpha  occ. eigenvalues --  -46.26317 -18.82720 -18.81939 -18.76969 -18.76505
 Alpha  occ. eigenvalues --  -18.75604 -18.74500 -14.03315 -14.02731 -14.00968
 Alpha  occ. eigenvalues --  -14.00173 -10.04555 -10.03911  -9.99458  -9.98473
 Alpha  occ. eigenvalues --   -9.98325  -9.97617  -9.96725  -9.96429  -9.96002
 Alpha  occ. eigenvalues --   -9.95986  -9.95739  -9.95330  -9.94685  -9.94682
 Alpha  occ. eigenvalues --   -9.94415  -9.94368  -9.93969  -9.93800  -9.93765
 Alpha  occ. eigenvalues --   -9.93559  -9.93437  -9.93340  -9.93276  -9.93249
 Alpha  occ. eigenvalues --   -9.92689  -9.92676  -9.92631  -9.92550  -9.92517
 Alpha  occ. eigenvalues --   -9.92483  -9.92279  -9.92241  -9.92179  -9.92178
 Alpha  occ. eigenvalues --   -9.92156  -9.92088  -9.91993  -9.91777  -9.91750
 Alpha  occ. eigenvalues --   -9.91671  -9.91662  -9.91612  -9.91471  -9.91447
 Alpha  occ. eigenvalues --   -9.91433  -9.91361  -9.91346  -9.91287  -9.91165
 Alpha  occ. eigenvalues --   -9.91094  -9.90999  -9.90673  -9.90655  -9.90593
 Alpha  occ. eigenvalues --   -9.90362  -2.91058  -1.71492  -1.70917  -1.70783
 Alpha  occ. eigenvalues --   -0.98004  -0.96941  -0.92853  -0.92727  -0.89482
 Alpha  occ. eigenvalues --   -0.89229  -0.86613  -0.86237  -0.85063  -0.84607
 Alpha  occ. eigenvalues --   -0.75857  -0.74125  -0.73497  -0.72390  -0.72243
 Alpha  occ. eigenvalues --   -0.71329  -0.71255  -0.70793  -0.70242  -0.69991
 Alpha  occ. eigenvalues --   -0.69602  -0.69461  -0.68094  -0.67599  -0.67007
 Alpha  occ. eigenvalues --   -0.66174  -0.65590  -0.65141  -0.64971  -0.64306
 Alpha  occ. eigenvalues --   -0.64069  -0.62954  -0.62747  -0.62122  -0.60992
 Alpha  occ. eigenvalues --   -0.60891  -0.60227  -0.59674  -0.59111  -0.58304
 Alpha  occ. eigenvalues --   -0.58103  -0.57632  -0.56338  -0.55689  -0.54784
 Alpha  occ. eigenvalues --   -0.54175  -0.53636  -0.53223  -0.51793  -0.51517
 Alpha  occ. eigenvalues --   -0.51408  -0.51293  -0.50779  -0.50455  -0.49985
 Alpha  occ. eigenvalues --   -0.49578  -0.49120  -0.48866  -0.48312  -0.46486
 Alpha  occ. eigenvalues --   -0.46295  -0.46001  -0.45910  -0.44805  -0.44616
 Alpha  occ. eigenvalues --   -0.44262  -0.43714  -0.43339  -0.42627  -0.42422
 Alpha  occ. eigenvalues --   -0.41801  -0.41519  -0.41274  -0.41042  -0.40650
 Alpha  occ. eigenvalues --   -0.40419  -0.40307  -0.40076  -0.39896  -0.39762
 Alpha  occ. eigenvalues --   -0.39652  -0.39532  -0.39371  -0.39133  -0.39043
 Alpha  occ. eigenvalues --   -0.38907  -0.38822  -0.38547  -0.38413  -0.38219
 Alpha  occ. eigenvalues --   -0.38168  -0.37931  -0.37416  -0.37315  -0.37257
 Alpha  occ. eigenvalues --   -0.37196  -0.36805  -0.36641  -0.36531  -0.36425
 Alpha  occ. eigenvalues --   -0.36285  -0.36014  -0.35852  -0.35627  -0.35456
 Alpha  occ. eigenvalues --   -0.35286  -0.34937  -0.34771  -0.34664  -0.34606
 Alpha  occ. eigenvalues --   -0.34497  -0.34305  -0.34201  -0.33954  -0.33786
 Alpha  occ. eigenvalues --   -0.33708  -0.33413  -0.33396  -0.33330  -0.33206
 Alpha  occ. eigenvalues --   -0.33084  -0.32758  -0.32429  -0.32385  -0.32197
 Alpha  occ. eigenvalues --   -0.32000  -0.31963  -0.31795  -0.31490  -0.31308
 Alpha  occ. eigenvalues --   -0.31273  -0.31140  -0.31089  -0.30800  -0.30715
 Alpha  occ. eigenvalues --   -0.30529  -0.30394  -0.30169  -0.30155  -0.29777
 Alpha  occ. eigenvalues --   -0.29770  -0.29732  -0.29491  -0.29330  -0.29185
 Alpha  occ. eigenvalues --   -0.28597  -0.28469  -0.28371  -0.28114  -0.27499
 Alpha  occ. eigenvalues --   -0.27262  -0.27070  -0.26930  -0.26809  -0.26268
 Alpha  occ. eigenvalues --   -0.26244  -0.26231  -0.25956  -0.25343  -0.25241
 Alpha  occ. eigenvalues --   -0.25045  -0.24731  -0.24250  -0.23557  -0.23165
 Alpha  occ. eigenvalues --   -0.22857  -0.22255  -0.22025  -0.21826  -0.20990
 Alpha  occ. eigenvalues --   -0.20407  -0.19585  -0.18860  -0.18009  -0.17144
 Alpha  occ. eigenvalues --   -0.15592
 Alpha virt. eigenvalues --   -0.11545  -0.06535  -0.05787  -0.04458  -0.02929
 Alpha virt. eigenvalues --   -0.02276  -0.01772  -0.01404  -0.00950   0.00743
 Alpha virt. eigenvalues --    0.01380   0.02021   0.02207   0.02581   0.02670

 Mulliken charges:
               1
     1  Mg   0.702526
     2  C   -0.048172
     3  C    0.000727
     4  C   -0.058606
     5  C   -0.092563
     6  N   -0.270975
     7  C   -0.073875
     8  C    0.063044
     9  C   -0.013075
    10  C   -0.046864
    11  C    0.159150
    12  C    0.103799
    13  C    0.160997
    14  C    0.043752
    15  O   -0.181162
    16  O   -0.278255
    17  N   -0.229450
    18  C    0.128426
    19  C   -0.130414
    20  C    0.085158
    21  C    0.091148
    22  C    0.180607
    23  C   -0.130825
    24  O   -0.141145
    25  C    0.120439
    26  N   -0.236726
    27  C    0.002356
    28  C    0.020321
    29  C    0.033594
    30  C    0.038507
    31  C    0.130436
    32  C    0.076303
    33  C    0.072176
    34  N   -0.235140
    35  C    0.114858
    36  C   -0.194056
    37  C    0.103316
    38  C    0.118027
    39  C    0.171780
    40  C   -0.086961
    41  O   -0.100434
    42  C    0.096370
    43  C    0.143358
    44  O   -0.204443
    45  O   -0.272140
    46  C    0.207294
    47  C    0.320584
    48  C   -0.133729
    49  C   -0.149450
    50  C    0.164697
    51  C    0.122639
    52  C    0.068654
    53  C    0.108583
    54  C   -0.039163
    55  C    0.077332
    56  C    0.119855
    57  C    0.012579
    58  C    0.068203
    59  C   -0.049088
    60  C    0.097535
    61  C    0.084730
    62  C    0.066162
    63  C    0.082802
    64  C   -0.103710
    65  C    0.114692
    66  C    0.096740
    67  H   -0.080993
    68  H   -0.043348
    69  H   -0.066951
    70  H   -0.045892
    71  H   -0.022903
    72  H   -0.002597
    73  H   -0.018800
    74  H    0.002353
    75  H   -0.023194
    76  H   -0.015307
    77  H    0.011048
    78  H    0.000013
    79  H   -0.011584
    80  H    0.004179
    81  H   -0.010869
    82  H   -0.022022
    83  H   -0.001333
    84  H    0.002755
    85  H   -0.012425
    86  H   -0.007493
    87  H   -0.017000
    88  H   -0.001691
    89  H    0.002839
    90  H   -0.029716
    91  H   -0.042793
    92  H   -0.008572
    93  H   -0.001010
    94  H    0.006846
    95  H   -0.015864
    96  H    0.015536
    97  H    0.008291
    98  H   -0.001594
    99  H    0.020575
   100  H    0.012273
   101  H    0.015660
   102  H    0.012184
   103  H   -0.004689
   104  H   -0.031062
   105  H   -0.003524
   106  H    0.017707
   107  H   -0.011932
   108  H   -0.032711
   109  H   -0.021915
   110  H   -0.043883
   111  H   -0.031057
   112  H   -0.026835
   113  H   -0.042141
   114  H   -0.033554
   115  H   -0.015438
   116  H   -0.031811
   117  H   -0.019666
   118  H   -0.018894
   119  H   -0.036218
   120  H   -0.021801
   121  H   -0.021174
   122  H   -0.033954
   123  H   -0.020641
   124  H   -0.024604
   125  H   -0.018528
   126  H   -0.021120
   127  H   -0.018605
   128  H   -0.039797
   129  H   -0.030903
   130  H   -0.034220
   131  H   -0.022133
   132  H   -0.032274
   133  H   -0.042961
   134  H   -0.032467
   135  H   -0.011014
   136  H   -0.016336
   137  H    0.000589
   138  H   -0.018850
   139  H   -0.008869
   140  H   -0.027149
 Sum of Mulliken charges =  -0.00000

 Dipole moment (field-independent basis, Debye):
    X=             -2.9012    Y=              0.3841    Z=             -0.9301  Tot=              3.0707
 Quadrupole moment (field-independent basis, Debye-Ang):
   XX=           -377.7901   YY=           -425.1850   ZZ=           -395.5404
   XY=             -5.3452   XZ=              6.1495   YZ=            -10.5118

 Normal termination of Gaussian 16 at Thu Apr 28 17:39:21 2022.
