 Gaussian 16, Revision A.03,
 Gaussian 16:  ES64L-G16RevA.03 25-Dec-2016

 -----------------------------------
 #p cam-b3lyp/Def2SVP td=(nstates=5)
 -----------------------------------

 --------------------------------------------------------
 step_1651_chromophore_22 TDDFT with cam-b3lyp functional
 --------------------------------------------------------
 Symbolic Z-matrix:
 Charge =  0 Multiplicity = 1

                         Standard orientation:
 ---------------------------------------------------------------------
 Center     Atomic      Atomic             Coordinates (Angstroms)
 Number     Number       Type             X           Y           Z
 ---------------------------------------------------------------------
      1         12           0        6.113374    0.417862    0.044347
      2          6           0        3.893245   -2.205930   -0.736249
      3          6           0        4.063032    2.544582   -1.340703
      4          6           0        8.421417    2.925541    0.726913
      5          6           0        8.475844   -1.987899    0.811626
      6          7           0        4.334951    0.143423   -1.061153
      7          6           0        3.481438   -0.993873   -1.238148
      8          6           0        2.171731   -0.544349   -1.915758
      9          6           0        2.478990    0.875056   -2.362469
     10          6           0        3.689965    1.249111   -1.490032
     11          6           0        2.893790    0.970051   -3.849986
     12          6           0        1.049937   -0.518640   -0.940726
     13          6           0       -0.273741   -1.169202   -1.473227
     14          6           0       -1.402897   -0.890321   -0.504506
     15          8           0       -1.583462    0.035403    0.260965
     16          8           0       -2.266508   -1.930150   -0.567221
     17          7           0        6.210093    2.555204   -0.147873
     18          6           0        5.219894    3.229457   -0.764468
     19          6           0        5.568146    4.656849   -0.736808
     20          6           0        6.860983    4.766273   -0.228863
     21          6           0        7.229967    3.385254    0.133281
     22          6           0        4.649017    5.707551   -1.307751
     23          6           0        7.761354    5.875169   -0.280951
     24          8           0        8.909834    5.816253    0.032202
     25          6           0        7.269908    7.260157   -0.514208
     26          7           0        8.056201    0.518329    0.747714
     27          6           0        8.799276    1.621180    0.965661
     28          6           0       10.223946    1.289980    1.582126
     29          6           0       10.288597   -0.323567    1.366095
     30          6           0        8.850304   -0.613250    1.020762
     31          6           0       11.533164    1.950141    0.998032
     32          6           0       10.872231   -1.210389    2.458078
     33          6           0       12.091309   -2.139369    2.148824
     34          7           0        6.249928   -1.658485    0.033136
     35          6           0        7.256767   -2.502930    0.426284
     36          6           0        6.788679   -3.865886    0.381119
     37          6           0        5.433298   -3.776005   -0.011815
     38          6           0        5.176286   -2.414357   -0.198665
     39          6           0        7.544185   -5.131649    0.741520
     40          6           0        4.230197   -4.526858   -0.219889
     41          8           0        4.089546   -5.715505   -0.180043
     42          6           0        3.113872   -3.539256   -0.629162
     43          6           0        2.169771   -3.513009    0.533907
     44          8           0        2.231290   -2.649022    1.424228
     45          8           0        1.171309   -4.479746    0.467458
     46          6           0        0.163270   -4.405118    1.558867
     47          6           0       -3.486191   -1.929494    0.307457
     48          6           0       -4.641570   -1.130443   -0.277723
     49          6           0       -6.001190   -1.343820   -0.332745
     50          6           0       -6.671124   -2.522155    0.280031
     51          6           0       -6.879342   -0.377374   -1.032833
     52          6           0       -8.010324   -0.787819   -1.973526
     53          6           0       -9.088296    0.248563   -2.326981
     54          6           0      -10.537743   -0.229295   -2.138113
     55          6           0      -11.019802   -1.185295   -3.305904
     56          6           0      -11.524464    0.923447   -1.882812
     57          6           0      -12.270024    0.721508   -0.486479
     58          6           0      -13.603949   -0.110393   -0.852338
     59          6           0      -14.983444    0.563801   -0.311887
     60          6           0      -16.110393   -0.083330   -1.127731
     61          6           0      -15.347177    0.130536    1.220851
     62          6           0      -15.174746    1.281090    2.252553
     63          6           0      -13.867528    1.189581    3.131152
     64          6           0      -13.240465    2.646147    3.439540
     65          6           0      -11.842447    2.808196    2.806054
     66          6           0      -13.386438    3.050388    4.931718
     67          1           0        3.267079    3.107681   -1.832926
     68          1           0        9.166059    3.625024    1.113768
     69          1           0        9.159518   -2.785006    1.110004
     70          1           0        1.941946   -1.241570   -2.720968
     71          1           0        1.691472    1.598506   -2.151694
     72          1           0        3.835227    1.511163   -3.950278
     73          1           0        2.140021    1.671611   -4.207072
     74          1           0        2.830916    0.019103   -4.379222
     75          1           0        1.020704    0.463873   -0.469091
     76          1           0        1.381477   -1.046288   -0.046707
     77          1           0       -0.142802   -2.220475   -1.728222
     78          1           0       -0.720727   -0.591767   -2.282091
     79          1           0        3.629698    5.340466   -1.427981
     80          1           0        5.040451    6.100813   -2.245660
     81          1           0        4.517196    6.551241   -0.630441
     82          1           0        8.089055    7.888855   -0.165595
     83          1           0        6.468009    7.503111    0.183116
     84          1           0        7.098960    7.595528   -1.537737
     85          1           0       10.096743    1.594685    2.621193
     86          1           0       10.766647   -0.613305    0.429594
     87          1           0       11.938518    1.284337    0.235785
     88          1           0       12.255084    2.166886    1.785178
     89          1           0       11.287734    2.871384    0.470959
     90          1           0       10.088448   -1.694950    3.038863
     91          1           0       11.240703   -0.588679    3.273382
     92          1           0       12.160243   -2.177924    1.061565
     93          1           0       11.852345   -3.135966    2.521154
     94          1           0       12.980911   -1.723258    2.621103
     95          1           0        8.286841   -4.763401    1.448931
     96          1           0        8.006594   -5.652144   -0.097054
     97          1           0        6.832215   -5.777588    1.256084
     98          1           0        2.564772   -3.763852   -1.543402
     99          1           0        0.565002   -3.998038    2.486160
    100          1           0       -0.223281   -5.376224    1.868117
    101          1           0       -0.700838   -3.811998    1.261539
    102          1           0       -3.308035   -1.498474    1.292903
    103          1           0       -3.773664   -2.975191    0.420005
    104          1           0       -4.241109   -0.371300   -0.949081
    105          1           0       -5.918752   -2.836404    1.003518
    106          1           0       -6.914255   -3.209401   -0.530316
    107          1           0       -7.626337   -2.230006    0.718195
    108          1           0       -6.404933    0.418092   -1.606962
    109          1           0       -7.331966    0.113276   -0.171730
    110          1           0       -8.442248   -1.709763   -1.586415
    111          1           0       -7.510740   -1.020297   -2.913970
    112          1           0       -8.910723    0.667546   -3.317302
    113          1           0       -8.990119    1.062111   -1.608838
    114          1           0      -10.444090   -0.934793   -1.312458
    115          1           0      -11.150160   -2.211613   -2.962768
    116          1           0      -10.358677   -1.283913   -4.167058
    117          1           0      -11.906248   -0.886272   -3.864787
    118          1           0      -12.303837    0.990091   -2.642406
    119          1           0      -11.049532    1.883924   -1.682280
    120          1           0      -12.435060    1.699962   -0.035100
    121          1           0      -11.694062    0.198803    0.276552
    122          1           0      -13.399633   -1.056595   -0.351791
    123          1           0      -13.658835   -0.360897   -1.911099
    124          1           0      -14.971008    1.648383   -0.426269
    125          1           0      -16.227354   -1.138702   -0.881277
    126          1           0      -15.956742   -0.036014   -2.205277
    127          1           0      -17.030825    0.393069   -0.790478
    128          1           0      -14.653128   -0.661791    1.499216
    129          1           0      -16.332183   -0.330534    1.289192
    130          1           0      -16.019812    1.218003    2.937304
    131          1           0      -15.247528    2.239823    1.739843
    132          1           0      -13.206183    0.401036    2.771363
    133          1           0      -14.147387    0.716360    4.072431
    134          1           0      -13.888624    3.395639    2.986006
    135          1           0      -11.389653    1.846536    3.046023
    136          1           0      -11.261831    3.625556    3.234363
    137          1           0      -11.987375    2.946252    1.734349
    138          1           0      -13.823565    2.288298    5.577367
    139          1           0      -13.977839    3.954165    5.074218
    140          1           0      -12.356739    3.181685    5.264847
 ---------------------------------------------------------------------

 SCF Done:  E(RCAM-B3LYP) =  -3007.15206982     A.U. after   18 cycles

 Excitation energies and oscillator strengths:

 Excited State   1:      Singlet-A      1.6511 eV  750.92 nm  f=0.4036  <S**2>=0.000
     245 -> 248        0.15225
     246 -> 247        0.69187
     245 <- 248        0.10061
 This state for optimization and/or second-order correction.
 Total Energy, E(TD-HF/TD-DFT) =  -3007.09139280
 Copying the excited state density for this state as the 1-particle RhoCI density.

 Excited State   2:      Singlet-A      2.2346 eV  554.84 nm  f=0.1370  <S**2>=0.000
     245 -> 247        0.64955
     246 -> 248       -0.26175

 Excited State   3:      Singlet-A      3.3855 eV  366.22 nm  f=0.0063  <S**2>=0.000
     242 -> 247        0.17446
     243 -> 247        0.66376

 Excited State   4:      Singlet-A      3.5120 eV  353.03 nm  f=0.0602  <S**2>=0.000
     240 -> 247       -0.20971
     241 -> 247        0.33000
     241 -> 248        0.13140
     241 -> 249       -0.10702
     241 -> 250       -0.18436
     242 -> 247        0.35756
     242 -> 250       -0.12450
     246 -> 248       -0.26282

 Excited State   5:      Singlet-A      3.5611 eV  348.16 nm  f=0.1558  <S**2>=0.000
     240 -> 247        0.21628
     240 -> 249        0.10406
     241 -> 247        0.45808
     245 -> 247        0.13011
     246 -> 248        0.40343

 The electronic state is 1-A.
 Alpha  occ. eigenvalues --  -46.87764 -19.25649 -19.24811 -19.20074 -19.19423
 Alpha  occ. eigenvalues --  -19.18675 -19.17859 -14.42302 -14.41415 -14.39523
 Alpha  occ. eigenvalues --  -14.38452 -10.40098 -10.39114 -10.34586 -10.33494
 Alpha  occ. eigenvalues --  -10.32630 -10.31602 -10.31056 -10.30869 -10.30530
 Alpha  occ. eigenvalues --  -10.30479 -10.30167 -10.29780 -10.28970 -10.28647
 Alpha  occ. eigenvalues --  -10.28537 -10.28448 -10.28323 -10.28121 -10.27667
 Alpha  occ. eigenvalues --  -10.27569 -10.27491 -10.27473 -10.27403 -10.27362
 Alpha  occ. eigenvalues --  -10.26708 -10.26695 -10.26517 -10.26479 -10.26296
 Alpha  occ. eigenvalues --  -10.26239 -10.26093 -10.25943 -10.25929 -10.25851
 Alpha  occ. eigenvalues --  -10.25825 -10.25822 -10.25799 -10.25785 -10.25783
 Alpha  occ. eigenvalues --  -10.25769 -10.25445 -10.25360 -10.25259 -10.25204
 Alpha  occ. eigenvalues --  -10.25112 -10.25090 -10.25061 -10.25026 -10.24845
 Alpha  occ. eigenvalues --  -10.24804 -10.24698 -10.24634 -10.24275 -10.24226
 Alpha  occ. eigenvalues --  -10.24182  -3.16414  -1.91324  -1.90860  -1.90729
 Alpha  occ. eigenvalues --   -1.16470  -1.15426  -1.11498  -1.11080  -1.07287
 Alpha  occ. eigenvalues --   -1.07108  -1.04308  -1.03855  -1.02654  -1.02109
 Alpha  occ. eigenvalues --   -0.92924  -0.91048  -0.90261  -0.89082  -0.88987
 Alpha  occ. eigenvalues --   -0.88002  -0.87843  -0.87665  -0.86798  -0.86510
 Alpha  occ. eigenvalues --   -0.86002  -0.85791  -0.84369  -0.83793  -0.83139
 Alpha  occ. eigenvalues --   -0.82164  -0.81609  -0.81169  -0.80801  -0.80306
 Alpha  occ. eigenvalues --   -0.79878  -0.78582  -0.78544  -0.77630  -0.76379
 Alpha  occ. eigenvalues --   -0.76280  -0.75597  -0.74943  -0.74351  -0.73501
 Alpha  occ. eigenvalues --   -0.73136  -0.72616  -0.71176  -0.70482  -0.69366
 Alpha  occ. eigenvalues --   -0.68955  -0.68150  -0.67762  -0.66115  -0.65579
 Alpha  occ. eigenvalues --   -0.65536  -0.65525  -0.64754  -0.64412  -0.64013
 Alpha  occ. eigenvalues --   -0.63553  -0.62814  -0.62799  -0.61900  -0.60120
 Alpha  occ. eigenvalues --   -0.59972  -0.59508  -0.59450  -0.58464  -0.57895
 Alpha  occ. eigenvalues --   -0.57582  -0.57042  -0.56427  -0.55748  -0.55665
 Alpha  occ. eigenvalues --   -0.54908  -0.54527  -0.54265  -0.54132  -0.53636
 Alpha  occ. eigenvalues --   -0.53509  -0.53121  -0.52960  -0.52909  -0.52493
 Alpha  occ. eigenvalues --   -0.52254  -0.52168  -0.52003  -0.51787  -0.51483
 Alpha  occ. eigenvalues --   -0.51367  -0.51322  -0.50951  -0.50856  -0.50687
 Alpha  occ. eigenvalues --   -0.50527  -0.50310  -0.49810  -0.49750  -0.49521
 Alpha  occ. eigenvalues --   -0.49398  -0.49282  -0.49049  -0.48870  -0.48612
 Alpha  occ. eigenvalues --   -0.48532  -0.48410  -0.48073  -0.48000  -0.47744
 Alpha  occ. eigenvalues --   -0.47347  -0.47218  -0.46767  -0.46672  -0.46492
 Alpha  occ. eigenvalues --   -0.46322  -0.46062  -0.45934  -0.45793  -0.45631
 Alpha  occ. eigenvalues --   -0.45610  -0.45227  -0.45169  -0.44923  -0.44876
 Alpha  occ. eigenvalues --   -0.44740  -0.44404  -0.44306  -0.44157  -0.43724
 Alpha  occ. eigenvalues --   -0.43600  -0.43463  -0.43351  -0.43167  -0.42867
 Alpha  occ. eigenvalues --   -0.42707  -0.42627  -0.42495  -0.42298  -0.42171
 Alpha  occ. eigenvalues --   -0.42044  -0.41940  -0.41789  -0.41505  -0.41417
 Alpha  occ. eigenvalues --   -0.40975  -0.40883  -0.40841  -0.40399  -0.40266
 Alpha  occ. eigenvalues --   -0.39745  -0.39501  -0.39302  -0.39023  -0.38471
 Alpha  occ. eigenvalues --   -0.38357  -0.38147  -0.37685  -0.37606  -0.37343
 Alpha  occ. eigenvalues --   -0.37033  -0.36941  -0.36885  -0.36522  -0.36233
 Alpha  occ. eigenvalues --   -0.35841  -0.35637  -0.34699  -0.34567  -0.33997
 Alpha  occ. eigenvalues --   -0.33915  -0.33133  -0.32879  -0.31569  -0.30752
 Alpha  occ. eigenvalues --   -0.30517  -0.30305  -0.29538  -0.29082  -0.24014
 Alpha  occ. eigenvalues --   -0.20839
 Alpha virt. eigenvalues --   -0.08745  -0.01050   0.00786   0.02396   0.03678
 Alpha virt. eigenvalues --    0.04706   0.05086   0.05482   0.06675   0.07210
 Alpha virt. eigenvalues --    0.08140   0.08574   0.08615   0.08895   0.09038

 Mulliken charges:
               1
     1  Mg   0.838465
     2  C   -0.076581
     3  C   -0.025264
     4  C   -0.069084
     5  C   -0.091239
     6  N   -0.344907
     7  C   -0.030177
     8  C    0.007122
     9  C   -0.066365
    10  C   -0.022080
    11  C    0.101323
    12  C    0.042861
    13  C    0.088491
    14  C    0.129189
    15  O   -0.223216
    16  O   -0.342451
    17  N   -0.315888
    18  C    0.140290
    19  C   -0.135805
    20  C    0.017024
    21  C    0.112598
    22  C    0.125370
    23  C   -0.050374
    24  O   -0.181174
    25  C    0.033068
    26  N   -0.310969
    27  C    0.023347
    28  C   -0.031729
    29  C   -0.024963
    30  C    0.059160
    31  C    0.074228
    32  C    0.008906
    33  C    0.015464
    34  N   -0.324779
    35  C    0.110787
    36  C   -0.187105
    37  C    0.022208
    38  C    0.156327
    39  C    0.126962
    40  C    0.004664
    41  O   -0.139526
    42  C    0.024105
    43  C    0.231665
    44  O   -0.241487
    45  O   -0.335128
    46  C    0.173405
    47  C    0.287067
    48  C   -0.151139
    49  C   -0.167396
    50  C    0.101317
    51  C    0.063824
    52  C    0.012541
    53  C    0.058357
    54  C   -0.092937
    55  C    0.017986
    56  C    0.058844
    57  C   -0.027504
    58  C    0.021548
    59  C   -0.102722
    60  C    0.035673
    61  C    0.033767
    62  C    0.013103
    63  C    0.028820
    64  C   -0.162107
    65  C    0.058059
    66  C    0.039606
    67  H   -0.047783
    68  H   -0.002818
    69  H   -0.032188
    70  H   -0.009017
    71  H    0.012298
    72  H    0.024558
    73  H    0.005425
    74  H    0.026641
    75  H    0.012257
    76  H    0.018092
    77  H    0.042847
    78  H    0.029744
    79  H    0.017059
    80  H    0.030884
    81  H    0.016506
    82  H    0.015442
    83  H    0.027241
    84  H    0.033174
    85  H    0.020961
    86  H    0.025597
    87  H    0.007608
    88  H    0.022695
    89  H    0.026854
    90  H    0.002771
    91  H   -0.011456
    92  H    0.012869
    93  H    0.021359
    94  H    0.029397
    95  H    0.005337
    96  H    0.041122
    97  H    0.034778
    98  H    0.040250
    99  H    0.046578
   100  H    0.035052
   101  H    0.032824
   102  H    0.043851
   103  H    0.023097
   104  H   -0.000358
   105  H    0.018774
   106  H    0.041986
   107  H    0.013572
   108  H   -0.001859
   109  H    0.006092
   110  H   -0.017978
   111  H   -0.001918
   112  H    0.001822
   113  H   -0.012764
   114  H   -0.002844
   115  H    0.008393
   116  H   -0.006083
   117  H    0.003759
   118  H    0.009285
   119  H   -0.005164
   120  H   -0.000547
   121  H    0.003112
   122  H   -0.006798
   123  H    0.003300
   124  H    0.004766
   125  H    0.005125
   126  H    0.004247
   127  H    0.006822
   128  H   -0.012526
   129  H   -0.000889
   130  H   -0.004756
   131  H    0.002816
   132  H   -0.006510
   133  H   -0.013164
   134  H   -0.001044
   135  H    0.010257
   136  H    0.009228
   137  H    0.019904
   138  H    0.005159
   139  H    0.014773
   140  H   -0.003344
 Sum of Mulliken charges =  -0.00000

 Dipole moment (field-independent basis, Debye):
    X=             -2.9593    Y=              1.0875    Z=             -1.0087  Tot=              3.3102
 Quadrupole moment (field-independent basis, Debye-Ang):
   XX=           -375.8347   YY=           -420.2181   ZZ=           -394.6473
   XY=             -0.4052   XZ=              6.3849   YZ=            -11.8028

 Normal termination of Gaussian 16 at Thu Apr 28 16:45:14 2022.
