 Gaussian 16, Revision A.03,
 Gaussian 16:  ES64L-G16RevA.03 25-Dec-2016

 ---------------------------------
 #p PBE1PBE/Def2SVP td=(nstates=5)
 ---------------------------------

 ------------------------------------------------------
 step_1651_chromophore_22 TDDFT with PBE1PBE functional
 ------------------------------------------------------
 Symbolic Z-matrix:
 Charge =  0 Multiplicity = 1

                         Standard orientation:
 ---------------------------------------------------------------------
 Center     Atomic      Atomic             Coordinates (Angstroms)
 Number     Number       Type             X           Y           Z
 ---------------------------------------------------------------------
      1         12           0        6.113374    0.417862    0.044347
      2          6           0        3.893245   -2.205930   -0.736249
      3          6           0        4.063032    2.544582   -1.340703
      4          6           0        8.421417    2.925541    0.726913
      5          6           0        8.475844   -1.987899    0.811626
      6          7           0        4.334951    0.143423   -1.061153
      7          6           0        3.481438   -0.993873   -1.238148
      8          6           0        2.171731   -0.544349   -1.915758
      9          6           0        2.478990    0.875056   -2.362469
     10          6           0        3.689965    1.249111   -1.490032
     11          6           0        2.893790    0.970051   -3.849986
     12          6           0        1.049937   -0.518640   -0.940726
     13          6           0       -0.273741   -1.169202   -1.473227
     14          6           0       -1.402897   -0.890321   -0.504506
     15          8           0       -1.583462    0.035403    0.260965
     16          8           0       -2.266508   -1.930150   -0.567221
     17          7           0        6.210093    2.555204   -0.147873
     18          6           0        5.219894    3.229457   -0.764468
     19          6           0        5.568146    4.656849   -0.736808
     20          6           0        6.860983    4.766273   -0.228863
     21          6           0        7.229967    3.385254    0.133281
     22          6           0        4.649017    5.707551   -1.307751
     23          6           0        7.761354    5.875169   -0.280951
     24          8           0        8.909834    5.816253    0.032202
     25          6           0        7.269908    7.260157   -0.514208
     26          7           0        8.056201    0.518329    0.747714
     27          6           0        8.799276    1.621180    0.965661
     28          6           0       10.223946    1.289980    1.582126
     29          6           0       10.288597   -0.323567    1.366095
     30          6           0        8.850304   -0.613250    1.020762
     31          6           0       11.533164    1.950141    0.998032
     32          6           0       10.872231   -1.210389    2.458078
     33          6           0       12.091309   -2.139369    2.148824
     34          7           0        6.249928   -1.658485    0.033136
     35          6           0        7.256767   -2.502930    0.426284
     36          6           0        6.788679   -3.865886    0.381119
     37          6           0        5.433298   -3.776005   -0.011815
     38          6           0        5.176286   -2.414357   -0.198665
     39          6           0        7.544185   -5.131649    0.741520
     40          6           0        4.230197   -4.526858   -0.219889
     41          8           0        4.089546   -5.715505   -0.180043
     42          6           0        3.113872   -3.539256   -0.629162
     43          6           0        2.169771   -3.513009    0.533907
     44          8           0        2.231290   -2.649022    1.424228
     45          8           0        1.171309   -4.479746    0.467458
     46          6           0        0.163270   -4.405118    1.558867
     47          6           0       -3.486191   -1.929494    0.307457
     48          6           0       -4.641570   -1.130443   -0.277723
     49          6           0       -6.001190   -1.343820   -0.332745
     50          6           0       -6.671124   -2.522155    0.280031
     51          6           0       -6.879342   -0.377374   -1.032833
     52          6           0       -8.010324   -0.787819   -1.973526
     53          6           0       -9.088296    0.248563   -2.326981
     54          6           0      -10.537743   -0.229295   -2.138113
     55          6           0      -11.019802   -1.185295   -3.305904
     56          6           0      -11.524464    0.923447   -1.882812
     57          6           0      -12.270024    0.721508   -0.486479
     58          6           0      -13.603949   -0.110393   -0.852338
     59          6           0      -14.983444    0.563801   -0.311887
     60          6           0      -16.110393   -0.083330   -1.127731
     61          6           0      -15.347177    0.130536    1.220851
     62          6           0      -15.174746    1.281090    2.252553
     63          6           0      -13.867528    1.189581    3.131152
     64          6           0      -13.240465    2.646147    3.439540
     65          6           0      -11.842447    2.808196    2.806054
     66          6           0      -13.386438    3.050388    4.931718
     67          1           0        3.267079    3.107681   -1.832926
     68          1           0        9.166059    3.625024    1.113768
     69          1           0        9.159518   -2.785006    1.110004
     70          1           0        1.941946   -1.241570   -2.720968
     71          1           0        1.691472    1.598506   -2.151694
     72          1           0        3.835227    1.511163   -3.950278
     73          1           0        2.140021    1.671611   -4.207072
     74          1           0        2.830916    0.019103   -4.379222
     75          1           0        1.020704    0.463873   -0.469091
     76          1           0        1.381477   -1.046288   -0.046707
     77          1           0       -0.142802   -2.220475   -1.728222
     78          1           0       -0.720727   -0.591767   -2.282091
     79          1           0        3.629698    5.340466   -1.427981
     80          1           0        5.040451    6.100813   -2.245660
     81          1           0        4.517196    6.551241   -0.630441
     82          1           0        8.089055    7.888855   -0.165595
     83          1           0        6.468009    7.503111    0.183116
     84          1           0        7.098960    7.595528   -1.537737
     85          1           0       10.096743    1.594685    2.621193
     86          1           0       10.766647   -0.613305    0.429594
     87          1           0       11.938518    1.284337    0.235785
     88          1           0       12.255084    2.166886    1.785178
     89          1           0       11.287734    2.871384    0.470959
     90          1           0       10.088448   -1.694950    3.038863
     91          1           0       11.240703   -0.588679    3.273382
     92          1           0       12.160243   -2.177924    1.061565
     93          1           0       11.852345   -3.135966    2.521154
     94          1           0       12.980911   -1.723258    2.621103
     95          1           0        8.286841   -4.763401    1.448931
     96          1           0        8.006594   -5.652144   -0.097054
     97          1           0        6.832215   -5.777588    1.256084
     98          1           0        2.564772   -3.763852   -1.543402
     99          1           0        0.565002   -3.998038    2.486160
    100          1           0       -0.223281   -5.376224    1.868117
    101          1           0       -0.700838   -3.811998    1.261539
    102          1           0       -3.308035   -1.498474    1.292903
    103          1           0       -3.773664   -2.975191    0.420005
    104          1           0       -4.241109   -0.371300   -0.949081
    105          1           0       -5.918752   -2.836404    1.003518
    106          1           0       -6.914255   -3.209401   -0.530316
    107          1           0       -7.626337   -2.230006    0.718195
    108          1           0       -6.404933    0.418092   -1.606962
    109          1           0       -7.331966    0.113276   -0.171730
    110          1           0       -8.442248   -1.709763   -1.586415
    111          1           0       -7.510740   -1.020297   -2.913970
    112          1           0       -8.910723    0.667546   -3.317302
    113          1           0       -8.990119    1.062111   -1.608838
    114          1           0      -10.444090   -0.934793   -1.312458
    115          1           0      -11.150160   -2.211613   -2.962768
    116          1           0      -10.358677   -1.283913   -4.167058
    117          1           0      -11.906248   -0.886272   -3.864787
    118          1           0      -12.303837    0.990091   -2.642406
    119          1           0      -11.049532    1.883924   -1.682280
    120          1           0      -12.435060    1.699962   -0.035100
    121          1           0      -11.694062    0.198803    0.276552
    122          1           0      -13.399633   -1.056595   -0.351791
    123          1           0      -13.658835   -0.360897   -1.911099
    124          1           0      -14.971008    1.648383   -0.426269
    125          1           0      -16.227354   -1.138702   -0.881277
    126          1           0      -15.956742   -0.036014   -2.205277
    127          1           0      -17.030825    0.393069   -0.790478
    128          1           0      -14.653128   -0.661791    1.499216
    129          1           0      -16.332183   -0.330534    1.289192
    130          1           0      -16.019812    1.218003    2.937304
    131          1           0      -15.247528    2.239823    1.739843
    132          1           0      -13.206183    0.401036    2.771363
    133          1           0      -14.147387    0.716360    4.072431
    134          1           0      -13.888624    3.395639    2.986006
    135          1           0      -11.389653    1.846536    3.046023
    136          1           0      -11.261831    3.625556    3.234363
    137          1           0      -11.987375    2.946252    1.734349
    138          1           0      -13.823565    2.288298    5.577367
    139          1           0      -13.977839    3.954165    5.074218
    140          1           0      -12.356739    3.181685    5.264847
 ---------------------------------------------------------------------

 SCF Done:  E(RPBE1PBE) =  -3005.34032059     A.U. after   15 cycles

 Excitation energies and oscillator strengths:

 Excited State   1:      Singlet-A      1.8119 eV  684.28 nm  f=0.3873  <S**2>=0.000
     245 -> 248       -0.14296
     246 -> 247        0.69990
     246 <- 247       -0.12195
 This state for optimization and/or second-order correction.
 Total Energy, E(TD-HF/TD-DFT) =  -3005.27373470
 Copying the excited state density for this state as the 1-particle RhoCI density.

 Excited State   2:      Singlet-A      2.2413 eV  553.18 nm  f=0.1305  <S**2>=0.000
     245 -> 247        0.65873
     246 -> 248        0.23300

 Excited State   3:      Singlet-A      2.9216 eV  424.37 nm  f=0.0000  <S**2>=0.000
     242 -> 247       -0.13197
     243 -> 247        0.66745
     243 -> 250        0.11206

 Excited State   4:      Singlet-A      3.0038 eV  412.75 nm  f=0.0027  <S**2>=0.000
     241 -> 247        0.21467
     242 -> 247        0.64057
     243 -> 247        0.13884

 Excited State   5:      Singlet-A      3.1409 eV  394.74 nm  f=0.0068  <S**2>=0.000
     240 -> 247        0.20607
     241 -> 247        0.60365
     242 -> 247       -0.23016

 The electronic state is 1-A.
 Alpha  occ. eigenvalues --  -46.91186 -19.26306 -19.25517 -19.20341 -19.19716
 Alpha  occ. eigenvalues --  -19.18961 -19.17947 -14.41771 -14.41077 -14.39093
 Alpha  occ. eigenvalues --  -14.38174 -10.37140 -10.36158 -10.31786 -10.30455
 Alpha  occ. eigenvalues --  -10.30040 -10.28965 -10.28841 -10.28727 -10.28161
 Alpha  occ. eigenvalues --  -10.28108 -10.27832 -10.27392 -10.26644 -10.26494
 Alpha  occ. eigenvalues --  -10.26297 -10.26075 -10.25881 -10.25864 -10.25567
 Alpha  occ. eigenvalues --  -10.25353 -10.25328 -10.25305 -10.25189 -10.25099
 Alpha  occ. eigenvalues --  -10.24315 -10.24254 -10.24208 -10.24022 -10.23948
 Alpha  occ. eigenvalues --  -10.23664 -10.23631 -10.23630 -10.23623 -10.23485
 Alpha  occ. eigenvalues --  -10.23329 -10.23322 -10.23322 -10.23318 -10.23307
 Alpha  occ. eigenvalues --  -10.23260 -10.22975 -10.22891 -10.22875 -10.22794
 Alpha  occ. eigenvalues --  -10.22686 -10.22662 -10.22660 -10.22621 -10.22395
 Alpha  occ. eigenvalues --  -10.22082 -10.22082 -10.22045 -10.21999 -10.21660
 Alpha  occ. eigenvalues --  -10.21580  -3.13413  -1.86265  -1.85781  -1.85650
 Alpha  occ. eigenvalues --   -1.11299  -1.10171  -1.06140  -1.05915  -1.02174
 Alpha  occ. eigenvalues --   -1.01922  -0.98966  -0.98569  -0.97257  -0.96757
 Alpha  occ. eigenvalues --   -0.87360  -0.85172  -0.84563  -0.83391  -0.83082
 Alpha  occ. eigenvalues --   -0.82194  -0.82069  -0.81855  -0.81097  -0.80614
 Alpha  occ. eigenvalues --   -0.80402  -0.80048  -0.78598  -0.78076  -0.77396
 Alpha  occ. eigenvalues --   -0.76379  -0.75815  -0.75332  -0.75101  -0.74558
 Alpha  occ. eigenvalues --   -0.74038  -0.72885  -0.72781  -0.71948  -0.70702
 Alpha  occ. eigenvalues --   -0.70446  -0.69689  -0.69304  -0.68499  -0.67662
 Alpha  occ. eigenvalues --   -0.67520  -0.67011  -0.65589  -0.64828  -0.63744
 Alpha  occ. eigenvalues --   -0.63338  -0.62437  -0.62263  -0.60365  -0.60030
 Alpha  occ. eigenvalues --   -0.59968  -0.59722  -0.59339  -0.58996  -0.58148
 Alpha  occ. eigenvalues --   -0.57698  -0.57344  -0.57013  -0.56548  -0.54590
 Alpha  occ. eigenvalues --   -0.54476  -0.54074  -0.53877  -0.52877  -0.52593
 Alpha  occ. eigenvalues --   -0.52044  -0.51653  -0.50834  -0.50327  -0.50236
 Alpha  occ. eigenvalues --   -0.49466  -0.49111  -0.48746  -0.48691  -0.48195
 Alpha  occ. eigenvalues --   -0.48079  -0.47691  -0.47354  -0.47240  -0.46964
 Alpha  occ. eigenvalues --   -0.46878  -0.46671  -0.46609  -0.46307  -0.45953
 Alpha  occ. eigenvalues --   -0.45919  -0.45835  -0.45477  -0.45425  -0.45300
 Alpha  occ. eigenvalues --   -0.45076  -0.44861  -0.44450  -0.44313  -0.44107
 Alpha  occ. eigenvalues --   -0.43962  -0.43870  -0.43677  -0.43426  -0.43187
 Alpha  occ. eigenvalues --   -0.43150  -0.43069  -0.42743  -0.42628  -0.42289
 Alpha  occ. eigenvalues --   -0.41974  -0.41792  -0.41412  -0.41377  -0.41220
 Alpha  occ. eigenvalues --   -0.40924  -0.40672  -0.40530  -0.40483  -0.40408
 Alpha  occ. eigenvalues --   -0.40373  -0.39981  -0.39952  -0.39596  -0.39564
 Alpha  occ. eigenvalues --   -0.39556  -0.39134  -0.39040  -0.38992  -0.38453
 Alpha  occ. eigenvalues --   -0.38381  -0.38292  -0.38067  -0.37923  -0.37659
 Alpha  occ. eigenvalues --   -0.37515  -0.37366  -0.37298  -0.37177  -0.37015
 Alpha  occ. eigenvalues --   -0.36835  -0.36677  -0.36593  -0.36412  -0.36129
 Alpha  occ. eigenvalues --   -0.35904  -0.35754  -0.35632  -0.35228  -0.35156
 Alpha  occ. eigenvalues --   -0.34737  -0.34302  -0.34069  -0.33837  -0.33380
 Alpha  occ. eigenvalues --   -0.33214  -0.33090  -0.32533  -0.32420  -0.32325
 Alpha  occ. eigenvalues --   -0.31947  -0.31835  -0.31758  -0.31547  -0.31246
 Alpha  occ. eigenvalues --   -0.30720  -0.30700  -0.29650  -0.29387  -0.29131
 Alpha  occ. eigenvalues --   -0.28763  -0.28537  -0.28136  -0.27134  -0.26023
 Alpha  occ. eigenvalues --   -0.25723  -0.25200  -0.25085  -0.24406  -0.20913
 Alpha  occ. eigenvalues --   -0.18495
 Alpha virt. eigenvalues --   -0.11175  -0.04690  -0.03470  -0.01954   0.00143
 Alpha virt. eigenvalues --    0.00687   0.00831   0.01484   0.01998   0.03670
 Alpha virt. eigenvalues --    0.04084   0.05029   0.05144   0.05505   0.05596

 Mulliken charges:
               1
     1  Mg   0.990778
     2  C   -0.087979
     3  C   -0.023680
     4  C   -0.059117
     5  C   -0.083067
     6  N   -0.446213
     7  C    0.049431
     8  C   -0.080527
     9  C   -0.142766
    10  C    0.011182
    11  C    0.048498
    12  C    0.002289
    13  C    0.006757
    14  C    0.203477
    15  O   -0.258091
    16  O   -0.373901
    17  N   -0.430597
    18  C    0.170855
    19  C   -0.164560
    20  C   -0.039826
    21  C    0.148412
    22  C    0.071410
    23  C    0.007004
    24  O   -0.219845
    25  C   -0.043545
    26  N   -0.422455
    27  C    0.062110
    28  C   -0.106529
    29  C   -0.103246
    30  C    0.098597
    31  C    0.015673
    32  C   -0.050774
    33  C   -0.057069
    34  N   -0.454987
    35  C    0.128800
    36  C   -0.198764
    37  C   -0.022293
    38  C    0.208187
    39  C    0.073712
    40  C    0.097752
    41  O   -0.185310
    42  C   -0.089514
    43  C    0.318264
    44  O   -0.271789
    45  O   -0.366459
    46  C    0.116420
    47  C    0.239583
    48  C   -0.154757
    49  C   -0.214100
    50  C    0.034720
    51  C    0.001103
    52  C   -0.052051
    53  C    0.004495
    54  C   -0.174429
    55  C   -0.035456
    56  C   -0.005800
    57  C   -0.090202
    58  C   -0.026788
    59  C   -0.186900
    60  C   -0.030136
    61  C   -0.015328
    62  C   -0.051690
    63  C   -0.021922
    64  C   -0.250975
    65  C   -0.011676
    66  C   -0.019746
    67  H   -0.014196
    68  H    0.027984
    69  H    0.001766
    70  H    0.028164
    71  H    0.046559
    72  H    0.053132
    73  H    0.033697
    74  H    0.053364
    75  H    0.043027
    76  H    0.058852
    77  H    0.073520
    78  H    0.063802
    79  H    0.043526
    80  H    0.058363
    81  H    0.043704
    82  H    0.043306
    83  H    0.053740
    84  H    0.058928
    85  H    0.057940
    86  H    0.064080
    87  H    0.034951
    88  H    0.049878
    89  H    0.054107
    90  H    0.035054
    91  H    0.023553
    92  H    0.040322
    93  H    0.048520
    94  H    0.056457
    95  H    0.032972
    96  H    0.068444
    97  H    0.062784
    98  H    0.074370
    99  H    0.067479
   100  H    0.056831
   101  H    0.058354
   102  H    0.071218
   103  H    0.048819
   104  H    0.029840
   105  H    0.047410
   106  H    0.069773
   107  H    0.041353
   108  H    0.029271
   109  H    0.041197
   110  H    0.014083
   111  H    0.032409
   112  H    0.033629
   113  H    0.021280
   114  H    0.034837
   115  H    0.035030
   116  H    0.020886
   117  H    0.029156
   118  H    0.041955
   119  H    0.026885
   120  H    0.037266
   121  H    0.033782
   122  H    0.024937
   123  H    0.034125
   124  H    0.039829
   125  H    0.033754
   126  H    0.032528
   127  H    0.036795
   128  H    0.019983
   129  H    0.029740
   130  H    0.028869
   131  H    0.033940
   132  H    0.023745
   133  H    0.019428
   134  H    0.036984
   135  H    0.038483
   136  H    0.037232
   137  H    0.049769
   138  H    0.031857
   139  H    0.041345
   140  H    0.024599
 Sum of Mulliken charges =  -0.00000

 Dipole moment (field-independent basis, Debye):
    X=             -2.9365    Y=              0.8391    Z=             -0.9649  Tot=              3.2029
 Quadrupole moment (field-independent basis, Debye-Ang):
   XX=           -370.2408   YY=           -417.9512   ZZ=           -391.8228
   XY=             -2.3161   XZ=              7.4064   YZ=            -12.0383

 Normal termination of Gaussian 16 at Thu Apr 28 17:02:25 2022.
