 Gaussian 16, Revision A.03,
 Gaussian 16:  ES64L-G16RevA.03 25-Dec-2016

 --------------------------------
 #p wB97XD/Def2SVP td=(nstates=5)
 --------------------------------

 -----------------------------------------------------
 step_1651_chromophore_22 TDDFT with wB97XD functional
 -----------------------------------------------------
 Symbolic Z-matrix:
 Charge =  0 Multiplicity = 1

                         Standard orientation:
 ---------------------------------------------------------------------
 Center     Atomic      Atomic             Coordinates (Angstroms)
 Number     Number       Type             X           Y           Z
 ---------------------------------------------------------------------
      1         12           0        6.113374    0.417862    0.044347
      2          6           0        3.893245   -2.205930   -0.736249
      3          6           0        4.063032    2.544582   -1.340703
      4          6           0        8.421417    2.925541    0.726913
      5          6           0        8.475844   -1.987899    0.811626
      6          7           0        4.334951    0.143423   -1.061153
      7          6           0        3.481438   -0.993873   -1.238148
      8          6           0        2.171731   -0.544349   -1.915758
      9          6           0        2.478990    0.875056   -2.362469
     10          6           0        3.689965    1.249111   -1.490032
     11          6           0        2.893790    0.970051   -3.849986
     12          6           0        1.049937   -0.518640   -0.940726
     13          6           0       -0.273741   -1.169202   -1.473227
     14          6           0       -1.402897   -0.890321   -0.504506
     15          8           0       -1.583462    0.035403    0.260965
     16          8           0       -2.266508   -1.930150   -0.567221
     17          7           0        6.210093    2.555204   -0.147873
     18          6           0        5.219894    3.229457   -0.764468
     19          6           0        5.568146    4.656849   -0.736808
     20          6           0        6.860983    4.766273   -0.228863
     21          6           0        7.229967    3.385254    0.133281
     22          6           0        4.649017    5.707551   -1.307751
     23          6           0        7.761354    5.875169   -0.280951
     24          8           0        8.909834    5.816253    0.032202
     25          6           0        7.269908    7.260157   -0.514208
     26          7           0        8.056201    0.518329    0.747714
     27          6           0        8.799276    1.621180    0.965661
     28          6           0       10.223946    1.289980    1.582126
     29          6           0       10.288597   -0.323567    1.366095
     30          6           0        8.850304   -0.613250    1.020762
     31          6           0       11.533164    1.950141    0.998032
     32          6           0       10.872231   -1.210389    2.458078
     33          6           0       12.091309   -2.139369    2.148824
     34          7           0        6.249928   -1.658485    0.033136
     35          6           0        7.256767   -2.502930    0.426284
     36          6           0        6.788679   -3.865886    0.381119
     37          6           0        5.433298   -3.776005   -0.011815
     38          6           0        5.176286   -2.414357   -0.198665
     39          6           0        7.544185   -5.131649    0.741520
     40          6           0        4.230197   -4.526858   -0.219889
     41          8           0        4.089546   -5.715505   -0.180043
     42          6           0        3.113872   -3.539256   -0.629162
     43          6           0        2.169771   -3.513009    0.533907
     44          8           0        2.231290   -2.649022    1.424228
     45          8           0        1.171309   -4.479746    0.467458
     46          6           0        0.163270   -4.405118    1.558867
     47          6           0       -3.486191   -1.929494    0.307457
     48          6           0       -4.641570   -1.130443   -0.277723
     49          6           0       -6.001190   -1.343820   -0.332745
     50          6           0       -6.671124   -2.522155    0.280031
     51          6           0       -6.879342   -0.377374   -1.032833
     52          6           0       -8.010324   -0.787819   -1.973526
     53          6           0       -9.088296    0.248563   -2.326981
     54          6           0      -10.537743   -0.229295   -2.138113
     55          6           0      -11.019802   -1.185295   -3.305904
     56          6           0      -11.524464    0.923447   -1.882812
     57          6           0      -12.270024    0.721508   -0.486479
     58          6           0      -13.603949   -0.110393   -0.852338
     59          6           0      -14.983444    0.563801   -0.311887
     60          6           0      -16.110393   -0.083330   -1.127731
     61          6           0      -15.347177    0.130536    1.220851
     62          6           0      -15.174746    1.281090    2.252553
     63          6           0      -13.867528    1.189581    3.131152
     64          6           0      -13.240465    2.646147    3.439540
     65          6           0      -11.842447    2.808196    2.806054
     66          6           0      -13.386438    3.050388    4.931718
     67          1           0        3.267079    3.107681   -1.832926
     68          1           0        9.166059    3.625024    1.113768
     69          1           0        9.159518   -2.785006    1.110004
     70          1           0        1.941946   -1.241570   -2.720968
     71          1           0        1.691472    1.598506   -2.151694
     72          1           0        3.835227    1.511163   -3.950278
     73          1           0        2.140021    1.671611   -4.207072
     74          1           0        2.830916    0.019103   -4.379222
     75          1           0        1.020704    0.463873   -0.469091
     76          1           0        1.381477   -1.046288   -0.046707
     77          1           0       -0.142802   -2.220475   -1.728222
     78          1           0       -0.720727   -0.591767   -2.282091
     79          1           0        3.629698    5.340466   -1.427981
     80          1           0        5.040451    6.100813   -2.245660
     81          1           0        4.517196    6.551241   -0.630441
     82          1           0        8.089055    7.888855   -0.165595
     83          1           0        6.468009    7.503111    0.183116
     84          1           0        7.098960    7.595528   -1.537737
     85          1           0       10.096743    1.594685    2.621193
     86          1           0       10.766647   -0.613305    0.429594
     87          1           0       11.938518    1.284337    0.235785
     88          1           0       12.255084    2.166886    1.785178
     89          1           0       11.287734    2.871384    0.470959
     90          1           0       10.088448   -1.694950    3.038863
     91          1           0       11.240703   -0.588679    3.273382
     92          1           0       12.160243   -2.177924    1.061565
     93          1           0       11.852345   -3.135966    2.521154
     94          1           0       12.980911   -1.723258    2.621103
     95          1           0        8.286841   -4.763401    1.448931
     96          1           0        8.006594   -5.652144   -0.097054
     97          1           0        6.832215   -5.777588    1.256084
     98          1           0        2.564772   -3.763852   -1.543402
     99          1           0        0.565002   -3.998038    2.486160
    100          1           0       -0.223281   -5.376224    1.868117
    101          1           0       -0.700838   -3.811998    1.261539
    102          1           0       -3.308035   -1.498474    1.292903
    103          1           0       -3.773664   -2.975191    0.420005
    104          1           0       -4.241109   -0.371300   -0.949081
    105          1           0       -5.918752   -2.836404    1.003518
    106          1           0       -6.914255   -3.209401   -0.530316
    107          1           0       -7.626337   -2.230006    0.718195
    108          1           0       -6.404933    0.418092   -1.606962
    109          1           0       -7.331966    0.113276   -0.171730
    110          1           0       -8.442248   -1.709763   -1.586415
    111          1           0       -7.510740   -1.020297   -2.913970
    112          1           0       -8.910723    0.667546   -3.317302
    113          1           0       -8.990119    1.062111   -1.608838
    114          1           0      -10.444090   -0.934793   -1.312458
    115          1           0      -11.150160   -2.211613   -2.962768
    116          1           0      -10.358677   -1.283913   -4.167058
    117          1           0      -11.906248   -0.886272   -3.864787
    118          1           0      -12.303837    0.990091   -2.642406
    119          1           0      -11.049532    1.883924   -1.682280
    120          1           0      -12.435060    1.699962   -0.035100
    121          1           0      -11.694062    0.198803    0.276552
    122          1           0      -13.399633   -1.056595   -0.351791
    123          1           0      -13.658835   -0.360897   -1.911099
    124          1           0      -14.971008    1.648383   -0.426269
    125          1           0      -16.227354   -1.138702   -0.881277
    126          1           0      -15.956742   -0.036014   -2.205277
    127          1           0      -17.030825    0.393069   -0.790478
    128          1           0      -14.653128   -0.661791    1.499216
    129          1           0      -16.332183   -0.330534    1.289192
    130          1           0      -16.019812    1.218003    2.937304
    131          1           0      -15.247528    2.239823    1.739843
    132          1           0      -13.206183    0.401036    2.771363
    133          1           0      -14.147387    0.716360    4.072431
    134          1           0      -13.888624    3.395639    2.986006
    135          1           0      -11.389653    1.846536    3.046023
    136          1           0      -11.261831    3.625556    3.234363
    137          1           0      -11.987375    2.946252    1.734349
    138          1           0      -13.823565    2.288298    5.577367
    139          1           0      -13.977839    3.954165    5.074218
    140          1           0      -12.356739    3.181685    5.264847
 ---------------------------------------------------------------------

 SCF Done:  E(RwB97XD) =  -3007.84842149     A.U. after   19 cycles

 Excitation energies and oscillator strengths:

 Excited State   1:      Singlet-A      1.5951 eV  777.27 nm  f=0.4032  <S**2>=0.000
     245 -> 248        0.15829
     246 -> 247        0.68935
     245 <- 248        0.10968
 This state for optimization and/or second-order correction.
 Total Energy, E(TD-HF/TD-DFT) =  -3007.78980162
 Copying the excited state density for this state as the 1-particle RhoCI density.

 Excited State   2:      Singlet-A      2.1816 eV  568.33 nm  f=0.1339  <S**2>=0.000
     245 -> 247        0.64768
     246 -> 248       -0.26480

 Excited State   3:      Singlet-A      3.4170 eV  362.84 nm  f=0.0059  <S**2>=0.000
     240 -> 247       -0.11111
     241 -> 247       -0.11762
     242 -> 247        0.12899
     243 -> 247        0.65156

 Excited State   4:      Singlet-A      3.5255 eV  351.68 nm  f=0.0580  <S**2>=0.000
     240 -> 247       -0.10990
     241 -> 247        0.20801
     241 -> 250       -0.13453
     242 -> 247        0.46377
     242 -> 248        0.15169
     242 -> 249       -0.15180
     242 -> 250       -0.21232
     243 -> 247       -0.10601
     246 -> 248       -0.25013

 Excited State   5:      Singlet-A      3.5838 eV  345.96 nm  f=0.1995  <S**2>=0.000
     240 -> 247        0.35346
     241 -> 247        0.31053
     241 -> 249       -0.11337
     242 -> 247        0.11078
     242 -> 250       -0.10339
     245 -> 247        0.14181
     246 -> 248        0.43193

 The electronic state is 1-A.
 Alpha  occ. eigenvalues --  -46.94122 -19.30859 -19.30044 -19.24998 -19.24356
 Alpha  occ. eigenvalues --  -19.23687 -19.22883 -14.46937 -14.46025 -14.44125
 Alpha  occ. eigenvalues --  -14.43033 -10.43934 -10.42906 -10.38556 -10.37425
 Alpha  occ. eigenvalues --  -10.36540 -10.35329 -10.35056 -10.34910 -10.34624
 Alpha  occ. eigenvalues --  -10.34508 -10.34199 -10.33837 -10.32993 -10.32723
 Alpha  occ. eigenvalues --  -10.32612 -10.32510 -10.32247 -10.32080 -10.31712
 Alpha  occ. eigenvalues --  -10.31679 -10.31526 -10.31485 -10.31482 -10.31415
 Alpha  occ. eigenvalues --  -10.30747 -10.30654 -10.30547 -10.30521 -10.30240
 Alpha  occ. eigenvalues --  -10.30191 -10.30130 -10.29889 -10.29881 -10.29855
 Alpha  occ. eigenvalues --  -10.29800 -10.29723 -10.29693 -10.29683 -10.29672
 Alpha  occ. eigenvalues --  -10.29651 -10.29367 -10.29289 -10.29229 -10.29149
 Alpha  occ. eigenvalues --  -10.29047 -10.29033 -10.29013 -10.28966 -10.28758
 Alpha  occ. eigenvalues --  -10.28683 -10.28519 -10.28478 -10.28240 -10.28078
 Alpha  occ. eigenvalues --  -10.28014  -3.20188  -1.93791  -1.93309  -1.93177
 Alpha  occ. eigenvalues --   -1.18645  -1.17563  -1.13721  -1.13293  -1.09485
 Alpha  occ. eigenvalues --   -1.09277  -1.06339  -1.05891  -1.04650  -1.04132
 Alpha  occ. eigenvalues --   -0.94888  -0.92852  -0.92133  -0.90962  -0.90765
 Alpha  occ. eigenvalues --   -0.89779  -0.89747  -0.89641  -0.88715  -0.88287
 Alpha  occ. eigenvalues --   -0.87933  -0.87673  -0.86241  -0.85699  -0.85018
 Alpha  occ. eigenvalues --   -0.84021  -0.83496  -0.83055  -0.82726  -0.82244
 Alpha  occ. eigenvalues --   -0.81707  -0.80536  -0.80450  -0.79545  -0.78291
 Alpha  occ. eigenvalues --   -0.78125  -0.77387  -0.76897  -0.76185  -0.75332
 Alpha  occ. eigenvalues --   -0.75072  -0.74569  -0.73137  -0.72416  -0.71279
 Alpha  occ. eigenvalues --   -0.70953  -0.70044  -0.69778  -0.67989  -0.67517
 Alpha  occ. eigenvalues --   -0.67450  -0.67378  -0.66765  -0.66417  -0.65826
 Alpha  occ. eigenvalues --   -0.65366  -0.64786  -0.64646  -0.63896  -0.62060
 Alpha  occ. eigenvalues --   -0.61973  -0.61476  -0.61376  -0.60377  -0.59889
 Alpha  occ. eigenvalues --   -0.59499  -0.59022  -0.58316  -0.57721  -0.57625
 Alpha  occ. eigenvalues --   -0.56874  -0.56480  -0.56155  -0.56070  -0.55564
 Alpha  occ. eigenvalues --   -0.55427  -0.55077  -0.54885  -0.54775  -0.54406
 Alpha  occ. eigenvalues --   -0.54171  -0.54057  -0.53930  -0.53676  -0.53335
 Alpha  occ. eigenvalues --   -0.53249  -0.53207  -0.52866  -0.52744  -0.52608
 Alpha  occ. eigenvalues --   -0.52429  -0.52204  -0.51754  -0.51706  -0.51436
 Alpha  occ. eigenvalues --   -0.51288  -0.51204  -0.50963  -0.50766  -0.50489
 Alpha  occ. eigenvalues --   -0.50419  -0.50342  -0.50002  -0.49892  -0.49698
 Alpha  occ. eigenvalues --   -0.49320  -0.49079  -0.48695  -0.48601  -0.48407
 Alpha  occ. eigenvalues --   -0.48194  -0.47923  -0.47764  -0.47728  -0.47569
 Alpha  occ. eigenvalues --   -0.47525  -0.47150  -0.47085  -0.46779  -0.46754
 Alpha  occ. eigenvalues --   -0.46691  -0.46378  -0.46177  -0.46090  -0.45605
 Alpha  occ. eigenvalues --   -0.45528  -0.45370  -0.45232  -0.45117  -0.44826
 Alpha  occ. eigenvalues --   -0.44620  -0.44501  -0.44405  -0.44232  -0.44080
 Alpha  occ. eigenvalues --   -0.43962  -0.43867  -0.43682  -0.43480  -0.43265
 Alpha  occ. eigenvalues --   -0.42862  -0.42769  -0.42724  -0.42259  -0.42165
 Alpha  occ. eigenvalues --   -0.41649  -0.41356  -0.41134  -0.40869  -0.40365
 Alpha  occ. eigenvalues --   -0.40235  -0.40085  -0.39547  -0.39463  -0.39273
 Alpha  occ. eigenvalues --   -0.38995  -0.38883  -0.38787  -0.38527  -0.38205
 Alpha  occ. eigenvalues --   -0.37686  -0.37559  -0.36533  -0.36454  -0.35964
 Alpha  occ. eigenvalues --   -0.35834  -0.35162  -0.34989  -0.33765  -0.32766
 Alpha  occ. eigenvalues --   -0.32599  -0.32361  -0.31691  -0.31119  -0.25945
 Alpha  occ. eigenvalues --   -0.22647
 Alpha virt. eigenvalues --   -0.07094   0.00894   0.02852   0.04487   0.06828
 Alpha virt. eigenvalues --    0.06952   0.07335   0.07959   0.08925   0.09994
 Alpha virt. eigenvalues --    0.10838   0.11797   0.11907   0.12229   0.12346

 Mulliken charges:
               1
     1  Mg   0.979379
     2  C   -0.087771
     3  C   -0.041397
     4  C   -0.076136
     5  C   -0.094483
     6  N   -0.417618
     7  C    0.016403
     8  C   -0.050430
     9  C   -0.112747
    10  C    0.003235
    11  C    0.054484
    12  C    0.010553
    13  C    0.024606
    14  C    0.188793
    15  O   -0.254348
    16  O   -0.372320
    17  N   -0.396561
    18  C    0.161543
    19  C   -0.155102
    20  C   -0.029356
    21  C    0.137762
    22  C    0.081921
    23  C    0.001709
    24  O   -0.213748
    25  C   -0.032663
    26  N   -0.388619
    27  C    0.047849
    28  C   -0.084052
    29  C   -0.073735
    30  C    0.085569
    31  C    0.027934
    32  C   -0.039599
    33  C   -0.039057
    34  N   -0.414629
    35  C    0.120937
    36  C   -0.198965
    37  C   -0.020596
    38  C    0.187896
    39  C    0.086743
    40  C    0.079717
    41  O   -0.176754
    42  C   -0.049657
    43  C    0.295250
    44  O   -0.268033
    45  O   -0.366399
    46  C    0.133707
    47  C    0.257323
    48  C   -0.167600
    49  C   -0.197608
    50  C    0.047415
    51  C    0.019201
    52  C   -0.032655
    53  C    0.018562
    54  C   -0.145778
    55  C   -0.027576
    56  C    0.016123
    57  C   -0.067184
    58  C   -0.011671
    59  C   -0.160299
    60  C   -0.013650
    61  C   -0.002248
    62  C   -0.032434
    63  C   -0.009726
    64  C   -0.221695
    65  C    0.005581
    66  C   -0.007603
    67  H   -0.023265
    68  H    0.023847
    69  H   -0.008728
    70  H    0.016961
    71  H    0.036397
    72  H    0.046442
    73  H    0.028066
    74  H    0.048977
    75  H    0.036401
    76  H    0.044072
    77  H    0.069379
    78  H    0.056271
    79  H    0.040062
    80  H    0.054069
    81  H    0.038551
    82  H    0.041628
    83  H    0.048541
    84  H    0.056398
    85  H    0.048424
    86  H    0.048536
    87  H    0.028811
    88  H    0.045155
    89  H    0.047684
    90  H    0.026594
    91  H    0.014679
    92  H    0.032979
    93  H    0.042834
    94  H    0.051327
    95  H    0.025412
    96  H    0.064354
    97  H    0.058448
    98  H    0.070593
    99  H    0.063132
   100  H    0.053148
   101  H    0.053188
   102  H    0.066800
   103  H    0.044132
   104  H    0.024869
   105  H    0.040886
   106  H    0.064578
   107  H    0.036302
   108  H    0.023111
   109  H    0.030247
   110  H    0.001564
   111  H    0.024331
   112  H    0.027226
   113  H    0.009394
   114  H    0.019242
   115  H    0.030106
   116  H    0.015255
   117  H    0.023229
   118  H    0.031625
   119  H    0.019720
   120  H    0.018564
   121  H    0.024645
   122  H    0.015697
   123  H    0.021120
   124  H    0.029888
   125  H    0.025681
   126  H    0.027089
   127  H    0.029581
   128  H    0.008468
   129  H    0.022491
   130  H    0.021811
   131  H    0.022550
   132  H    0.012870
   133  H    0.010821
   134  H    0.024662
   135  H    0.030519
   136  H    0.032596
   137  H    0.041487
   138  H    0.025567
   139  H    0.036688
   140  H    0.017535
 Sum of Mulliken charges =  -0.00000

 Dipole moment (field-independent basis, Debye):
    X=             -2.9677    Y=              1.1965    Z=             -1.0146  Tot=              3.3568
 Quadrupole moment (field-independent basis, Debye-Ang):
   XX=           -370.8282   YY=           -415.6374   ZZ=           -391.4250
   XY=              0.4304   XZ=              6.9398   YZ=            -12.2726

 Normal termination of Gaussian 16 at Thu Apr 28 17:26:57 2022.
