 Gaussian 16, Revision A.03,
 Gaussian 16:  ES64L-G16RevA.03 25-Dec-2016

 --------------------
 #p ZINDO=(nstates=5)
 --------------------

 ------------------------------
 step_1651_chromophore_22 ZINDO
 ------------------------------
 Symbolic Z-matrix:
 Charge =  0 Multiplicity = 1

                         Standard orientation:
 ---------------------------------------------------------------------
 Center     Atomic      Atomic             Coordinates (Angstroms)
 Number     Number       Type             X           Y           Z
 ---------------------------------------------------------------------
      1         12           0        6.113374    0.417862    0.044347
      2          6           0        3.893245   -2.205930   -0.736249
      3          6           0        4.063032    2.544582   -1.340703
      4          6           0        8.421417    2.925541    0.726913
      5          6           0        8.475844   -1.987899    0.811626
      6          7           0        4.334951    0.143423   -1.061153
      7          6           0        3.481438   -0.993873   -1.238148
      8          6           0        2.171731   -0.544349   -1.915758
      9          6           0        2.478990    0.875056   -2.362469
     10          6           0        3.689965    1.249111   -1.490032
     11          6           0        2.893790    0.970051   -3.849986
     12          6           0        1.049937   -0.518640   -0.940726
     13          6           0       -0.273741   -1.169202   -1.473227
     14          6           0       -1.402897   -0.890321   -0.504506
     15          8           0       -1.583462    0.035403    0.260965
     16          8           0       -2.266508   -1.930150   -0.567221
     17          7           0        6.210093    2.555204   -0.147873
     18          6           0        5.219894    3.229457   -0.764468
     19          6           0        5.568146    4.656849   -0.736808
     20          6           0        6.860983    4.766273   -0.228863
     21          6           0        7.229967    3.385254    0.133281
     22          6           0        4.649017    5.707551   -1.307751
     23          6           0        7.761354    5.875169   -0.280951
     24          8           0        8.909834    5.816253    0.032202
     25          6           0        7.269908    7.260157   -0.514208
     26          7           0        8.056201    0.518329    0.747714
     27          6           0        8.799276    1.621180    0.965661
     28          6           0       10.223946    1.289980    1.582126
     29          6           0       10.288597   -0.323567    1.366095
     30          6           0        8.850304   -0.613250    1.020762
     31          6           0       11.533164    1.950141    0.998032
     32          6           0       10.872231   -1.210389    2.458078
     33          6           0       12.091309   -2.139369    2.148824
     34          7           0        6.249928   -1.658485    0.033136
     35          6           0        7.256767   -2.502930    0.426284
     36          6           0        6.788679   -3.865886    0.381119
     37          6           0        5.433298   -3.776005   -0.011815
     38          6           0        5.176286   -2.414357   -0.198665
     39          6           0        7.544185   -5.131649    0.741520
     40          6           0        4.230197   -4.526858   -0.219889
     41          8           0        4.089546   -5.715505   -0.180043
     42          6           0        3.113872   -3.539256   -0.629162
     43          6           0        2.169771   -3.513009    0.533907
     44          8           0        2.231290   -2.649022    1.424228
     45          8           0        1.171309   -4.479746    0.467458
     46          6           0        0.163270   -4.405118    1.558867
     47          6           0       -3.486191   -1.929494    0.307457
     48          6           0       -4.641570   -1.130443   -0.277723
     49          6           0       -6.001190   -1.343820   -0.332745
     50          6           0       -6.671124   -2.522155    0.280031
     51          6           0       -6.879342   -0.377374   -1.032833
     52          6           0       -8.010324   -0.787819   -1.973526
     53          6           0       -9.088296    0.248563   -2.326981
     54          6           0      -10.537743   -0.229295   -2.138113
     55          6           0      -11.019802   -1.185295   -3.305904
     56          6           0      -11.524464    0.923447   -1.882812
     57          6           0      -12.270024    0.721508   -0.486479
     58          6           0      -13.603949   -0.110393   -0.852338
     59          6           0      -14.983444    0.563801   -0.311887
     60          6           0      -16.110393   -0.083330   -1.127731
     61          6           0      -15.347177    0.130536    1.220851
     62          6           0      -15.174746    1.281090    2.252553
     63          6           0      -13.867528    1.189581    3.131152
     64          6           0      -13.240465    2.646147    3.439540
     65          6           0      -11.842447    2.808196    2.806054
     66          6           0      -13.386438    3.050388    4.931718
     67          1           0        3.267079    3.107681   -1.832926
     68          1           0        9.166059    3.625024    1.113768
     69          1           0        9.159518   -2.785006    1.110004
     70          1           0        1.941946   -1.241570   -2.720968
     71          1           0        1.691472    1.598506   -2.151694
     72          1           0        3.835227    1.511163   -3.950278
     73          1           0        2.140021    1.671611   -4.207072
     74          1           0        2.830916    0.019103   -4.379222
     75          1           0        1.020704    0.463873   -0.469091
     76          1           0        1.381477   -1.046288   -0.046707
     77          1           0       -0.142802   -2.220475   -1.728222
     78          1           0       -0.720727   -0.591767   -2.282091
     79          1           0        3.629698    5.340466   -1.427981
     80          1           0        5.040451    6.100813   -2.245660
     81          1           0        4.517196    6.551241   -0.630441
     82          1           0        8.089055    7.888855   -0.165595
     83          1           0        6.468009    7.503111    0.183116
     84          1           0        7.098960    7.595528   -1.537737
     85          1           0       10.096743    1.594685    2.621193
     86          1           0       10.766647   -0.613305    0.429594
     87          1           0       11.938518    1.284337    0.235785
     88          1           0       12.255084    2.166886    1.785178
     89          1           0       11.287734    2.871384    0.470959
     90          1           0       10.088448   -1.694950    3.038863
     91          1           0       11.240703   -0.588679    3.273382
     92          1           0       12.160243   -2.177924    1.061565
     93          1           0       11.852345   -3.135966    2.521154
     94          1           0       12.980911   -1.723258    2.621103
     95          1           0        8.286841   -4.763401    1.448931
     96          1           0        8.006594   -5.652144   -0.097054
     97          1           0        6.832215   -5.777588    1.256084
     98          1           0        2.564772   -3.763852   -1.543402
     99          1           0        0.565002   -3.998038    2.486160
    100          1           0       -0.223281   -5.376224    1.868117
    101          1           0       -0.700838   -3.811998    1.261539
    102          1           0       -3.308035   -1.498474    1.292903
    103          1           0       -3.773664   -2.975191    0.420005
    104          1           0       -4.241109   -0.371300   -0.949081
    105          1           0       -5.918752   -2.836404    1.003518
    106          1           0       -6.914255   -3.209401   -0.530316
    107          1           0       -7.626337   -2.230006    0.718195
    108          1           0       -6.404933    0.418092   -1.606962
    109          1           0       -7.331966    0.113276   -0.171730
    110          1           0       -8.442248   -1.709763   -1.586415
    111          1           0       -7.510740   -1.020297   -2.913970
    112          1           0       -8.910723    0.667546   -3.317302
    113          1           0       -8.990119    1.062111   -1.608838
    114          1           0      -10.444090   -0.934793   -1.312458
    115          1           0      -11.150160   -2.211613   -2.962768
    116          1           0      -10.358677   -1.283913   -4.167058
    117          1           0      -11.906248   -0.886272   -3.864787
    118          1           0      -12.303837    0.990091   -2.642406
    119          1           0      -11.049532    1.883924   -1.682280
    120          1           0      -12.435060    1.699962   -0.035100
    121          1           0      -11.694062    0.198803    0.276552
    122          1           0      -13.399633   -1.056595   -0.351791
    123          1           0      -13.658835   -0.360897   -1.911099
    124          1           0      -14.971008    1.648383   -0.426269
    125          1           0      -16.227354   -1.138702   -0.881277
    126          1           0      -15.956742   -0.036014   -2.205277
    127          1           0      -17.030825    0.393069   -0.790478
    128          1           0      -14.653128   -0.661791    1.499216
    129          1           0      -16.332183   -0.330534    1.289192
    130          1           0      -16.019812    1.218003    2.937304
    131          1           0      -15.247528    2.239823    1.739843
    132          1           0      -13.206183    0.401036    2.771363
    133          1           0      -14.147387    0.716360    4.072431
    134          1           0      -13.888624    3.395639    2.986006
    135          1           0      -11.389653    1.846536    3.046023
    136          1           0      -11.261831    3.625556    3.234363
    137          1           0      -11.987375    2.946252    1.734349
    138          1           0      -13.823565    2.288298    5.577367
    139          1           0      -13.977839    3.954165    5.074218
    140          1           0      -12.356739    3.181685    5.264847
 ---------------------------------------------------------------------

 SCF Done:  E(RZINDO/S) =  -474.345857539     A.U. after   20 cycles

 Excitation energies and oscillator strengths:

 Excited State   1:      Singlet-A      1.2032 eV 1030.47 nm  f=0.6421  <S**2>=0.000
     175 ->178        -0.16770
     176 ->177         0.66837
 This state for optimization and/or second-order correction.
 Total Energy, E(CIS/TDA) =  -474.301641580
 Copying the excited state density for this state as the 1-particle RhoCI density.

 Excited State   2:      Singlet-A      1.9654 eV  630.83 nm  f=0.0658  <S**2>=0.000
     175 ->177         0.56387
     176 ->178         0.39698

 Excited State   3:      Singlet-A      2.8094 eV  441.32 nm  f=0.0046  <S**2>=0.000
     168 ->177         0.22838
     168 ->178        -0.13969
     168 ->179        -0.15724
     168 ->180        -0.26971
     168 ->186        -0.11153
     168 ->187         0.11525
     169 ->177         0.25295
     169 ->178        -0.14642
     169 ->179        -0.16481
     169 ->180        -0.28571
     169 ->186        -0.11547
     169 ->187         0.11960

 Excited State   4:      Singlet-A      2.9808 eV  415.94 nm  f=0.0226  <S**2>=0.000
     170 ->179         0.11469
     176 ->179         0.63939

 Excited State   5:      Singlet-A      3.0193 eV  410.64 nm  f=0.1417  <S**2>=0.000
     168 ->177         0.15608
     168 ->179         0.23577
     168 ->180        -0.10086
     168 ->186         0.10501
     169 ->177        -0.15164
     169 ->179        -0.25448
     169 ->186        -0.11719
     170 ->177         0.14603
     170 ->179         0.21866
     175 ->177         0.13492
     176 ->178        -0.22315
     176 ->179        -0.19653

 The electronic state is 1-A.
 Alpha  occ. eigenvalues --   -1.85832  -1.82195  -1.80005  -1.72928  -1.71910
 Alpha  occ. eigenvalues --   -1.70065  -1.63642  -1.63105  -1.59618  -1.58737
 Alpha  occ. eigenvalues --   -1.53746  -1.50635  -1.49938  -1.48639  -1.47376
 Alpha  occ. eigenvalues --   -1.43401  -1.41364  -1.39192  -1.38703  -1.38566
 Alpha  occ. eigenvalues --   -1.36051  -1.33041  -1.32621  -1.31730  -1.28364
 Alpha  occ. eigenvalues --   -1.27586  -1.24999  -1.22265  -1.20775  -1.18251
 Alpha  occ. eigenvalues --   -1.16975  -1.15764  -1.15499  -1.15084  -1.12835
 Alpha  occ. eigenvalues --   -1.12647  -1.11233  -1.08854  -1.05350  -1.03983
 Alpha  occ. eigenvalues --   -1.02984  -1.01395  -0.99056  -0.97667  -0.96085
 Alpha  occ. eigenvalues --   -0.94944  -0.94463  -0.93883  -0.92865  -0.91967
 Alpha  occ. eigenvalues --   -0.91343  -0.90040  -0.89548  -0.88868  -0.87048
 Alpha  occ. eigenvalues --   -0.86969  -0.84107  -0.83086  -0.81275  -0.80037
 Alpha  occ. eigenvalues --   -0.78967  -0.78275  -0.77038  -0.76188  -0.75622
 Alpha  occ. eigenvalues --   -0.74861  -0.74693  -0.74500  -0.73763  -0.73207
 Alpha  occ. eigenvalues --   -0.72771  -0.71682  -0.71312  -0.70877  -0.70672
 Alpha  occ. eigenvalues --   -0.70150  -0.69172  -0.68467  -0.67632  -0.67200
 Alpha  occ. eigenvalues --   -0.67065  -0.66735  -0.66703  -0.66528  -0.65617
 Alpha  occ. eigenvalues --   -0.64984  -0.64569  -0.63726  -0.63438  -0.63269
 Alpha  occ. eigenvalues --   -0.63102  -0.62581  -0.62463  -0.62231  -0.62054
 Alpha  occ. eigenvalues --   -0.61791  -0.61369  -0.60949  -0.59812  -0.59663
 Alpha  occ. eigenvalues --   -0.59410  -0.59079  -0.58636  -0.58438  -0.58231
 Alpha  occ. eigenvalues --   -0.57913  -0.57440  -0.57142  -0.56856  -0.56492
 Alpha  occ. eigenvalues --   -0.56343  -0.55583  -0.55097  -0.54495  -0.54133
 Alpha  occ. eigenvalues --   -0.53553  -0.53506  -0.53247  -0.53024  -0.52704
 Alpha  occ. eigenvalues --   -0.52574  -0.52372  -0.52019  -0.51474  -0.51132
 Alpha  occ. eigenvalues --   -0.50821  -0.50585  -0.50545  -0.50455  -0.50182
 Alpha  occ. eigenvalues --   -0.49975  -0.49755  -0.49711  -0.49243  -0.48648
 Alpha  occ. eigenvalues --   -0.48610  -0.48472  -0.48092  -0.47993  -0.47753
 Alpha  occ. eigenvalues --   -0.47141  -0.46986  -0.46714  -0.46308  -0.46191
 Alpha  occ. eigenvalues --   -0.46084  -0.45981  -0.45700  -0.45355  -0.45259
 Alpha  occ. eigenvalues --   -0.44983  -0.44833  -0.44613  -0.44574  -0.43864
 Alpha  occ. eigenvalues --   -0.43731  -0.43308  -0.42819  -0.41872  -0.41556
 Alpha  occ. eigenvalues --   -0.41465  -0.41055  -0.40484  -0.38788  -0.38230
 Alpha  occ. eigenvalues --   -0.38028  -0.36766  -0.34780  -0.34495  -0.34302
 Alpha  occ. eigenvalues --   -0.33515  -0.32286  -0.32111  -0.31043  -0.26580
 Alpha  occ. eigenvalues --   -0.21335
 Alpha virt. eigenvalues --   -0.08441  -0.01194  -0.00452   0.01121   0.02836
 Alpha virt. eigenvalues --    0.02880   0.03074   0.03363   0.04657   0.05775
 Alpha virt. eigenvalues --    0.06851   0.07629   0.07677   0.08135   0.08611

 Mulliken charges:
               1
     1  Mg   0.429881
     2  C   -0.038085
     3  C   -0.102310
     4  C   -0.055191
     5  C   -0.057009
     6  N   -0.312737
     7  C    0.102076
     8  C    0.015538
     9  C    0.005421
    10  C    0.162061
    11  C   -0.055930
    12  C   -0.032830
    13  C    0.007393
    14  C    0.474863
    15  O   -0.526806
    16  O   -0.283163
    17  N   -0.305660
    18  C    0.121846
    19  C    0.019735
    20  C   -0.036069
    21  C    0.136534
    22  C   -0.042948
    23  C    0.339640
    24  O   -0.519867
    25  C   -0.039253
    26  N   -0.255579
    27  C    0.139355
    28  C   -0.005896
    29  C    0.003087
    30  C    0.095884
    31  C   -0.053048
    32  C   -0.036587
    33  C   -0.056530
    34  N   -0.319780
    35  C    0.085225
    36  C    0.021076
    37  C   -0.067372
    38  C    0.130479
    39  C   -0.041892
    40  C    0.344626
    41  O   -0.522458
    42  C    0.056792
    43  C    0.487768
    44  O   -0.528776
    45  O   -0.261997
    46  C    0.073628
    47  C    0.108620
    48  C   -0.104886
    49  C    0.004511
    50  C   -0.044997
    51  C   -0.017806
    52  C   -0.031788
    53  C   -0.028636
    54  C   -0.003480
    55  C   -0.068537
    56  C   -0.035753
    57  C   -0.055022
    58  C   -0.047614
    59  C   -0.019640
    60  C   -0.056305
    61  C   -0.041830
    62  C   -0.038553
    63  C   -0.043310
    64  C   -0.016084
    65  C   -0.055644
    66  C   -0.058683
    67  H    0.014188
    68  H    0.043224
    69  H    0.026303
    70  H    0.022712
    71  H    0.031162
    72  H    0.030404
    73  H    0.012789
    74  H    0.031294
    75  H    0.041462
    76  H    0.034323
    77  H    0.051937
    78  H    0.048685
    79  H    0.023781
    80  H    0.033682
    81  H    0.025308
    82  H    0.025627
    83  H    0.032166
    84  H    0.041162
    85  H    0.038974
    86  H    0.038932
    87  H    0.021410
    88  H    0.027301
    89  H    0.026171
    90  H    0.024385
    91  H    0.004714
    92  H    0.021729
    93  H    0.023244
    94  H    0.028592
    95  H    0.021246
    96  H    0.040130
    97  H    0.036205
    98  H    0.056540
    99  H    0.049991
   100  H    0.033675
   101  H    0.038508
   102  H    0.058315
   103  H    0.032514
   104  H    0.026359
   105  H    0.031955
   106  H    0.037197
   107  H    0.025663
   108  H    0.018479
   109  H    0.020616
   110  H    0.018834
   111  H    0.011460
   112  H    0.023280
   113  H    0.010969
   114  H    0.023612
   115  H    0.016450
   116  H    0.012139
   117  H    0.018179
   118  H    0.031338
   119  H    0.018117
   120  H    0.018564
   121  H    0.022271
   122  H    0.015649
   123  H    0.029525
   124  H    0.035379
   125  H    0.016713
   126  H    0.015298
   127  H    0.013143
   128  H    0.017043
   129  H    0.024748
   130  H    0.014364
   131  H    0.023274
   132  H    0.026803
   133  H    0.011727
   134  H    0.013234
   135  H    0.021782
   136  H    0.023059
   137  H    0.023384
   138  H    0.019366
   139  H    0.022085
   140  H    0.015459
 Sum of Mulliken charges =  -0.00000

 Dipole moment (field-independent basis, Debye):
    X=             -3.6298    Y=              2.3345    Z=             -3.5281  Tot=              5.5743
 N-N= 4.207530389367D+03 E-N= 0.000000000000D+00  KE=-9.090118429080D+03
 Leave Link  601 at Thu Apr 28 17:39:27 2022, MaxMem=  6710886400 cpu:               0.8 elap:               0.0
 (Enter /sw/apps/gaussian-16.0/g16/l9999.exe)
 1\1\GINC-BP1-COMPUTE148\SP\RZINDO CIS\STO-3G\C55H74Mg1N4O6\OF15641\28-
 Apr-2022\0\\#p ZINDO=(nstates=5)\\step_1651_chromophore_22 ZINDO\\0,1\
 Mg,0,8.901,47.551,24.365\C,0,6.671,48.068,27.045\C,0,11.33,48.769,26.1
 71\C,0,11.002,47.138,21.627\C,0,6.145,46.973,22.358\N,0,8.917,48.475,2
 6.264\C,0,7.933,48.549,27.303\C,0,8.588,49.105,28.583\C,0,9.938,49.604
 ,28.096\C,0,10.112,48.859,26.761\C,0,9.962,51.126,27.819\C,0,8.797,48.
 027,29.585\C,0,8.369,48.418,31.042\C,0,8.829,47.35,32.011\O,0,9.773,46

 Normal termination of Gaussian 16 at Thu Apr 28 17:39:27 2022.
