 Gaussian 16, Revision A.03,
 Gaussian 16:  ES64L-G16RevA.03 25-Dec-2016

 ------------------------------
 #p blyp/Def2SVP td=(nstates=5)
 ------------------------------

 -------------------------------------------------
 step_101_chromophore_8 TDDFT with blyp functional
 -------------------------------------------------
 Symbolic Z-matrix:
 Charge =  0 Multiplicity = 1

                         Standard orientation:
 ---------------------------------------------------------------------
 Center     Atomic      Atomic             Coordinates (Angstroms)
 Number     Number       Type             X           Y           Z
 ---------------------------------------------------------------------
      1         12           0       -4.776264   -1.000886    0.072315
      2          6           0       -3.849811    2.350353    0.936975
      3          6           0       -3.903327   -0.347670   -3.094494
      4          6           0       -5.488922   -4.152182   -0.491122
      5          6           0       -4.773926   -1.647841    3.590555
      6          7           0       -3.938678    0.849162   -0.990185
      7          6           0       -3.608706    2.052511   -0.447916
      8          6           0       -3.096900    3.041659   -1.494022
      9          6           0       -3.333583    2.257806   -2.822546
     10          6           0       -3.577185    0.771532   -2.291437
     11          6           0       -4.600596    2.836665   -3.626568
     12          6           0       -1.510392    3.298561   -1.208388
     13          6           0       -1.091409    4.702663   -1.407975
     14          6           0        0.303637    4.966809   -2.077160
     15          8           0        0.508882    5.277210   -3.257747
     16          8           0        1.287769    4.825401   -1.099647
     17          7           0       -4.746776   -2.172983   -1.606427
     18          6           0       -4.373641   -1.717939   -2.837024
     19          6           0       -4.424574   -2.797097   -3.836391
     20          6           0       -4.991783   -3.929929   -3.069238
     21          6           0       -5.181701   -3.474784   -1.696534
     22          6           0       -3.901366   -2.718428   -5.225095
     23          6           0       -5.418095   -5.257322   -3.693956
     24          8           0       -5.184793   -5.528243   -4.797407
     25          6           0       -6.148976   -6.276584   -2.892765
     26          7           0       -4.761687   -2.670428    1.305596
     27          6           0       -5.440568   -3.753468    0.826591
     28          6           0       -5.776453   -4.735852    1.943914
     29          6           0       -5.003821   -4.216525    3.193044
     30          6           0       -4.733271   -2.747256    2.711701
     31          6           0       -7.345729   -4.874682    2.149853
     32          6           0       -3.685168   -4.990045    3.460999
     33          6           0       -3.742626   -6.461675    4.011535
     34          7           0       -4.567234    0.092684    1.903713
     35          6           0       -4.700702   -0.275471    3.230377
     36          6           0       -4.531290    0.807749    4.117141
     37          6           0       -4.236588    1.900279    3.253543
     38          6           0       -4.291656    1.390032    1.923579
     39          6           0       -4.563034    0.785769    5.602375
     40          6           0       -3.979914    3.334843    3.144741
     41          8           0       -3.993424    4.192542    3.998722
     42          6           0       -3.725261    3.731663    1.600411
     43          6           0       -4.855079    4.598726    1.114592
     44          8           0       -5.813266    4.195495    0.514153
     45          8           0       -4.589199    5.952908    1.206471
     46          6           0       -5.588355    6.772840    0.470348
     47          6           0        2.650071    4.979180   -1.635093
     48          6           0        3.445165    3.797113   -1.091248
     49          6           0        4.069248    3.614338    0.070514
     50          6           0        4.054341    4.530852    1.260265
     51          6           0        4.737933    2.255334    0.400593
     52          6           0        5.654064    1.531690   -0.642647
     53          6           0        5.044322    0.330534   -1.521561
     54          6           0        5.959190   -0.906366   -1.815967
     55          6           0        5.210774   -2.010459   -2.517819
     56          6           0        6.807140   -1.428232   -0.543505
     57          6           0        8.372116   -1.342086   -0.905936
     58          6           0        9.278088   -0.501952    0.086068
     59          6           0       10.576688   -1.359082    0.317785
     60          6           0       10.522375   -2.115970    1.651013
     61          6           0       11.780649   -0.424277    0.451840
     62          6           0       12.971700   -0.826154   -0.294913
     63          6           0       14.307953   -0.780655    0.529105
     64          6           0       14.686311   -2.156377    1.124699
     65          6           0       15.696465   -2.922872    0.256068
     66          6           0       15.176730   -2.025803    2.565980
     67          1           0       -3.764209   -0.153031   -4.159951
     68          1           0       -5.862184   -5.174811   -0.581400
     69          1           0       -4.920612   -1.891651    4.644836
     70          1           0       -3.668305    3.969087   -1.460925
     71          1           0       -2.440974    2.305664   -3.445396
     72          1           0       -4.267905    3.104902   -4.629030
     73          1           0       -4.937598    3.733521   -3.106966
     74          1           0       -5.416931    2.114469   -3.592767
     75          1           0       -0.868588    2.638844   -1.791277
     76          1           0       -1.385481    3.065214   -0.150715
     77          1           0       -1.047729    5.128641   -0.405869
     78          1           0       -1.806878    5.291604   -1.981513
     79          1           0       -3.471677   -3.675267   -5.523336
     80          1           0       -3.042374   -2.049819   -5.161898
     81          1           0       -4.620295   -2.398303   -5.978112
     82          1           0       -5.323350   -6.705538   -2.324814
     83          1           0       -6.553661   -7.145814   -3.410298
     84          1           0       -6.908479   -5.714526   -2.348274
     85          1           0       -5.352085   -5.675861    1.589723
     86          1           0       -5.639773   -4.173946    4.076864
     87          1           0       -7.681423   -4.993248    3.179804
     88          1           0       -7.788890   -5.650593    1.523926
     89          1           0       -7.651603   -3.908038    1.751673
     90          1           0       -3.139208   -4.241797    4.034869
     91          1           0       -3.185818   -5.086810    2.496678
     92          1           0       -3.640635   -6.575386    5.091112
     93          1           0       -3.028347   -7.072067    3.460148
     94          1           0       -4.788282   -6.728096    3.850507
     95          1           0       -5.299666    1.477513    6.011048
     96          1           0       -3.617064    1.206878    5.941132
     97          1           0       -4.722834   -0.187399    6.068316
     98          1           0       -2.837333    4.344578    1.446855
     99          1           0       -6.422338    7.177567    1.044534
    100          1           0       -6.116217    6.336641   -0.377754
    101          1           0       -5.146663    7.687662    0.074682
    102          1           0        3.107142    5.909582   -1.296187
    103          1           0        2.770694    4.965024   -2.718918
    104          1           0        3.436949    2.984542   -1.818578
    105          1           0        3.745018    4.099792    2.212561
    106          1           0        3.251413    5.225683    1.012885
    107          1           0        4.975032    5.113100    1.287630
    108          1           0        3.843595    1.679609    0.636275
    109          1           0        5.227995    2.438844    1.357601
    110          1           0        6.503259    1.152790   -0.075018
    111          1           0        5.954369    2.252368   -1.402444
    112          1           0        4.646810    0.839117   -2.400146
    113          1           0        4.218501   -0.129868   -0.980153
    114          1           0        6.688928   -0.652329   -2.584074
    115          1           0        5.535373   -3.011135   -2.231871
    116          1           0        5.473134   -1.925644   -3.571877
    117          1           0        4.139230   -1.815300   -2.564900
    118          1           0        6.530518   -2.449252   -0.278254
    119          1           0        6.583236   -0.975064    0.421936
    120          1           0        8.596441   -1.056168   -1.933738
    121          1           0        8.772355   -2.331488   -0.688242
    122          1           0        8.778522   -0.406564    1.050156
    123          1           0        9.544396    0.498915   -0.256400
    124          1           0       10.811450   -2.101610   -0.444364
    125          1           0        9.897752   -2.987144    1.456512
    126          1           0       10.192590   -1.371053    2.375734
    127          1           0       11.431863   -2.528849    2.088942
    128          1           0       12.178544   -0.349569    1.464098
    129          1           0       11.487420    0.608356    0.265318
    130          1           0       13.056959   -0.209867   -1.190305
    131          1           0       12.722568   -1.828124   -0.644079
    132          1           0       14.199167   -0.007574    1.289661
    133          1           0       15.017351   -0.464552   -0.235234
    134          1           0       13.788043   -2.773819    1.100092
    135          1           0       15.330454   -3.940199    0.123408
    136          1           0       16.701099   -2.983769    0.674172
    137          1           0       15.887710   -2.588919   -0.763288
    138          1           0       14.723155   -2.758293    3.233333
    139          1           0       15.076157   -1.048142    3.036125
    140          1           0       16.244941   -2.241947    2.572892
 ---------------------------------------------------------------------

 SCF Done:  E(RB-LYP) =  -3007.33704892     A.U. after   20 cycles

 Excitation energies and oscillator strengths:

 Excited State   1:      Singlet-A      1.6491 eV  751.84 nm  f=0.0022  <S**2>=0.000
     244 -> 247        0.70141
 This state for optimization and/or second-order correction.
 Total Energy, E(TD-HF/TD-DFT) =  -3007.27644625
 Copying the excited state density for this state as the 1-particle RhoCI density.

 Excited State   2:      Singlet-A      1.7939 eV  691.13 nm  f=0.2581  <S**2>=0.000
     243 -> 247       -0.16057
     245 -> 248        0.19581
     246 -> 247        0.66749
     246 <- 247       -0.14004

 Excited State   3:      Singlet-A      1.8991 eV  652.84 nm  f=0.0420  <S**2>=0.000
     243 -> 247        0.58031
     245 -> 247       -0.35350
     246 -> 247        0.15166
     246 -> 248        0.10176

 Excited State   4:      Singlet-A      2.0014 eV  619.49 nm  f=0.0753  <S**2>=0.000
     243 -> 247        0.36708
     245 -> 247        0.55277
     246 -> 248       -0.22341

 Excited State   5:      Singlet-A      2.2619 eV  548.15 nm  f=0.0009  <S**2>=0.000
     241 -> 247        0.64243
     242 -> 247        0.29333

 The electronic state is 1-A.
 Alpha  occ. eigenvalues --  -46.27724 -18.82578 -18.82504 -18.77477 -18.76825
 Alpha  occ. eigenvalues --  -18.75968 -18.74992 -14.03672 -14.03049 -14.01245
 Alpha  occ. eigenvalues --  -14.01136 -10.04557 -10.03969 -10.00275  -9.99058
 Alpha  occ. eigenvalues --   -9.97484  -9.97406  -9.97052  -9.96910  -9.96828
 Alpha  occ. eigenvalues --   -9.96404  -9.96367  -9.96255  -9.95541  -9.95081
 Alpha  occ. eigenvalues --   -9.94882  -9.94812  -9.94655  -9.94591  -9.94362
 Alpha  occ. eigenvalues --   -9.94041  -9.93956  -9.93880  -9.93654  -9.93637
 Alpha  occ. eigenvalues --   -9.93495  -9.93301  -9.92949  -9.92848  -9.92839
 Alpha  occ. eigenvalues --   -9.92808  -9.92730  -9.92729  -9.92723  -9.92552
 Alpha  occ. eigenvalues --   -9.92097  -9.92082  -9.92042  -9.91979  -9.91970
 Alpha  occ. eigenvalues --   -9.91827  -9.91719  -9.91714  -9.91671  -9.91663
 Alpha  occ. eigenvalues --   -9.91505  -9.91474  -9.91376  -9.91059  -9.90831
 Alpha  occ. eigenvalues --   -9.90734  -9.90629  -9.90550  -9.90500  -9.90099
 Alpha  occ. eigenvalues --   -9.89355  -2.92305  -1.72716  -1.72193  -1.72021
 Alpha  occ. eigenvalues --   -0.98247  -0.97096  -0.94688  -0.92172  -0.90084
 Alpha  occ. eigenvalues --   -0.89617  -0.86951  -0.86054  -0.85581  -0.84635
 Alpha  occ. eigenvalues --   -0.74902  -0.73464  -0.73143  -0.72631  -0.72061
 Alpha  occ. eigenvalues --   -0.71617  -0.71487  -0.70804  -0.70792  -0.70049
 Alpha  occ. eigenvalues --   -0.69206  -0.68987  -0.67628  -0.67421  -0.67295
 Alpha  occ. eigenvalues --   -0.66416  -0.66083  -0.65164  -0.64866  -0.64365
 Alpha  occ. eigenvalues --   -0.64146  -0.62429  -0.62005  -0.61689  -0.60836
 Alpha  occ. eigenvalues --   -0.60160  -0.60074  -0.59990  -0.59402  -0.58765
 Alpha  occ. eigenvalues --   -0.58195  -0.57825  -0.56511  -0.55322  -0.54883
 Alpha  occ. eigenvalues --   -0.53925  -0.53254  -0.52585  -0.52528  -0.51447
 Alpha  occ. eigenvalues --   -0.51230  -0.50902  -0.50810  -0.50325  -0.50122
 Alpha  occ. eigenvalues --   -0.50035  -0.49104  -0.48858  -0.48540  -0.46168
 Alpha  occ. eigenvalues --   -0.45862  -0.45643  -0.45444  -0.45317  -0.44658
 Alpha  occ. eigenvalues --   -0.44273  -0.43969  -0.43187  -0.42310  -0.42180
 Alpha  occ. eigenvalues --   -0.42050  -0.41356  -0.41129  -0.41089  -0.40818
 Alpha  occ. eigenvalues --   -0.40791  -0.40553  -0.40471  -0.40364  -0.40130
 Alpha  occ. eigenvalues --   -0.39650  -0.39593  -0.39405  -0.39246  -0.38824
 Alpha  occ. eigenvalues --   -0.38707  -0.38690  -0.38423  -0.38307  -0.38169
 Alpha  occ. eigenvalues --   -0.38039  -0.37813  -0.37658  -0.37511  -0.37449
 Alpha  occ. eigenvalues --   -0.37105  -0.37016  -0.36789  -0.36639  -0.36538
 Alpha  occ. eigenvalues --   -0.36514  -0.36279  -0.35900  -0.35679  -0.35600
 Alpha  occ. eigenvalues --   -0.35290  -0.35143  -0.34901  -0.34781  -0.34588
 Alpha  occ. eigenvalues --   -0.34549  -0.34478  -0.34192  -0.34006  -0.33906
 Alpha  occ. eigenvalues --   -0.33771  -0.33580  -0.33554  -0.33300  -0.33190
 Alpha  occ. eigenvalues --   -0.33078  -0.32833  -0.32765  -0.32519  -0.32172
 Alpha  occ. eigenvalues --   -0.32123  -0.32071  -0.31960  -0.31937  -0.31834
 Alpha  occ. eigenvalues --   -0.31460  -0.31190  -0.31124  -0.30918  -0.30744
 Alpha  occ. eigenvalues --   -0.30570  -0.30432  -0.30404  -0.30214  -0.29860
 Alpha  occ. eigenvalues --   -0.29536  -0.29471  -0.29373  -0.29131  -0.28955
 Alpha  occ. eigenvalues --   -0.28774  -0.28759  -0.28505  -0.27767  -0.27697
 Alpha  occ. eigenvalues --   -0.27568  -0.27453  -0.26808  -0.26679  -0.26617
 Alpha  occ. eigenvalues --   -0.26464  -0.26261  -0.25948  -0.25723  -0.25319
 Alpha  occ. eigenvalues --   -0.25175  -0.24608  -0.24082  -0.23848  -0.23660
 Alpha  occ. eigenvalues --   -0.23267  -0.22587  -0.22323  -0.21976  -0.20908
 Alpha  occ. eigenvalues --   -0.20385  -0.20278  -0.18992  -0.18077  -0.17335
 Alpha  occ. eigenvalues --   -0.16372
 Alpha virt. eigenvalues --   -0.12066  -0.07001  -0.06123  -0.04559  -0.03699
 Alpha virt. eigenvalues --   -0.02861  -0.02661  -0.02112  -0.01857  -0.00229
 Alpha virt. eigenvalues --    0.00963   0.01963   0.02704   0.02898   0.03241

 Mulliken charges:
               1
     1  Mg   0.688028
     2  C    0.011132
     3  C   -0.051916
     4  C   -0.058875
     5  C   -0.073124
     6  N   -0.190806
     7  C   -0.052676
     8  C   -0.025614
     9  C   -0.001251
    10  C    0.025390
    11  C    0.126392
    12  C    0.121872
    13  C    0.139595
    14  C    0.068503
    15  O   -0.194790
    16  O   -0.275512
    17  N   -0.310124
    18  C    0.111599
    19  C   -0.138515
    20  C   -0.010316
    21  C    0.141095
    22  C    0.183855
    23  C   -0.122485
    24  O   -0.097920
    25  C    0.148388
    26  N   -0.271340
    27  C    0.034302
    28  C    0.000338
    29  C    0.015202
    30  C    0.037471
    31  C    0.125903
    32  C    0.084095
    33  C    0.091003
    34  N   -0.217070
    35  C    0.112479
    36  C   -0.162544
    37  C    0.080521
    38  C    0.055549
    39  C    0.181705
    40  C   -0.047090
    41  O   -0.115946
    42  C    0.037912
    43  C    0.115896
    44  O   -0.170968
    45  O   -0.269075
    46  C    0.214533
    47  C    0.321330
    48  C   -0.132045
    49  C   -0.154289
    50  C    0.142338
    51  C    0.130963
    52  C    0.084605
    53  C    0.057412
    54  C   -0.050009
    55  C    0.131026
    56  C    0.089739
    57  C    0.051567
    58  C    0.113267
    59  C   -0.095409
    60  C    0.090739
    61  C    0.123975
    62  C    0.048466
    63  C    0.114827
    64  C   -0.062892
    65  C    0.091058
    66  C    0.106826
    67  H   -0.050833
    68  H   -0.070478
    69  H   -0.059036
    70  H   -0.000470
    71  H   -0.024359
    72  H    0.005557
    73  H   -0.006407
    74  H    0.007009
    75  H   -0.007337
    76  H   -0.012595
    77  H   -0.002689
    78  H   -0.008143
    79  H    0.003807
    80  H   -0.011094
    81  H    0.012350
    82  H    0.008457
    83  H   -0.016446
    84  H    0.015892
    85  H   -0.029561
    86  H   -0.042996
    87  H   -0.000041
    88  H   -0.001952
    89  H   -0.008438
    90  H   -0.025803
    91  H   -0.022455
    92  H   -0.005230
    93  H    0.007991
    94  H   -0.013544
    95  H    0.005694
    96  H    0.005418
    97  H   -0.016590
    98  H   -0.001168
    99  H    0.006344
   100  H    0.014038
   101  H    0.000950
   102  H   -0.009436
   103  H    0.000987
   104  H   -0.040565
   105  H    0.008810
   106  H   -0.017943
   107  H    0.006870
   108  H   -0.008257
   109  H   -0.042168
   110  H   -0.015155
   111  H   -0.024079
   112  H   -0.017251
   113  H   -0.029965
   114  H   -0.035501
   115  H   -0.012724
   116  H   -0.035622
   117  H   -0.025406
   118  H   -0.041509
   119  H   -0.034856
   120  H   -0.008528
   121  H   -0.026971
   122  H   -0.037419
   123  H   -0.019720
   124  H   -0.023231
   125  H   -0.024769
   126  H   -0.012571
   127  H   -0.012399
   128  H   -0.057908
   129  H   -0.054272
   130  H   -0.042923
   131  H   -0.044699
   132  H   -0.030330
   133  H   -0.038348
   134  H   -0.024585
   135  H   -0.022017
   136  H   -0.018366
   137  H   -0.020748
   138  H   -0.017734
   139  H   -0.016417
   140  H   -0.026411
 Sum of Mulliken charges =  -0.00000

 Dipole moment (field-independent basis, Debye):
    X=              0.5265    Y=             -2.1378    Z=              2.0246  Tot=              2.9910
 Quadrupole moment (field-independent basis, Debye-Ang):
   XX=           -389.4858   YY=           -406.9018   ZZ=           -421.9297
   XY=              7.6801   XZ=             -7.2367   YZ=            -30.9003

 Normal termination of Gaussian 16 at Wed Apr 27 02:36:24 2022.
