 Gaussian 16, Revision A.03,
 Gaussian 16:  ES64L-G16RevA.03 25-Dec-2016

 -----------------------------------
 #p cam-b3lyp/Def2SVP td=(nstates=5)
 -----------------------------------

 ------------------------------------------------------
 step_101_chromophore_8 TDDFT with cam-b3lyp functional
 ------------------------------------------------------
 Symbolic Z-matrix:
 Charge =  0 Multiplicity = 1

                         Standard orientation:
 ---------------------------------------------------------------------
 Center     Atomic      Atomic             Coordinates (Angstroms)
 Number     Number       Type             X           Y           Z
 ---------------------------------------------------------------------
      1         12           0       -4.776264   -1.000886    0.072315
      2          6           0       -3.849811    2.350353    0.936975
      3          6           0       -3.903327   -0.347670   -3.094494
      4          6           0       -5.488922   -4.152182   -0.491122
      5          6           0       -4.773926   -1.647841    3.590555
      6          7           0       -3.938678    0.849162   -0.990185
      7          6           0       -3.608706    2.052511   -0.447916
      8          6           0       -3.096900    3.041659   -1.494022
      9          6           0       -3.333583    2.257806   -2.822546
     10          6           0       -3.577185    0.771532   -2.291437
     11          6           0       -4.600596    2.836665   -3.626568
     12          6           0       -1.510392    3.298561   -1.208388
     13          6           0       -1.091409    4.702663   -1.407975
     14          6           0        0.303637    4.966809   -2.077160
     15          8           0        0.508882    5.277210   -3.257747
     16          8           0        1.287769    4.825401   -1.099647
     17          7           0       -4.746776   -2.172983   -1.606427
     18          6           0       -4.373641   -1.717939   -2.837024
     19          6           0       -4.424574   -2.797097   -3.836391
     20          6           0       -4.991783   -3.929929   -3.069238
     21          6           0       -5.181701   -3.474784   -1.696534
     22          6           0       -3.901366   -2.718428   -5.225095
     23          6           0       -5.418095   -5.257322   -3.693956
     24          8           0       -5.184793   -5.528243   -4.797407
     25          6           0       -6.148976   -6.276584   -2.892765
     26          7           0       -4.761687   -2.670428    1.305596
     27          6           0       -5.440568   -3.753468    0.826591
     28          6           0       -5.776453   -4.735852    1.943914
     29          6           0       -5.003821   -4.216525    3.193044
     30          6           0       -4.733271   -2.747256    2.711701
     31          6           0       -7.345729   -4.874682    2.149853
     32          6           0       -3.685168   -4.990045    3.460999
     33          6           0       -3.742626   -6.461675    4.011535
     34          7           0       -4.567234    0.092684    1.903713
     35          6           0       -4.700702   -0.275471    3.230377
     36          6           0       -4.531290    0.807749    4.117141
     37          6           0       -4.236588    1.900279    3.253543
     38          6           0       -4.291656    1.390032    1.923579
     39          6           0       -4.563034    0.785769    5.602375
     40          6           0       -3.979914    3.334843    3.144741
     41          8           0       -3.993424    4.192542    3.998722
     42          6           0       -3.725261    3.731663    1.600411
     43          6           0       -4.855079    4.598726    1.114592
     44          8           0       -5.813266    4.195495    0.514153
     45          8           0       -4.589199    5.952908    1.206471
     46          6           0       -5.588355    6.772840    0.470348
     47          6           0        2.650071    4.979180   -1.635093
     48          6           0        3.445165    3.797113   -1.091248
     49          6           0        4.069248    3.614338    0.070514
     50          6           0        4.054341    4.530852    1.260265
     51          6           0        4.737933    2.255334    0.400593
     52          6           0        5.654064    1.531690   -0.642647
     53          6           0        5.044322    0.330534   -1.521561
     54          6           0        5.959190   -0.906366   -1.815967
     55          6           0        5.210774   -2.010459   -2.517819
     56          6           0        6.807140   -1.428232   -0.543505
     57          6           0        8.372116   -1.342086   -0.905936
     58          6           0        9.278088   -0.501952    0.086068
     59          6           0       10.576688   -1.359082    0.317785
     60          6           0       10.522375   -2.115970    1.651013
     61          6           0       11.780649   -0.424277    0.451840
     62          6           0       12.971700   -0.826154   -0.294913
     63          6           0       14.307953   -0.780655    0.529105
     64          6           0       14.686311   -2.156377    1.124699
     65          6           0       15.696465   -2.922872    0.256068
     66          6           0       15.176730   -2.025803    2.565980
     67          1           0       -3.764209   -0.153031   -4.159951
     68          1           0       -5.862184   -5.174811   -0.581400
     69          1           0       -4.920612   -1.891651    4.644836
     70          1           0       -3.668305    3.969087   -1.460925
     71          1           0       -2.440974    2.305664   -3.445396
     72          1           0       -4.267905    3.104902   -4.629030
     73          1           0       -4.937598    3.733521   -3.106966
     74          1           0       -5.416931    2.114469   -3.592767
     75          1           0       -0.868588    2.638844   -1.791277
     76          1           0       -1.385481    3.065214   -0.150715
     77          1           0       -1.047729    5.128641   -0.405869
     78          1           0       -1.806878    5.291604   -1.981513
     79          1           0       -3.471677   -3.675267   -5.523336
     80          1           0       -3.042374   -2.049819   -5.161898
     81          1           0       -4.620295   -2.398303   -5.978112
     82          1           0       -5.323350   -6.705538   -2.324814
     83          1           0       -6.553661   -7.145814   -3.410298
     84          1           0       -6.908479   -5.714526   -2.348274
     85          1           0       -5.352085   -5.675861    1.589723
     86          1           0       -5.639773   -4.173946    4.076864
     87          1           0       -7.681423   -4.993248    3.179804
     88          1           0       -7.788890   -5.650593    1.523926
     89          1           0       -7.651603   -3.908038    1.751673
     90          1           0       -3.139208   -4.241797    4.034869
     91          1           0       -3.185818   -5.086810    2.496678
     92          1           0       -3.640635   -6.575386    5.091112
     93          1           0       -3.028347   -7.072067    3.460148
     94          1           0       -4.788282   -6.728096    3.850507
     95          1           0       -5.299666    1.477513    6.011048
     96          1           0       -3.617064    1.206878    5.941132
     97          1           0       -4.722834   -0.187399    6.068316
     98          1           0       -2.837333    4.344578    1.446855
     99          1           0       -6.422338    7.177567    1.044534
    100          1           0       -6.116217    6.336641   -0.377754
    101          1           0       -5.146663    7.687662    0.074682
    102          1           0        3.107142    5.909582   -1.296187
    103          1           0        2.770694    4.965024   -2.718918
    104          1           0        3.436949    2.984542   -1.818578
    105          1           0        3.745018    4.099792    2.212561
    106          1           0        3.251413    5.225683    1.012885
    107          1           0        4.975032    5.113100    1.287630
    108          1           0        3.843595    1.679609    0.636275
    109          1           0        5.227995    2.438844    1.357601
    110          1           0        6.503259    1.152790   -0.075018
    111          1           0        5.954369    2.252368   -1.402444
    112          1           0        4.646810    0.839117   -2.400146
    113          1           0        4.218501   -0.129868   -0.980153
    114          1           0        6.688928   -0.652329   -2.584074
    115          1           0        5.535373   -3.011135   -2.231871
    116          1           0        5.473134   -1.925644   -3.571877
    117          1           0        4.139230   -1.815300   -2.564900
    118          1           0        6.530518   -2.449252   -0.278254
    119          1           0        6.583236   -0.975064    0.421936
    120          1           0        8.596441   -1.056168   -1.933738
    121          1           0        8.772355   -2.331488   -0.688242
    122          1           0        8.778522   -0.406564    1.050156
    123          1           0        9.544396    0.498915   -0.256400
    124          1           0       10.811450   -2.101610   -0.444364
    125          1           0        9.897752   -2.987144    1.456512
    126          1           0       10.192590   -1.371053    2.375734
    127          1           0       11.431863   -2.528849    2.088942
    128          1           0       12.178544   -0.349569    1.464098
    129          1           0       11.487420    0.608356    0.265318
    130          1           0       13.056959   -0.209867   -1.190305
    131          1           0       12.722568   -1.828124   -0.644079
    132          1           0       14.199167   -0.007574    1.289661
    133          1           0       15.017351   -0.464552   -0.235234
    134          1           0       13.788043   -2.773819    1.100092
    135          1           0       15.330454   -3.940199    0.123408
    136          1           0       16.701099   -2.983769    0.674172
    137          1           0       15.887710   -2.588919   -0.763288
    138          1           0       14.723155   -2.758293    3.233333
    139          1           0       15.076157   -1.048142    3.036125
    140          1           0       16.244941   -2.241947    2.572892
 ---------------------------------------------------------------------

 SCF Done:  E(RCAM-B3LYP) =  -3007.12041441     A.U. after   18 cycles

 Excitation energies and oscillator strengths:

 Excited State   1:      Singlet-A      1.6919 eV  732.83 nm  f=0.3550  <S**2>=0.000
     245 -> 248        0.18698
     246 -> 247        0.68445
     245 <- 248        0.11133
 This state for optimization and/or second-order correction.
 Total Energy, E(TD-HF/TD-DFT) =  -3007.05823952
 Copying the excited state density for this state as the 1-particle RhoCI density.

 Excited State   2:      Singlet-A      2.1202 eV  584.78 nm  f=0.1518  <S**2>=0.000
     245 -> 247        0.65791
     246 -> 248       -0.25042

 Excited State   3:      Singlet-A      3.2084 eV  386.43 nm  f=0.0032  <S**2>=0.000
     244 -> 247        0.68903

 Excited State   4:      Singlet-A      3.4041 eV  364.23 nm  f=0.0029  <S**2>=0.000
     240 -> 247       -0.19507
     242 -> 247        0.18991
     243 -> 247        0.61859
     246 -> 248        0.12707

 Excited State   5:      Singlet-A      3.4715 eV  357.15 nm  f=0.0064  <S**2>=0.000
     239 -> 247        0.14981
     240 -> 247        0.54726
     240 -> 249        0.26541
     240 -> 250       -0.14076
     243 -> 247        0.18500

 The electronic state is 1-A.
 Alpha  occ. eigenvalues --  -46.89315 -19.25490 -19.25454 -19.20511 -19.20030
 Alpha  occ. eigenvalues --  -19.19109 -19.18179 -14.42712 -14.41859 -14.39814
 Alpha  occ. eigenvalues --  -14.39505 -10.40017 -10.39454 -10.35602 -10.34072
 Alpha  occ. eigenvalues --  -10.31691 -10.31521 -10.31505 -10.31418 -10.31209
 Alpha  occ. eigenvalues --  -10.30965 -10.30922 -10.30898 -10.29599 -10.29373
 Alpha  occ. eigenvalues --  -10.29331 -10.29212 -10.29029 -10.28983 -10.28828
 Alpha  occ. eigenvalues --  -10.28207 -10.28021 -10.27984 -10.27867 -10.27606
 Alpha  occ. eigenvalues --  -10.27537 -10.27486 -10.27331 -10.26957 -10.26805
 Alpha  occ. eigenvalues --  -10.26557 -10.26527 -10.26524 -10.26325 -10.26171
 Alpha  occ. eigenvalues --  -10.25966 -10.25832 -10.25732 -10.25655 -10.25632
 Alpha  occ. eigenvalues --  -10.25617 -10.25541 -10.25503 -10.25440 -10.25389
 Alpha  occ. eigenvalues --  -10.25363 -10.25149 -10.25072 -10.24911 -10.24397
 Alpha  occ. eigenvalues --  -10.24388 -10.24195 -10.24117 -10.24037 -10.23676
 Alpha  occ. eigenvalues --  -10.22908  -3.17798  -1.92686  -1.92255  -1.92103
 Alpha  occ. eigenvalues --   -1.16908  -1.15527  -1.13261  -1.10574  -1.08043
 Alpha  occ. eigenvalues --   -1.07497  -1.04612  -1.03742  -1.03275  -1.02195
 Alpha  occ. eigenvalues --   -0.92032  -0.90290  -0.89979  -0.89430  -0.88762
 Alpha  occ. eigenvalues --   -0.88232  -0.88128  -0.87358  -0.87280  -0.86615
 Alpha  occ. eigenvalues --   -0.85898  -0.85403  -0.83881  -0.83601  -0.83509
 Alpha  occ. eigenvalues --   -0.82463  -0.82211  -0.81077  -0.80665  -0.80214
 Alpha  occ. eigenvalues --   -0.79931  -0.78042  -0.77513  -0.77360  -0.76273
 Alpha  occ. eigenvalues --   -0.75459  -0.75411  -0.75281  -0.74662  -0.73984
 Alpha  occ. eigenvalues --   -0.73241  -0.72830  -0.71414  -0.70159  -0.69446
 Alpha  occ. eigenvalues --   -0.68497  -0.67760  -0.67106  -0.66906  -0.65650
 Alpha  occ. eigenvalues --   -0.65213  -0.65095  -0.64808  -0.64347  -0.64182
 Alpha  occ. eigenvalues --   -0.63883  -0.63039  -0.62752  -0.62208  -0.59856
 Alpha  occ. eigenvalues --   -0.59535  -0.59202  -0.58855  -0.58715  -0.58308
 Alpha  occ. eigenvalues --   -0.57717  -0.57476  -0.56420  -0.55633  -0.55443
 Alpha  occ. eigenvalues --   -0.55182  -0.54475  -0.54204  -0.53905  -0.53722
 Alpha  occ. eigenvalues --   -0.53594  -0.53371  -0.53217  -0.53053  -0.52940
 Alpha  occ. eigenvalues --   -0.52377  -0.52098  -0.51981  -0.51859  -0.51647
 Alpha  occ. eigenvalues --   -0.51527  -0.51249  -0.51180  -0.50755  -0.50741
 Alpha  occ. eigenvalues --   -0.50408  -0.50210  -0.50055  -0.49841  -0.49742
 Alpha  occ. eigenvalues --   -0.49600  -0.49335  -0.49286  -0.48845  -0.48728
 Alpha  occ. eigenvalues --   -0.48576  -0.48513  -0.48388  -0.47805  -0.47711
 Alpha  occ. eigenvalues --   -0.47336  -0.47220  -0.46878  -0.46634  -0.46470
 Alpha  occ. eigenvalues --   -0.46408  -0.46255  -0.46045  -0.45856  -0.45780
 Alpha  occ. eigenvalues --   -0.45588  -0.45400  -0.45358  -0.45082  -0.44912
 Alpha  occ. eigenvalues --   -0.44740  -0.44645  -0.44469  -0.44211  -0.44071
 Alpha  occ. eigenvalues --   -0.43725  -0.43658  -0.43538  -0.43385  -0.43314
 Alpha  occ. eigenvalues --   -0.43088  -0.42782  -0.42688  -0.42475  -0.42264
 Alpha  occ. eigenvalues --   -0.42243  -0.41975  -0.41899  -0.41481  -0.41396
 Alpha  occ. eigenvalues --   -0.40844  -0.40724  -0.40376  -0.40183  -0.39942
 Alpha  occ. eigenvalues --   -0.39787  -0.39761  -0.39430  -0.38710  -0.38580
 Alpha  occ. eigenvalues --   -0.38413  -0.38359  -0.38014  -0.37637  -0.37483
 Alpha  occ. eigenvalues --   -0.37415  -0.37017  -0.37001  -0.36545  -0.36342
 Alpha  occ. eigenvalues --   -0.35896  -0.35407  -0.35090  -0.34664  -0.34404
 Alpha  occ. eigenvalues --   -0.34381  -0.33556  -0.33095  -0.31298  -0.30781
 Alpha  occ. eigenvalues --   -0.30180  -0.30160  -0.30110  -0.29710  -0.23954
 Alpha  occ. eigenvalues --   -0.21896
 Alpha virt. eigenvalues --   -0.09371  -0.01891   0.00380   0.02076   0.02750
 Alpha virt. eigenvalues --    0.04019   0.04785   0.05227   0.05620   0.06276
 Alpha virt. eigenvalues --    0.07971   0.08606   0.09169   0.09220   0.09612

 Mulliken charges:
               1
     1  Mg   0.820136
     2  C   -0.013764
     3  C   -0.069830
     4  C   -0.076908
     5  C   -0.080107
     6  N   -0.254185
     7  C   -0.013674
     8  C   -0.076974
     9  C   -0.050019
    10  C    0.043630
    11  C    0.070915
    12  C    0.072416
    13  C    0.071619
    14  C    0.151345
    15  O   -0.238165
    16  O   -0.338667
    17  N   -0.399206
    18  C    0.119227
    19  C   -0.137541
    20  C   -0.075095
    21  C    0.166133
    22  C    0.123731
    23  C   -0.043171
    24  O   -0.138864
    25  C    0.061846
    26  N   -0.338219
    27  C    0.053975
    28  C   -0.066552
    29  C   -0.035843
    30  C    0.051675
    31  C    0.074434
    32  C    0.032086
    33  C    0.030346
    34  N   -0.305180
    35  C    0.116645
    36  C   -0.164150
    37  C    0.003993
    38  C    0.095223
    39  C    0.130572
    40  C    0.048318
    41  O   -0.155205
    42  C   -0.036675
    43  C    0.206673
    44  O   -0.207054
    45  O   -0.332290
    46  C    0.174351
    47  C    0.282674
    48  C   -0.153272
    49  C   -0.169648
    50  C    0.074939
    51  C    0.077317
    52  C    0.025351
    53  C    0.013228
    54  C   -0.103514
    55  C    0.068070
    56  C    0.034347
    57  C   -0.000614
    58  C    0.063226
    59  C   -0.159816
    60  C    0.040020
    61  C    0.070038
    62  C   -0.003038
    63  C    0.056682
    64  C   -0.124571
    65  C    0.033383
    66  C    0.047828
    67  H   -0.015708
    68  H   -0.034700
    69  H   -0.023866
    70  H    0.029761
    71  H    0.010742
    72  H    0.029207
    73  H    0.016938
    74  H    0.031979
    75  H    0.022461
    76  H    0.019558
    77  H    0.029203
    78  H    0.024009
    79  H    0.034966
    80  H    0.014893
    81  H    0.040290
    82  H    0.035116
    83  H    0.020129
    84  H    0.040312
    85  H    0.005182
    86  H   -0.007555
    87  H    0.023904
    88  H    0.021490
    89  H    0.015374
    90  H    0.003249
    91  H    0.005195
    92  H    0.018844
    93  H    0.030998
    94  H    0.006960
    95  H    0.032264
    96  H    0.030917
    97  H    0.007897
    98  H    0.039652
    99  H    0.028993
   100  H    0.039140
   101  H    0.024382
   102  H    0.017594
   103  H    0.036100
   104  H   -0.011634
   105  H    0.033878
   106  H    0.007752
   107  H    0.032085
   108  H    0.020491
   109  H   -0.010384
   110  H    0.009588
   111  H    0.005450
   112  H    0.007410
   113  H   -0.003973
   114  H   -0.004592
   115  H    0.012529
   116  H   -0.010064
   117  H    0.000802
   118  H   -0.011174
   119  H   -0.007020
   120  H    0.017841
   121  H    0.000584
   122  H   -0.009807
   123  H    0.008110
   124  H    0.006877
   125  H   -0.000813
   126  H    0.010243
   127  H    0.009751
   128  H   -0.028162
   129  H   -0.023405
   130  H   -0.012152
   131  H   -0.017647
   132  H   -0.002614
   133  H   -0.008043
   134  H    0.004156
   135  H    0.002320
   136  H    0.005336
   137  H    0.003772
   138  H    0.006609
   139  H    0.007909
   140  H   -0.002468
 Sum of Mulliken charges =  -0.00000

 Dipole moment (field-independent basis, Debye):
    X=              0.3034    Y=             -2.3330    Z=              1.6762  Tot=              2.8887
 Quadrupole moment (field-independent basis, Debye-Ang):
   XX=           -387.6090   YY=           -403.5213   ZZ=           -420.9294
   XY=              9.2307   XZ=             -5.6901   YZ=            -31.6387

 Normal termination of Gaussian 16 at Wed Apr 27 01:38:13 2022.
