 Gaussian 16, Revision A.03,
 Gaussian 16:  ES64L-G16RevA.03 25-Dec-2016

 ---------------------------------
 #p PBE1PBE/Def2SVP td=(nstates=5)
 ---------------------------------

 ----------------------------------------------------
 step_101_chromophore_8 TDDFT with PBE1PBE functional
 ----------------------------------------------------
 Symbolic Z-matrix:
 Charge =  0 Multiplicity = 1

                         Standard orientation:
 ---------------------------------------------------------------------
 Center     Atomic      Atomic             Coordinates (Angstroms)
 Number     Number       Type             X           Y           Z
 ---------------------------------------------------------------------
      1         12           0       -4.776264   -1.000886    0.072315
      2          6           0       -3.849811    2.350353    0.936975
      3          6           0       -3.903327   -0.347670   -3.094494
      4          6           0       -5.488922   -4.152182   -0.491122
      5          6           0       -4.773926   -1.647841    3.590555
      6          7           0       -3.938678    0.849162   -0.990185
      7          6           0       -3.608706    2.052511   -0.447916
      8          6           0       -3.096900    3.041659   -1.494022
      9          6           0       -3.333583    2.257806   -2.822546
     10          6           0       -3.577185    0.771532   -2.291437
     11          6           0       -4.600596    2.836665   -3.626568
     12          6           0       -1.510392    3.298561   -1.208388
     13          6           0       -1.091409    4.702663   -1.407975
     14          6           0        0.303637    4.966809   -2.077160
     15          8           0        0.508882    5.277210   -3.257747
     16          8           0        1.287769    4.825401   -1.099647
     17          7           0       -4.746776   -2.172983   -1.606427
     18          6           0       -4.373641   -1.717939   -2.837024
     19          6           0       -4.424574   -2.797097   -3.836391
     20          6           0       -4.991783   -3.929929   -3.069238
     21          6           0       -5.181701   -3.474784   -1.696534
     22          6           0       -3.901366   -2.718428   -5.225095
     23          6           0       -5.418095   -5.257322   -3.693956
     24          8           0       -5.184793   -5.528243   -4.797407
     25          6           0       -6.148976   -6.276584   -2.892765
     26          7           0       -4.761687   -2.670428    1.305596
     27          6           0       -5.440568   -3.753468    0.826591
     28          6           0       -5.776453   -4.735852    1.943914
     29          6           0       -5.003821   -4.216525    3.193044
     30          6           0       -4.733271   -2.747256    2.711701
     31          6           0       -7.345729   -4.874682    2.149853
     32          6           0       -3.685168   -4.990045    3.460999
     33          6           0       -3.742626   -6.461675    4.011535
     34          7           0       -4.567234    0.092684    1.903713
     35          6           0       -4.700702   -0.275471    3.230377
     36          6           0       -4.531290    0.807749    4.117141
     37          6           0       -4.236588    1.900279    3.253543
     38          6           0       -4.291656    1.390032    1.923579
     39          6           0       -4.563034    0.785769    5.602375
     40          6           0       -3.979914    3.334843    3.144741
     41          8           0       -3.993424    4.192542    3.998722
     42          6           0       -3.725261    3.731663    1.600411
     43          6           0       -4.855079    4.598726    1.114592
     44          8           0       -5.813266    4.195495    0.514153
     45          8           0       -4.589199    5.952908    1.206471
     46          6           0       -5.588355    6.772840    0.470348
     47          6           0        2.650071    4.979180   -1.635093
     48          6           0        3.445165    3.797113   -1.091248
     49          6           0        4.069248    3.614338    0.070514
     50          6           0        4.054341    4.530852    1.260265
     51          6           0        4.737933    2.255334    0.400593
     52          6           0        5.654064    1.531690   -0.642647
     53          6           0        5.044322    0.330534   -1.521561
     54          6           0        5.959190   -0.906366   -1.815967
     55          6           0        5.210774   -2.010459   -2.517819
     56          6           0        6.807140   -1.428232   -0.543505
     57          6           0        8.372116   -1.342086   -0.905936
     58          6           0        9.278088   -0.501952    0.086068
     59          6           0       10.576688   -1.359082    0.317785
     60          6           0       10.522375   -2.115970    1.651013
     61          6           0       11.780649   -0.424277    0.451840
     62          6           0       12.971700   -0.826154   -0.294913
     63          6           0       14.307953   -0.780655    0.529105
     64          6           0       14.686311   -2.156377    1.124699
     65          6           0       15.696465   -2.922872    0.256068
     66          6           0       15.176730   -2.025803    2.565980
     67          1           0       -3.764209   -0.153031   -4.159951
     68          1           0       -5.862184   -5.174811   -0.581400
     69          1           0       -4.920612   -1.891651    4.644836
     70          1           0       -3.668305    3.969087   -1.460925
     71          1           0       -2.440974    2.305664   -3.445396
     72          1           0       -4.267905    3.104902   -4.629030
     73          1           0       -4.937598    3.733521   -3.106966
     74          1           0       -5.416931    2.114469   -3.592767
     75          1           0       -0.868588    2.638844   -1.791277
     76          1           0       -1.385481    3.065214   -0.150715
     77          1           0       -1.047729    5.128641   -0.405869
     78          1           0       -1.806878    5.291604   -1.981513
     79          1           0       -3.471677   -3.675267   -5.523336
     80          1           0       -3.042374   -2.049819   -5.161898
     81          1           0       -4.620295   -2.398303   -5.978112
     82          1           0       -5.323350   -6.705538   -2.324814
     83          1           0       -6.553661   -7.145814   -3.410298
     84          1           0       -6.908479   -5.714526   -2.348274
     85          1           0       -5.352085   -5.675861    1.589723
     86          1           0       -5.639773   -4.173946    4.076864
     87          1           0       -7.681423   -4.993248    3.179804
     88          1           0       -7.788890   -5.650593    1.523926
     89          1           0       -7.651603   -3.908038    1.751673
     90          1           0       -3.139208   -4.241797    4.034869
     91          1           0       -3.185818   -5.086810    2.496678
     92          1           0       -3.640635   -6.575386    5.091112
     93          1           0       -3.028347   -7.072067    3.460148
     94          1           0       -4.788282   -6.728096    3.850507
     95          1           0       -5.299666    1.477513    6.011048
     96          1           0       -3.617064    1.206878    5.941132
     97          1           0       -4.722834   -0.187399    6.068316
     98          1           0       -2.837333    4.344578    1.446855
     99          1           0       -6.422338    7.177567    1.044534
    100          1           0       -6.116217    6.336641   -0.377754
    101          1           0       -5.146663    7.687662    0.074682
    102          1           0        3.107142    5.909582   -1.296187
    103          1           0        2.770694    4.965024   -2.718918
    104          1           0        3.436949    2.984542   -1.818578
    105          1           0        3.745018    4.099792    2.212561
    106          1           0        3.251413    5.225683    1.012885
    107          1           0        4.975032    5.113100    1.287630
    108          1           0        3.843595    1.679609    0.636275
    109          1           0        5.227995    2.438844    1.357601
    110          1           0        6.503259    1.152790   -0.075018
    111          1           0        5.954369    2.252368   -1.402444
    112          1           0        4.646810    0.839117   -2.400146
    113          1           0        4.218501   -0.129868   -0.980153
    114          1           0        6.688928   -0.652329   -2.584074
    115          1           0        5.535373   -3.011135   -2.231871
    116          1           0        5.473134   -1.925644   -3.571877
    117          1           0        4.139230   -1.815300   -2.564900
    118          1           0        6.530518   -2.449252   -0.278254
    119          1           0        6.583236   -0.975064    0.421936
    120          1           0        8.596441   -1.056168   -1.933738
    121          1           0        8.772355   -2.331488   -0.688242
    122          1           0        8.778522   -0.406564    1.050156
    123          1           0        9.544396    0.498915   -0.256400
    124          1           0       10.811450   -2.101610   -0.444364
    125          1           0        9.897752   -2.987144    1.456512
    126          1           0       10.192590   -1.371053    2.375734
    127          1           0       11.431863   -2.528849    2.088942
    128          1           0       12.178544   -0.349569    1.464098
    129          1           0       11.487420    0.608356    0.265318
    130          1           0       13.056959   -0.209867   -1.190305
    131          1           0       12.722568   -1.828124   -0.644079
    132          1           0       14.199167   -0.007574    1.289661
    133          1           0       15.017351   -0.464552   -0.235234
    134          1           0       13.788043   -2.773819    1.100092
    135          1           0       15.330454   -3.940199    0.123408
    136          1           0       16.701099   -2.983769    0.674172
    137          1           0       15.887710   -2.588919   -0.763288
    138          1           0       14.723155   -2.758293    3.233333
    139          1           0       15.076157   -1.048142    3.036125
    140          1           0       16.244941   -2.241947    2.572892
 ---------------------------------------------------------------------

 SCF Done:  E(RPBE1PBE) =  -3005.31049891     A.U. after   15 cycles

 Excitation energies and oscillator strengths:

 Excited State   1:      Singlet-A      1.8496 eV  670.32 nm  f=0.3418  <S**2>=0.000
     245 -> 248        0.18256
     246 -> 247        0.69099
     246 <- 247       -0.10414
 This state for optimization and/or second-order correction.
 Total Energy, E(TD-HF/TD-DFT) =  -3005.24252677
 Copying the excited state density for this state as the 1-particle RhoCI density.

 Excited State   2:      Singlet-A      2.1524 eV  576.04 nm  f=0.1363  <S**2>=0.000
     245 -> 247        0.66415
     246 -> 248       -0.23803

 Excited State   3:      Singlet-A      2.8053 eV  441.97 nm  f=0.0000  <S**2>=0.000
     244 -> 247        0.69270

 Excited State   4:      Singlet-A      2.8873 eV  429.42 nm  f=0.0056  <S**2>=0.000
     240 -> 247       -0.10685
     241 -> 247        0.12059
     243 -> 247        0.67745

 Excited State   5:      Singlet-A      2.9372 eV  422.12 nm  f=0.0014  <S**2>=0.000
     240 -> 247       -0.22730
     241 -> 247        0.62328
     241 -> 249       -0.13819
     243 -> 247       -0.14460

 The electronic state is 1-A.
 Alpha  occ. eigenvalues --  -46.92693 -19.26177 -19.26139 -19.20820 -19.20227
 Alpha  occ. eigenvalues --  -19.19390 -19.18298 -14.42114 -14.41450 -14.39410
 Alpha  occ. eigenvalues --  -14.39189 -10.37084 -10.36447 -10.32813 -10.31140
 Alpha  occ. eigenvalues --  -10.29344 -10.29200 -10.29086 -10.28907 -10.28778
 Alpha  occ. eigenvalues --  -10.28608 -10.28535 -10.28445 -10.27421 -10.27096
 Alpha  occ. eigenvalues --  -10.27009 -10.26843 -10.26781 -10.26757 -10.26642
 Alpha  occ. eigenvalues --  -10.26006 -10.25851 -10.25691 -10.25590 -10.25202
 Alpha  occ. eigenvalues --  -10.25155 -10.25036 -10.24986 -10.24613 -10.24466
 Alpha  occ. eigenvalues --  -10.24176 -10.24028 -10.23975 -10.23830 -10.23614
 Alpha  occ. eigenvalues --  -10.23586 -10.23546 -10.23319 -10.23295 -10.23225
 Alpha  occ. eigenvalues --  -10.23102 -10.23069 -10.23009 -10.22962 -10.22958
 Alpha  occ. eigenvalues --  -10.22888 -10.22787 -10.22669 -10.22474 -10.21966
 Alpha  occ. eigenvalues --  -10.21805 -10.21587 -10.21506 -10.21419 -10.21203
 Alpha  occ. eigenvalues --  -10.20456  -3.14758  -1.87586  -1.87134  -1.86986
 Alpha  occ. eigenvalues --   -1.11649  -1.10338  -1.07999  -1.05388  -1.02865
 Alpha  occ. eigenvalues --   -1.02375  -0.99305  -0.98361  -0.97858  -0.96813
 Alpha  occ. eigenvalues --   -0.86363  -0.84392  -0.84140  -0.83595  -0.83060
 Alpha  occ. eigenvalues --   -0.82537  -0.82224  -0.81690  -0.81474  -0.80909
 Alpha  occ. eigenvalues --   -0.80106  -0.79622  -0.78156  -0.77813  -0.77678
 Alpha  occ. eigenvalues --   -0.76640  -0.76403  -0.75358  -0.74894  -0.74497
 Alpha  occ. eigenvalues --   -0.74085  -0.72374  -0.71798  -0.71597  -0.70566
 Alpha  occ. eigenvalues --   -0.69769  -0.69502  -0.69482  -0.68793  -0.68172
 Alpha  occ. eigenvalues --   -0.67681  -0.67151  -0.65836  -0.64422  -0.63830
 Alpha  occ. eigenvalues --   -0.63010  -0.61985  -0.61516  -0.61129  -0.60052
 Alpha  occ. eigenvalues --   -0.59670  -0.59380  -0.59283  -0.58881  -0.58424
 Alpha  occ. eigenvalues --   -0.58307  -0.57225  -0.56934  -0.56829  -0.54357
 Alpha  occ. eigenvalues --   -0.54116  -0.53797  -0.53373  -0.53171  -0.52747
 Alpha  occ. eigenvalues --   -0.52251  -0.51924  -0.50981  -0.50137  -0.49996
 Alpha  occ. eigenvalues --   -0.49701  -0.49054  -0.48701  -0.48365  -0.48146
 Alpha  occ. eigenvalues --   -0.48073  -0.47949  -0.47690  -0.47524  -0.47420
 Alpha  occ. eigenvalues --   -0.46925  -0.46665  -0.46494  -0.46368  -0.46219
 Alpha  occ. eigenvalues --   -0.46102  -0.45771  -0.45678  -0.45370  -0.45211
 Alpha  occ. eigenvalues --   -0.44937  -0.44698  -0.44606  -0.44437  -0.44302
 Alpha  occ. eigenvalues --   -0.44200  -0.44031  -0.43862  -0.43428  -0.43352
 Alpha  occ. eigenvalues --   -0.43175  -0.43096  -0.43047  -0.42419  -0.42407
 Alpha  occ. eigenvalues --   -0.42007  -0.41863  -0.41505  -0.41291  -0.41237
 Alpha  occ. eigenvalues --   -0.41156  -0.40905  -0.40807  -0.40564  -0.40452
 Alpha  occ. eigenvalues --   -0.40298  -0.40093  -0.39991  -0.39808  -0.39733
 Alpha  occ. eigenvalues --   -0.39464  -0.39344  -0.39251  -0.39002  -0.38820
 Alpha  occ. eigenvalues --   -0.38523  -0.38386  -0.38244  -0.38168  -0.38031
 Alpha  occ. eigenvalues --   -0.37886  -0.37566  -0.37491  -0.37314  -0.37075
 Alpha  occ. eigenvalues --   -0.36959  -0.36832  -0.36724  -0.36299  -0.36185
 Alpha  occ. eigenvalues --   -0.35701  -0.35434  -0.35228  -0.34962  -0.34705
 Alpha  occ. eigenvalues --   -0.34681  -0.34554  -0.34193  -0.33650  -0.33397
 Alpha  occ. eigenvalues --   -0.33384  -0.33199  -0.33013  -0.32538  -0.32490
 Alpha  occ. eigenvalues --   -0.32221  -0.31891  -0.31876  -0.31650  -0.31231
 Alpha  occ. eigenvalues --   -0.30770  -0.30356  -0.30238  -0.29423  -0.29312
 Alpha  occ. eigenvalues --   -0.29190  -0.28739  -0.28557  -0.26962  -0.25859
 Alpha  occ. eigenvalues --   -0.25761  -0.25440  -0.25252  -0.24909  -0.20960
 Alpha  occ. eigenvalues --   -0.19440
 Alpha virt. eigenvalues --   -0.11754  -0.05389  -0.03811  -0.01975  -0.00754
 Alpha virt. eigenvalues --   -0.00272   0.00274   0.00792   0.01095   0.02688
 Alpha virt. eigenvalues --    0.03859   0.04879   0.05539   0.05915   0.06133

 Mulliken charges:
               1
     1  Mg   0.968045
     2  C   -0.025035
     3  C   -0.073598
     4  C   -0.070982
     5  C   -0.072540
     6  N   -0.352491
     7  C    0.061696
     8  C   -0.155597
     9  C   -0.120053
    10  C    0.087265
    11  C    0.014096
    12  C    0.027144
    13  C   -0.005315
    14  C    0.215368
    15  O   -0.271026
    16  O   -0.363193
    17  N   -0.513228
    18  C    0.139697
    19  C   -0.159451
    20  C   -0.119076
    21  C    0.191158
    22  C    0.061907
    23  C    0.013258
    24  O   -0.177327
    25  C   -0.017957
    26  N   -0.430783
    27  C    0.081058
    28  C   -0.148374
    29  C   -0.111095
    30  C    0.087490
    31  C    0.019257
    32  C   -0.024747
    33  C   -0.042796
    34  N   -0.431877
    35  C    0.135844
    36  C   -0.184271
    37  C   -0.043593
    38  C    0.156969
    39  C    0.079188
    40  C    0.143405
    41  O   -0.199104
    42  C   -0.156967
    43  C    0.301654
    44  O   -0.238773
    45  O   -0.364756
    46  C    0.117129
    47  C    0.233419
    48  C   -0.165931
    49  C   -0.209382
    50  C    0.006167
    51  C    0.022040
    52  C   -0.046805
    53  C   -0.041077
    54  C   -0.188265
    55  C    0.009695
    56  C   -0.015376
    57  C   -0.068944
    58  C    0.016677
    59  C   -0.258455
    60  C   -0.017116
    61  C    0.023484
    62  C   -0.064115
    63  C   -0.003835
    64  C   -0.222011
    65  C   -0.021431
    66  C   -0.010030
    67  H    0.016093
    68  H   -0.002223
    69  H    0.007989
    70  H    0.068161
    71  H    0.046363
    72  H    0.055819
    73  H    0.043862
    74  H    0.059618
    75  H    0.053332
    76  H    0.054138
    77  H    0.062104
    78  H    0.055173
    79  H    0.062349
    80  H    0.041729
    81  H    0.067061
    82  H    0.062813
    83  H    0.048519
    84  H    0.066014
    85  H    0.041619
    86  H    0.028426
    87  H    0.050052
    88  H    0.048714
    89  H    0.044786
    90  H    0.037003
    91  H    0.038831
    92  H    0.046708
    93  H    0.057886
    94  H    0.035781
    95  H    0.060323
    96  H    0.059092
    97  H    0.034598
    98  H    0.076326
    99  H    0.051596
   100  H    0.060621
   101  H    0.046976
   102  H    0.044763
   103  H    0.062976
   104  H    0.021451
   105  H    0.060306
   106  H    0.037615
   107  H    0.060872
   108  H    0.054183
   109  H    0.021614
   110  H    0.045671
   111  H    0.039176
   112  H    0.039044
   113  H    0.028970
   114  H    0.034090
   115  H    0.039287
   116  H    0.018322
   117  H    0.027988
   118  H    0.020640
   119  H    0.022972
   120  H    0.048642
   121  H    0.036581
   122  H    0.021543
   123  H    0.039100
   124  H    0.042623
   125  H    0.027540
   126  H    0.037489
   127  H    0.038788
   128  H    0.005869
   129  H    0.009095
   130  H    0.021318
   131  H    0.015368
   132  H    0.028740
   133  H    0.024999
   134  H    0.043382
   135  H    0.029765
   136  H    0.031491
   137  H    0.030309
   138  H    0.033977
   139  H    0.034199
   140  H    0.024663
 Sum of Mulliken charges =  -0.00000

 Dipole moment (field-independent basis, Debye):
    X=              0.3482    Y=             -2.3612    Z=              1.9102  Tot=              3.0570
 Quadrupole moment (field-independent basis, Debye-Ang):
   XX=           -385.0086   YY=           -400.0362   ZZ=           -416.6087
   XY=              9.2016   XZ=             -6.8451   YZ=            -32.4927

 Normal termination of Gaussian 16 at Wed Apr 27 01:54:20 2022.
