 Gaussian 16, Revision A.03,
 Gaussian 16:  ES64L-G16RevA.03 25-Dec-2016

 --------------------------------
 #p wB97XD/Def2SVP td=(nstates=5)
 --------------------------------

 ---------------------------------------------------
 step_101_chromophore_8 TDDFT with wB97XD functional
 ---------------------------------------------------
 Symbolic Z-matrix:
 Charge =  0 Multiplicity = 1

                         Standard orientation:
 ---------------------------------------------------------------------
 Center     Atomic      Atomic             Coordinates (Angstroms)
 Number     Number       Type             X           Y           Z
 ---------------------------------------------------------------------
      1         12           0       -4.776264   -1.000886    0.072315
      2          6           0       -3.849811    2.350353    0.936975
      3          6           0       -3.903327   -0.347670   -3.094494
      4          6           0       -5.488922   -4.152182   -0.491122
      5          6           0       -4.773926   -1.647841    3.590555
      6          7           0       -3.938678    0.849162   -0.990185
      7          6           0       -3.608706    2.052511   -0.447916
      8          6           0       -3.096900    3.041659   -1.494022
      9          6           0       -3.333583    2.257806   -2.822546
     10          6           0       -3.577185    0.771532   -2.291437
     11          6           0       -4.600596    2.836665   -3.626568
     12          6           0       -1.510392    3.298561   -1.208388
     13          6           0       -1.091409    4.702663   -1.407975
     14          6           0        0.303637    4.966809   -2.077160
     15          8           0        0.508882    5.277210   -3.257747
     16          8           0        1.287769    4.825401   -1.099647
     17          7           0       -4.746776   -2.172983   -1.606427
     18          6           0       -4.373641   -1.717939   -2.837024
     19          6           0       -4.424574   -2.797097   -3.836391
     20          6           0       -4.991783   -3.929929   -3.069238
     21          6           0       -5.181701   -3.474784   -1.696534
     22          6           0       -3.901366   -2.718428   -5.225095
     23          6           0       -5.418095   -5.257322   -3.693956
     24          8           0       -5.184793   -5.528243   -4.797407
     25          6           0       -6.148976   -6.276584   -2.892765
     26          7           0       -4.761687   -2.670428    1.305596
     27          6           0       -5.440568   -3.753468    0.826591
     28          6           0       -5.776453   -4.735852    1.943914
     29          6           0       -5.003821   -4.216525    3.193044
     30          6           0       -4.733271   -2.747256    2.711701
     31          6           0       -7.345729   -4.874682    2.149853
     32          6           0       -3.685168   -4.990045    3.460999
     33          6           0       -3.742626   -6.461675    4.011535
     34          7           0       -4.567234    0.092684    1.903713
     35          6           0       -4.700702   -0.275471    3.230377
     36          6           0       -4.531290    0.807749    4.117141
     37          6           0       -4.236588    1.900279    3.253543
     38          6           0       -4.291656    1.390032    1.923579
     39          6           0       -4.563034    0.785769    5.602375
     40          6           0       -3.979914    3.334843    3.144741
     41          8           0       -3.993424    4.192542    3.998722
     42          6           0       -3.725261    3.731663    1.600411
     43          6           0       -4.855079    4.598726    1.114592
     44          8           0       -5.813266    4.195495    0.514153
     45          8           0       -4.589199    5.952908    1.206471
     46          6           0       -5.588355    6.772840    0.470348
     47          6           0        2.650071    4.979180   -1.635093
     48          6           0        3.445165    3.797113   -1.091248
     49          6           0        4.069248    3.614338    0.070514
     50          6           0        4.054341    4.530852    1.260265
     51          6           0        4.737933    2.255334    0.400593
     52          6           0        5.654064    1.531690   -0.642647
     53          6           0        5.044322    0.330534   -1.521561
     54          6           0        5.959190   -0.906366   -1.815967
     55          6           0        5.210774   -2.010459   -2.517819
     56          6           0        6.807140   -1.428232   -0.543505
     57          6           0        8.372116   -1.342086   -0.905936
     58          6           0        9.278088   -0.501952    0.086068
     59          6           0       10.576688   -1.359082    0.317785
     60          6           0       10.522375   -2.115970    1.651013
     61          6           0       11.780649   -0.424277    0.451840
     62          6           0       12.971700   -0.826154   -0.294913
     63          6           0       14.307953   -0.780655    0.529105
     64          6           0       14.686311   -2.156377    1.124699
     65          6           0       15.696465   -2.922872    0.256068
     66          6           0       15.176730   -2.025803    2.565980
     67          1           0       -3.764209   -0.153031   -4.159951
     68          1           0       -5.862184   -5.174811   -0.581400
     69          1           0       -4.920612   -1.891651    4.644836
     70          1           0       -3.668305    3.969087   -1.460925
     71          1           0       -2.440974    2.305664   -3.445396
     72          1           0       -4.267905    3.104902   -4.629030
     73          1           0       -4.937598    3.733521   -3.106966
     74          1           0       -5.416931    2.114469   -3.592767
     75          1           0       -0.868588    2.638844   -1.791277
     76          1           0       -1.385481    3.065214   -0.150715
     77          1           0       -1.047729    5.128641   -0.405869
     78          1           0       -1.806878    5.291604   -1.981513
     79          1           0       -3.471677   -3.675267   -5.523336
     80          1           0       -3.042374   -2.049819   -5.161898
     81          1           0       -4.620295   -2.398303   -5.978112
     82          1           0       -5.323350   -6.705538   -2.324814
     83          1           0       -6.553661   -7.145814   -3.410298
     84          1           0       -6.908479   -5.714526   -2.348274
     85          1           0       -5.352085   -5.675861    1.589723
     86          1           0       -5.639773   -4.173946    4.076864
     87          1           0       -7.681423   -4.993248    3.179804
     88          1           0       -7.788890   -5.650593    1.523926
     89          1           0       -7.651603   -3.908038    1.751673
     90          1           0       -3.139208   -4.241797    4.034869
     91          1           0       -3.185818   -5.086810    2.496678
     92          1           0       -3.640635   -6.575386    5.091112
     93          1           0       -3.028347   -7.072067    3.460148
     94          1           0       -4.788282   -6.728096    3.850507
     95          1           0       -5.299666    1.477513    6.011048
     96          1           0       -3.617064    1.206878    5.941132
     97          1           0       -4.722834   -0.187399    6.068316
     98          1           0       -2.837333    4.344578    1.446855
     99          1           0       -6.422338    7.177567    1.044534
    100          1           0       -6.116217    6.336641   -0.377754
    101          1           0       -5.146663    7.687662    0.074682
    102          1           0        3.107142    5.909582   -1.296187
    103          1           0        2.770694    4.965024   -2.718918
    104          1           0        3.436949    2.984542   -1.818578
    105          1           0        3.745018    4.099792    2.212561
    106          1           0        3.251413    5.225683    1.012885
    107          1           0        4.975032    5.113100    1.287630
    108          1           0        3.843595    1.679609    0.636275
    109          1           0        5.227995    2.438844    1.357601
    110          1           0        6.503259    1.152790   -0.075018
    111          1           0        5.954369    2.252368   -1.402444
    112          1           0        4.646810    0.839117   -2.400146
    113          1           0        4.218501   -0.129868   -0.980153
    114          1           0        6.688928   -0.652329   -2.584074
    115          1           0        5.535373   -3.011135   -2.231871
    116          1           0        5.473134   -1.925644   -3.571877
    117          1           0        4.139230   -1.815300   -2.564900
    118          1           0        6.530518   -2.449252   -0.278254
    119          1           0        6.583236   -0.975064    0.421936
    120          1           0        8.596441   -1.056168   -1.933738
    121          1           0        8.772355   -2.331488   -0.688242
    122          1           0        8.778522   -0.406564    1.050156
    123          1           0        9.544396    0.498915   -0.256400
    124          1           0       10.811450   -2.101610   -0.444364
    125          1           0        9.897752   -2.987144    1.456512
    126          1           0       10.192590   -1.371053    2.375734
    127          1           0       11.431863   -2.528849    2.088942
    128          1           0       12.178544   -0.349569    1.464098
    129          1           0       11.487420    0.608356    0.265318
    130          1           0       13.056959   -0.209867   -1.190305
    131          1           0       12.722568   -1.828124   -0.644079
    132          1           0       14.199167   -0.007574    1.289661
    133          1           0       15.017351   -0.464552   -0.235234
    134          1           0       13.788043   -2.773819    1.100092
    135          1           0       15.330454   -3.940199    0.123408
    136          1           0       16.701099   -2.983769    0.674172
    137          1           0       15.887710   -2.588919   -0.763288
    138          1           0       14.723155   -2.758293    3.233333
    139          1           0       15.076157   -1.048142    3.036125
    140          1           0       16.244941   -2.241947    2.572892
 ---------------------------------------------------------------------

 SCF Done:  E(RwB97XD) =  -3007.81724830     A.U. after   20 cycles

 Excitation energies and oscillator strengths:

 Excited State   1:      Singlet-A      1.6349 eV  758.37 nm  f=0.3538  <S**2>=0.000
     245 -> 248        0.19262
     246 -> 247        0.68248
     245 <- 248        0.12075
 This state for optimization and/or second-order correction.
 Total Energy, E(TD-HF/TD-DFT) =  -3007.75716773
 Copying the excited state density for this state as the 1-particle RhoCI density.

 Excited State   2:      Singlet-A      2.0670 eV  599.83 nm  f=0.1479  <S**2>=0.000
     245 -> 247        0.65568
     246 -> 248       -0.25370
     246 <- 248       -0.10322

 Excited State   3:      Singlet-A      3.2389 eV  382.80 nm  f=0.0022  <S**2>=0.000
     244 -> 247        0.67851

 Excited State   4:      Singlet-A      3.4401 eV  360.41 nm  f=0.0033  <S**2>=0.000
     240 -> 247       -0.20472
     241 -> 247        0.62104
     242 -> 247       -0.10494
     246 -> 248        0.16746

 Excited State   5:      Singlet-A      3.5194 eV  352.29 nm  f=0.0072  <S**2>=0.000
     239 -> 247        0.10456
     240 -> 247        0.52530
     240 -> 249       -0.29651
     240 -> 250       -0.15288
     241 -> 247        0.23731
     243 -> 247        0.10419

 The electronic state is 1-A.
 Alpha  occ. eigenvalues --  -46.95653 -19.30732 -19.30713 -19.25483 -19.24942
 Alpha  occ. eigenvalues --  -19.24145 -19.23167 -14.47308 -14.46468 -14.44419
 Alpha  occ. eigenvalues --  -14.44092 -10.43866 -10.43283 -10.39612 -10.38000
 Alpha  occ. eigenvalues --  -10.35756 -10.35427 -10.35405 -10.35292 -10.35242
 Alpha  occ. eigenvalues --  -10.35020 -10.35005 -10.34984 -10.33577 -10.33431
 Alpha  occ. eigenvalues --  -10.33418 -10.33316 -10.33192 -10.33046 -10.32905
 Alpha  occ. eigenvalues --  -10.32290 -10.32128 -10.32032 -10.31918 -10.31631
 Alpha  occ. eigenvalues --  -10.31562 -10.31430 -10.31337 -10.30936 -10.30853
 Alpha  occ. eigenvalues --  -10.30449 -10.30428 -10.30395 -10.30175 -10.29986
 Alpha  occ. eigenvalues --  -10.29905 -10.29817 -10.29776 -10.29580 -10.29579
 Alpha  occ. eigenvalues --  -10.29484 -10.29436 -10.29402 -10.29381 -10.29329
 Alpha  occ. eigenvalues --  -10.29301 -10.29126 -10.29010 -10.28833 -10.28310
 Alpha  occ. eigenvalues --  -10.28228 -10.28006 -10.27925 -10.27840 -10.27554
 Alpha  occ. eigenvalues --  -10.26797  -3.21589  -1.95164  -1.94712  -1.94563
 Alpha  occ. eigenvalues --   -1.19060  -1.17719  -1.15476  -1.12807  -1.10246
 Alpha  occ. eigenvalues --   -1.09719  -1.06617  -1.05760  -1.05301  -1.04234
 Alpha  occ. eigenvalues --   -0.93991  -0.92033  -0.91805  -0.91255  -0.90669
 Alpha  occ. eigenvalues --   -0.90124  -0.89887  -0.89206  -0.89125  -0.88560
 Alpha  occ. eigenvalues --   -0.87878  -0.87287  -0.85813  -0.85457  -0.85340
 Alpha  occ. eigenvalues --   -0.84309  -0.84110  -0.82998  -0.82545  -0.82147
 Alpha  occ. eigenvalues --   -0.81749  -0.79985  -0.79417  -0.79298  -0.78207
 Alpha  occ. eigenvalues --   -0.77377  -0.77191  -0.77138  -0.76467  -0.75818
 Alpha  occ. eigenvalues --   -0.75219  -0.74757  -0.73395  -0.72070  -0.71365
 Alpha  occ. eigenvalues --   -0.70504  -0.69618  -0.69115  -0.68765  -0.67608
 Alpha  occ. eigenvalues --   -0.67141  -0.66927  -0.66831  -0.66341  -0.65978
 Alpha  occ. eigenvalues --   -0.65871  -0.64858  -0.64575  -0.64212  -0.61821
 Alpha  occ. eigenvalues --   -0.61550  -0.61218  -0.60773  -0.60661  -0.60258
 Alpha  occ. eigenvalues --   -0.59687  -0.59405  -0.58399  -0.57576  -0.57413
 Alpha  occ. eigenvalues --   -0.57123  -0.56436  -0.56122  -0.55791  -0.55578
 Alpha  occ. eigenvalues --   -0.55523  -0.55331  -0.55133  -0.54932  -0.54825
 Alpha  occ. eigenvalues --   -0.54278  -0.53997  -0.53854  -0.53724  -0.53594
 Alpha  occ. eigenvalues --   -0.53438  -0.53225  -0.53071  -0.52677  -0.52598
 Alpha  occ. eigenvalues --   -0.52357  -0.52164  -0.51963  -0.51745  -0.51620
 Alpha  occ. eigenvalues --   -0.51479  -0.51287  -0.51182  -0.50740  -0.50636
 Alpha  occ. eigenvalues --   -0.50473  -0.50384  -0.50298  -0.49694  -0.49638
 Alpha  occ. eigenvalues --   -0.49283  -0.49138  -0.48872  -0.48509  -0.48379
 Alpha  occ. eigenvalues --   -0.48339  -0.48132  -0.47977  -0.47770  -0.47661
 Alpha  occ. eigenvalues --   -0.47491  -0.47281  -0.47221  -0.46990  -0.46826
 Alpha  occ. eigenvalues --   -0.46669  -0.46521  -0.46385  -0.46140  -0.46036
 Alpha  occ. eigenvalues --   -0.45671  -0.45556  -0.45412  -0.45275  -0.45181
 Alpha  occ. eigenvalues --   -0.45039  -0.44731  -0.44640  -0.44406  -0.44200
 Alpha  occ. eigenvalues --   -0.44105  -0.43887  -0.43838  -0.43363  -0.43272
 Alpha  occ. eigenvalues --   -0.42730  -0.42567  -0.42264  -0.42032  -0.41780
 Alpha  occ. eigenvalues --   -0.41691  -0.41608  -0.41254  -0.40651  -0.40422
 Alpha  occ. eigenvalues --   -0.40324  -0.40239  -0.39940  -0.39503  -0.39444
 Alpha  occ. eigenvalues --   -0.39264  -0.39009  -0.38890  -0.38640  -0.38205
 Alpha  occ. eigenvalues --   -0.37760  -0.37288  -0.37082  -0.36578  -0.36354
 Alpha  occ. eigenvalues --   -0.36204  -0.35381  -0.35366  -0.33514  -0.32772
 Alpha  occ. eigenvalues --   -0.32284  -0.32178  -0.32126  -0.31930  -0.25866
 Alpha  occ. eigenvalues --   -0.23710
 Alpha virt. eigenvalues --   -0.07719   0.00015   0.02498   0.04521   0.05489
 Alpha virt. eigenvalues --    0.06309   0.07021   0.07504   0.07903   0.09115
 Alpha virt. eigenvalues --    0.10455   0.11564   0.12236   0.12646   0.12920

 Mulliken charges:
               1
     1  Mg   0.958005
     2  C   -0.022836
     3  C   -0.083151
     4  C   -0.085056
     5  C   -0.088299
     6  N   -0.319207
     7  C    0.029803
     8  C   -0.125274
     9  C   -0.097901
    10  C    0.067617
    11  C    0.024651
    12  C    0.035824
    13  C    0.012613
    14  C    0.207028
    15  O   -0.269645
    16  O   -0.364386
    17  N   -0.482570
    18  C    0.133595
    19  C   -0.151970
    20  C   -0.116049
    21  C    0.188974
    22  C    0.074696
    23  C    0.009842
    24  O   -0.173323
    25  C   -0.003624
    26  N   -0.404591
    27  C    0.073484
    28  C   -0.121091
    29  C   -0.082346
    30  C    0.071699
    31  C    0.028774
    32  C   -0.011944
    33  C   -0.025919
    34  N   -0.393095
    35  C    0.129048
    36  C   -0.180616
    37  C   -0.040231
    38  C    0.131915
    39  C    0.089667
    40  C    0.124994
    41  O   -0.191583
    42  C   -0.113970
    43  C    0.277198
    44  O   -0.235172
    45  O   -0.364039
    46  C    0.134069
    47  C    0.247467
    48  C   -0.172615
    49  C   -0.196272
    50  C    0.020358
    51  C    0.036389
    52  C   -0.024127
    53  C   -0.024637
    54  C   -0.157585
    55  C    0.019065
    56  C   -0.004852
    57  C   -0.046478
    58  C    0.026048
    59  C   -0.219859
    60  C   -0.003798
    61  C    0.037296
    62  C   -0.046199
    63  C    0.014306
    64  C   -0.189270
    65  C   -0.011706
    66  C    0.002489
    67  H    0.010099
    68  H   -0.013609
    69  H    0.001949
    70  H    0.051265
    71  H    0.038149
    72  H    0.051322
    73  H    0.038581
    74  H    0.052979
    75  H    0.046887
    76  H    0.043744
    77  H    0.055677
    78  H    0.049667
    79  H    0.059091
    80  H    0.035738
    81  H    0.064625
    82  H    0.056999
    83  H    0.047963
    84  H    0.059239
    85  H    0.029850
    86  H    0.019142
    87  H    0.045683
    88  H    0.043846
    89  H    0.036380
    90  H    0.028071
    91  H    0.029235
    92  H    0.041536
    93  H    0.053245
    94  H    0.026572
    95  H    0.055346
    96  H    0.053385
    97  H    0.029318
    98  H    0.069866
    99  H    0.047238
   100  H    0.055976
   101  H    0.043129
   102  H    0.040072
   103  H    0.059454
   104  H    0.013998
   105  H    0.056183
   106  H    0.030296
   107  H    0.055798
   108  H    0.044621
   109  H    0.015073
   110  H    0.032404
   111  H    0.030284
   112  H    0.030566
   113  H    0.017471
   114  H    0.020243
   115  H    0.033965
   116  H    0.012497
   117  H    0.022326
   118  H    0.013330
   119  H    0.014116
   120  H    0.041120
   121  H    0.023442
   122  H    0.010977
   123  H    0.031355
   124  H    0.028552
   125  H    0.021357
   126  H    0.029576
   127  H    0.030797
   128  H   -0.009061
   129  H    0.000863
   130  H    0.014883
   131  H    0.002210
   132  H    0.018977
   133  H    0.017053
   134  H    0.026843
   135  H    0.024412
   136  H    0.025028
   137  H    0.024503
   138  H    0.028907
   139  H    0.028502
   140  H    0.017201
 Sum of Mulliken charges =  -0.00000

 Dipole moment (field-independent basis, Debye):
    X=              0.2498    Y=             -2.4122    Z=              1.6276  Tot=              2.9206
 Quadrupole moment (field-independent basis, Debye-Ang):
   XX=           -383.9657   YY=           -399.0921   ZZ=           -416.6678
   XY=              9.6659   XZ=             -5.3269   YZ=            -31.7655

 Normal termination of Gaussian 16 at Wed Apr 27 02:23:03 2022.
