 Gaussian 16, Revision A.03,
 Gaussian 16:  ES64L-G16RevA.03 25-Dec-2016

 --------------------
 #p ZINDO=(nstates=5)
 --------------------

 ----------------------------
 step_101_chromophore_8 ZINDO
 ----------------------------
 Symbolic Z-matrix:
 Charge =  0 Multiplicity = 1

                         Standard orientation:
 ---------------------------------------------------------------------
 Center     Atomic      Atomic             Coordinates (Angstroms)
 Number     Number       Type             X           Y           Z
 ---------------------------------------------------------------------
      1         12           0       -4.776264   -1.000886    0.072315
      2          6           0       -3.849811    2.350353    0.936975
      3          6           0       -3.903327   -0.347670   -3.094494
      4          6           0       -5.488922   -4.152182   -0.491122
      5          6           0       -4.773926   -1.647841    3.590555
      6          7           0       -3.938678    0.849162   -0.990185
      7          6           0       -3.608706    2.052511   -0.447916
      8          6           0       -3.096900    3.041659   -1.494022
      9          6           0       -3.333583    2.257806   -2.822546
     10          6           0       -3.577185    0.771532   -2.291437
     11          6           0       -4.600596    2.836665   -3.626568
     12          6           0       -1.510392    3.298561   -1.208388
     13          6           0       -1.091409    4.702663   -1.407975
     14          6           0        0.303637    4.966809   -2.077160
     15          8           0        0.508882    5.277210   -3.257747
     16          8           0        1.287769    4.825401   -1.099647
     17          7           0       -4.746776   -2.172983   -1.606427
     18          6           0       -4.373641   -1.717939   -2.837024
     19          6           0       -4.424574   -2.797097   -3.836391
     20          6           0       -4.991783   -3.929929   -3.069238
     21          6           0       -5.181701   -3.474784   -1.696534
     22          6           0       -3.901366   -2.718428   -5.225095
     23          6           0       -5.418095   -5.257322   -3.693956
     24          8           0       -5.184793   -5.528243   -4.797407
     25          6           0       -6.148976   -6.276584   -2.892765
     26          7           0       -4.761687   -2.670428    1.305596
     27          6           0       -5.440568   -3.753468    0.826591
     28          6           0       -5.776453   -4.735852    1.943914
     29          6           0       -5.003821   -4.216525    3.193044
     30          6           0       -4.733271   -2.747256    2.711701
     31          6           0       -7.345729   -4.874682    2.149853
     32          6           0       -3.685168   -4.990045    3.460999
     33          6           0       -3.742626   -6.461675    4.011535
     34          7           0       -4.567234    0.092684    1.903713
     35          6           0       -4.700702   -0.275471    3.230377
     36          6           0       -4.531290    0.807749    4.117141
     37          6           0       -4.236588    1.900279    3.253543
     38          6           0       -4.291656    1.390032    1.923579
     39          6           0       -4.563034    0.785769    5.602375
     40          6           0       -3.979914    3.334843    3.144741
     41          8           0       -3.993424    4.192542    3.998722
     42          6           0       -3.725261    3.731663    1.600411
     43          6           0       -4.855079    4.598726    1.114592
     44          8           0       -5.813266    4.195495    0.514153
     45          8           0       -4.589199    5.952908    1.206471
     46          6           0       -5.588355    6.772840    0.470348
     47          6           0        2.650071    4.979180   -1.635093
     48          6           0        3.445165    3.797113   -1.091248
     49          6           0        4.069248    3.614338    0.070514
     50          6           0        4.054341    4.530852    1.260265
     51          6           0        4.737933    2.255334    0.400593
     52          6           0        5.654064    1.531690   -0.642647
     53          6           0        5.044322    0.330534   -1.521561
     54          6           0        5.959190   -0.906366   -1.815967
     55          6           0        5.210774   -2.010459   -2.517819
     56          6           0        6.807140   -1.428232   -0.543505
     57          6           0        8.372116   -1.342086   -0.905936
     58          6           0        9.278088   -0.501952    0.086068
     59          6           0       10.576688   -1.359082    0.317785
     60          6           0       10.522375   -2.115970    1.651013
     61          6           0       11.780649   -0.424277    0.451840
     62          6           0       12.971700   -0.826154   -0.294913
     63          6           0       14.307953   -0.780655    0.529105
     64          6           0       14.686311   -2.156377    1.124699
     65          6           0       15.696465   -2.922872    0.256068
     66          6           0       15.176730   -2.025803    2.565980
     67          1           0       -3.764209   -0.153031   -4.159951
     68          1           0       -5.862184   -5.174811   -0.581400
     69          1           0       -4.920612   -1.891651    4.644836
     70          1           0       -3.668305    3.969087   -1.460925
     71          1           0       -2.440974    2.305664   -3.445396
     72          1           0       -4.267905    3.104902   -4.629030
     73          1           0       -4.937598    3.733521   -3.106966
     74          1           0       -5.416931    2.114469   -3.592767
     75          1           0       -0.868588    2.638844   -1.791277
     76          1           0       -1.385481    3.065214   -0.150715
     77          1           0       -1.047729    5.128641   -0.405869
     78          1           0       -1.806878    5.291604   -1.981513
     79          1           0       -3.471677   -3.675267   -5.523336
     80          1           0       -3.042374   -2.049819   -5.161898
     81          1           0       -4.620295   -2.398303   -5.978112
     82          1           0       -5.323350   -6.705538   -2.324814
     83          1           0       -6.553661   -7.145814   -3.410298
     84          1           0       -6.908479   -5.714526   -2.348274
     85          1           0       -5.352085   -5.675861    1.589723
     86          1           0       -5.639773   -4.173946    4.076864
     87          1           0       -7.681423   -4.993248    3.179804
     88          1           0       -7.788890   -5.650593    1.523926
     89          1           0       -7.651603   -3.908038    1.751673
     90          1           0       -3.139208   -4.241797    4.034869
     91          1           0       -3.185818   -5.086810    2.496678
     92          1           0       -3.640635   -6.575386    5.091112
     93          1           0       -3.028347   -7.072067    3.460148
     94          1           0       -4.788282   -6.728096    3.850507
     95          1           0       -5.299666    1.477513    6.011048
     96          1           0       -3.617064    1.206878    5.941132
     97          1           0       -4.722834   -0.187399    6.068316
     98          1           0       -2.837333    4.344578    1.446855
     99          1           0       -6.422338    7.177567    1.044534
    100          1           0       -6.116217    6.336641   -0.377754
    101          1           0       -5.146663    7.687662    0.074682
    102          1           0        3.107142    5.909582   -1.296187
    103          1           0        2.770694    4.965024   -2.718918
    104          1           0        3.436949    2.984542   -1.818578
    105          1           0        3.745018    4.099792    2.212561
    106          1           0        3.251413    5.225683    1.012885
    107          1           0        4.975032    5.113100    1.287630
    108          1           0        3.843595    1.679609    0.636275
    109          1           0        5.227995    2.438844    1.357601
    110          1           0        6.503259    1.152790   -0.075018
    111          1           0        5.954369    2.252368   -1.402444
    112          1           0        4.646810    0.839117   -2.400146
    113          1           0        4.218501   -0.129868   -0.980153
    114          1           0        6.688928   -0.652329   -2.584074
    115          1           0        5.535373   -3.011135   -2.231871
    116          1           0        5.473134   -1.925644   -3.571877
    117          1           0        4.139230   -1.815300   -2.564900
    118          1           0        6.530518   -2.449252   -0.278254
    119          1           0        6.583236   -0.975064    0.421936
    120          1           0        8.596441   -1.056168   -1.933738
    121          1           0        8.772355   -2.331488   -0.688242
    122          1           0        8.778522   -0.406564    1.050156
    123          1           0        9.544396    0.498915   -0.256400
    124          1           0       10.811450   -2.101610   -0.444364
    125          1           0        9.897752   -2.987144    1.456512
    126          1           0       10.192590   -1.371053    2.375734
    127          1           0       11.431863   -2.528849    2.088942
    128          1           0       12.178544   -0.349569    1.464098
    129          1           0       11.487420    0.608356    0.265318
    130          1           0       13.056959   -0.209867   -1.190305
    131          1           0       12.722568   -1.828124   -0.644079
    132          1           0       14.199167   -0.007574    1.289661
    133          1           0       15.017351   -0.464552   -0.235234
    134          1           0       13.788043   -2.773819    1.100092
    135          1           0       15.330454   -3.940199    0.123408
    136          1           0       16.701099   -2.983769    0.674172
    137          1           0       15.887710   -2.588919   -0.763288
    138          1           0       14.723155   -2.758293    3.233333
    139          1           0       15.076157   -1.048142    3.036125
    140          1           0       16.244941   -2.241947    2.572892
 ---------------------------------------------------------------------

 SCF Done:  E(RZINDO/S) =  -474.020324780     A.U. after   20 cycles

 Excitation energies and oscillator strengths:

 Excited State   1:      Singlet-A      1.2549 eV  987.97 nm  f=0.5581  <S**2>=0.000
     175 ->178        -0.20672
     176 ->177         0.65938
 This state for optimization and/or second-order correction.
 Total Energy, E(CIS/TDA) =  -473.974206482
 Copying the excited state density for this state as the 1-particle RhoCI density.

 Excited State   2:      Singlet-A      1.7930 eV  691.49 nm  f=0.1192  <S**2>=0.000
     175 ->177         0.59247
     176 ->178         0.35669

 Excited State   3:      Singlet-A      3.0176 eV  410.88 nm  f=0.0071  <S**2>=0.000
     168 ->177        -0.12008
     168 ->179        -0.16793
     169 ->179        -0.16473
     169 ->181        -0.10833
     169 ->185        -0.13229
     170 ->177         0.27688
     170 ->179        -0.18790
     170 ->181        -0.24623
     170 ->182         0.15156
     170 ->184         0.10323
     170 ->185        -0.18076
     170 ->187        -0.17037

 Excited State   4:      Singlet-A      3.0222 eV  410.24 nm  f=0.1317  <S**2>=0.000
     168 ->177         0.26488
     168 ->179         0.29891
     168 ->181        -0.18502
     168 ->184         0.13158
     168 ->185         0.15002
     168 ->199        -0.10858
     169 ->177         0.13335
     169 ->181        -0.11377
     170 ->179        -0.16269
     170 ->185        -0.12069
     175 ->177        -0.11405
     176 ->178         0.20341
     176 ->179         0.17101

 Excited State   5:      Singlet-A      3.0407 eV  407.74 nm  f=0.7560  <S**2>=0.000
     168 ->177        -0.13697
     168 ->179        -0.15412
     171 ->177         0.22842
     174 ->177        -0.11646
     175 ->177        -0.26922
     176 ->178         0.49615

 The electronic state is 1-A.
 Alpha  occ. eigenvalues --   -1.83653  -1.81127  -1.78791  -1.72644  -1.71712
 Alpha  occ. eigenvalues --   -1.70306  -1.66844  -1.63843  -1.58988  -1.58283
 Alpha  occ. eigenvalues --   -1.54430  -1.51473  -1.49073  -1.47402  -1.45370
 Alpha  occ. eigenvalues --   -1.44193  -1.41879  -1.39162  -1.38829  -1.36334
 Alpha  occ. eigenvalues --   -1.34625  -1.33649  -1.32132  -1.30837  -1.28678
 Alpha  occ. eigenvalues --   -1.27495  -1.26978  -1.23088  -1.21599  -1.17485
 Alpha  occ. eigenvalues --   -1.16452  -1.15452  -1.14569  -1.13667  -1.13451
 Alpha  occ. eigenvalues --   -1.12699  -1.10385  -1.09488  -1.06055  -1.04829
 Alpha  occ. eigenvalues --   -1.02116  -1.01042  -0.98719  -0.97496  -0.96963
 Alpha  occ. eigenvalues --   -0.95742  -0.93999  -0.93399  -0.92725  -0.92409
 Alpha  occ. eigenvalues --   -0.91473  -0.90592  -0.89267  -0.88731  -0.87913
 Alpha  occ. eigenvalues --   -0.86622  -0.85020  -0.83348  -0.81905  -0.79265
 Alpha  occ. eigenvalues --   -0.78807  -0.78007  -0.77709  -0.76401  -0.76203
 Alpha  occ. eigenvalues --   -0.75624  -0.75205  -0.74518  -0.74151  -0.73672
 Alpha  occ. eigenvalues --   -0.73346  -0.73193  -0.71634  -0.71127  -0.70804
 Alpha  occ. eigenvalues --   -0.70505  -0.69364  -0.69275  -0.68394  -0.68199
 Alpha  occ. eigenvalues --   -0.67358  -0.66927  -0.66733  -0.66651  -0.65505
 Alpha  occ. eigenvalues --   -0.65281  -0.64716  -0.64384  -0.63924  -0.63629
 Alpha  occ. eigenvalues --   -0.63530  -0.63019  -0.62295  -0.61947  -0.61627
 Alpha  occ. eigenvalues --   -0.61411  -0.61264  -0.61228  -0.60934  -0.59659
 Alpha  occ. eigenvalues --   -0.59596  -0.58862  -0.58472  -0.58393  -0.58178
 Alpha  occ. eigenvalues --   -0.57833  -0.57508  -0.57206  -0.56879  -0.56209
 Alpha  occ. eigenvalues --   -0.55949  -0.55607  -0.55518  -0.54855  -0.54635
 Alpha  occ. eigenvalues --   -0.54320  -0.54047  -0.53681  -0.53078  -0.52611
 Alpha  occ. eigenvalues --   -0.52471  -0.52412  -0.52176  -0.52013  -0.51541
 Alpha  occ. eigenvalues --   -0.51028  -0.50928  -0.50658  -0.50571  -0.50431
 Alpha  occ. eigenvalues --   -0.50043  -0.49395  -0.49307  -0.49021  -0.48800
 Alpha  occ. eigenvalues --   -0.48731  -0.48606  -0.48344  -0.48260  -0.47814
 Alpha  occ. eigenvalues --   -0.47515  -0.47209  -0.47144  -0.47129  -0.46976
 Alpha  occ. eigenvalues --   -0.46790  -0.46382  -0.46035  -0.46017  -0.45747
 Alpha  occ. eigenvalues --   -0.45527  -0.45351  -0.45199  -0.44698  -0.44403
 Alpha  occ. eigenvalues --   -0.43533  -0.43275  -0.43036  -0.42790  -0.42363
 Alpha  occ. eigenvalues --   -0.41890  -0.41266  -0.41074  -0.39446  -0.38874
 Alpha  occ. eigenvalues --   -0.38345  -0.37595  -0.35146  -0.34579  -0.34307
 Alpha  occ. eigenvalues --   -0.32822  -0.32724  -0.32652  -0.32080  -0.26172
 Alpha  occ. eigenvalues --   -0.22479
 Alpha virt. eigenvalues --   -0.09049  -0.02283  -0.00378   0.01220   0.01297
 Alpha virt. eigenvalues --    0.01995   0.02336   0.02646   0.04754   0.05091
 Alpha virt. eigenvalues --    0.05917   0.06838   0.06978   0.07766   0.08000

 Mulliken charges:
               1
     1  Mg   0.433066
     2  C   -0.038702
     3  C   -0.068365
     4  C   -0.080467
     5  C   -0.061506
     6  N   -0.262608
     7  C    0.116867
     8  C   -0.000862
     9  C    0.001798
    10  C    0.114701
    11  C   -0.052860
    12  C   -0.019586
    13  C    0.010359
    14  C    0.458436
    15  O   -0.511104
    16  O   -0.258965
    17  N   -0.320407
    18  C    0.111482
    19  C    0.040275
    20  C   -0.064967
    21  C    0.129399
    22  C   -0.027384
    23  C    0.335341
    24  O   -0.507969
    25  C   -0.032430
    26  N   -0.287030
    27  C    0.153213
    28  C    0.002318
    29  C    0.002693
    30  C    0.092698
    31  C   -0.057591
    32  C   -0.032779
    33  C   -0.059086
    34  N   -0.315460
    35  C    0.091984
    36  C    0.031023
    37  C   -0.066495
    38  C    0.117247
    39  C   -0.035529
    40  C    0.331704
    41  O   -0.517010
    42  C    0.050068
    43  C    0.486263
    44  O   -0.513765
    45  O   -0.260564
    46  C    0.070307
    47  C    0.101897
    48  C   -0.088314
    49  C    0.000029
    50  C   -0.043921
    51  C   -0.031584
    52  C   -0.039676
    53  C   -0.037271
    54  C   -0.009479
    55  C   -0.058030
    56  C   -0.043367
    57  C   -0.049768
    58  C   -0.038357
    59  C   -0.015588
    60  C   -0.059503
    61  C   -0.038002
    62  C   -0.039040
    63  C   -0.035283
    64  C    0.001831
    65  C   -0.057107
    66  C   -0.056684
    67  H    0.019655
    68  H    0.016700
    69  H    0.027566
    70  H    0.045838
    71  H    0.030131
    72  H    0.026536
    73  H    0.025246
    74  H    0.032930
    75  H    0.034745
    76  H    0.022752
    77  H    0.033257
    78  H    0.037151
    79  H    0.037130
    80  H    0.022299
    81  H    0.046077
    82  H    0.040571
    83  H    0.039142
    84  H    0.034980
    85  H    0.025379
    86  H    0.028030
    87  H    0.028811
    88  H    0.022262
    89  H    0.023824
    90  H    0.023070
    91  H    0.018629
    92  H    0.024290
    93  H    0.030419
    94  H    0.017642
    95  H    0.034301
    96  H    0.030891
    97  H    0.023552
    98  H    0.062487
    99  H    0.040465
   100  H    0.046736
   101  H    0.023641
   102  H    0.037816
   103  H    0.054867
   104  H    0.022430
   105  H    0.035923
   106  H    0.011469
   107  H    0.034708
   108  H    0.026849
   109  H    0.018234
   110  H    0.023467
   111  H    0.021928
   112  H    0.024321
   113  H    0.015828
   114  H    0.018886
   115  H    0.027181
   116  H    0.005558
   117  H    0.023458
   118  H    0.016219
   119  H    0.025132
   120  H    0.033284
   121  H    0.018521
   122  H    0.022126
   123  H    0.026413
   124  H    0.030169
   125  H    0.011630
   126  H    0.022274
   127  H    0.016230
   128  H    0.011293
   129  H    0.009763
   130  H    0.010030
   131  H    0.017710
   132  H    0.024945
   133  H    0.015920
   134  H    0.021799
   135  H    0.010958
   136  H    0.017962
   137  H    0.016753
   138  H    0.015677
   139  H    0.020312
   140  H    0.014284
 Sum of Mulliken charges =  -0.00000

 Dipole moment (field-independent basis, Debye):
    X=              0.1333    Y=             -3.4259    Z=              2.3723  Tot=              4.1692
 N-N= 4.336432432940D+03 E-N= 0.000000000000D+00  KE=-9.346717253886D+03
 Leave Link  601 at Wed Apr 27 02:36:30 2022, MaxMem=  6710886400 cpu:               2.6 elap:               0.1
 (Enter /sw/apps/gaussian-16.0/g16/l9999.exe)
 1\1\GINC-BP1-COMPUTE154\SP\RZINDO CIS\STO-3G\C55H74Mg1N4O6\OF15641\27-
 Apr-2022\0\\#p ZINDO=(nstates=5)\\step_101_chromophore_8 ZINDO\\0,1\Mg
 ,0,45.,2.97,46.565\C,0,42.675,5.665,46.155\C,0,42.499,0.82,45.982\C,0,
 47.305,0.647,46.781\C,0,47.556,5.455,46.268\N,0,42.77,3.223,46.1\C,0,4
 2.07,4.379,45.943\C,0,40.59,4.129,45.657\C,0,40.484,2.582,45.833\C,0,4
 2.018,2.139,45.801\C,0,39.764,2.198,47.219\C,0,40.29,4.593,44.121\C,0,
 38.985,5.267,43.949\C,0,38.157,4.949,42.654\O,0,37.191,4.18,42.566\O,0

 Normal termination of Gaussian 16 at Wed Apr 27 02:36:31 2022.
