 Gaussian 16, Revision A.03,
 Gaussian 16:  ES64L-G16RevA.03 25-Dec-2016

 ------------------------------
 #p blyp/Def2SVP td=(nstates=5)
 ------------------------------

 --------------------------------------------------
 step_451_chromophore_19 TDDFT with blyp functional
 --------------------------------------------------
 Symbolic Z-matrix:
 Charge =  0 Multiplicity = 1

                         Standard orientation:
 ---------------------------------------------------------------------
 Center     Atomic      Atomic             Coordinates (Angstroms)
 Number     Number       Type             X           Y           Z
 ---------------------------------------------------------------------
      1         12           0       -5.900074    0.302177   -0.299653
      2          6           0       -3.288377   -2.030072    0.090596
      3          6           0       -3.537069    2.878035   -0.053294
      4          6           0       -8.469982    2.556909   -0.176349
      5          6           0       -8.167938   -2.324179   -0.218159
      6          7           0       -3.700236    0.434503   -0.076355
      7          6           0       -2.816604   -0.711011    0.058084
      8          6           0       -1.391431   -0.235965    0.159138
      9          6           0       -1.441649    1.350624   -0.104299
     10          6           0       -3.002466    1.580499   -0.089199
     11          6           0       -0.652565    2.292425    0.907043
     12          6           0       -0.430572   -0.921209   -0.778956
     13          6           0        1.114220   -0.497908   -0.762341
     14          6           0        2.219467   -1.544279   -0.407398
     15          8           0        2.033422   -2.526786    0.203131
     16          8           0        3.495024   -1.076602   -0.706369
     17          7           0       -6.005989    2.397016   -0.159439
     18          6           0       -4.887901    3.258745   -0.164878
     19          6           0       -5.430622    4.680210   -0.133425
     20          6           0       -6.867826    4.596037   -0.048914
     21          6           0       -7.196234    3.132510   -0.193707
     22          6           0       -4.498964    5.848741   -0.133251
     23          6           0       -7.859996    5.736331    0.146934
     24          8           0       -9.041402    5.513704    0.247392
     25          6           0       -7.342745    7.111059    0.296702
     26          7           0       -8.091720    0.151691    0.102231
     27          6           0       -8.924254    1.248882   -0.045583
     28          6           0      -10.395473    0.820372   -0.282545
     29          6           0      -10.291752   -0.716531   -0.318510
     30          6           0       -8.767732   -1.023669   -0.092435
     31          6           0      -11.356355    1.332033    0.823641
     32          6           0      -10.770022   -1.276925   -1.598086
     33          6           0      -11.246901   -2.745538   -1.518914
     34          7           0       -5.816690   -1.759388   -0.174219
     35          6           0       -6.837306   -2.681356   -0.183316
     36          6           0       -6.194427   -3.973357   -0.319634
     37          6           0       -4.838402   -3.796676   -0.176044
     38          6           0       -4.662881   -2.413850   -0.154795
     39          6           0       -7.049468   -5.250314   -0.434168
     40          6           0       -3.619473   -4.511950    0.044453
     41          8           0       -3.438529   -5.701850    0.107889
     42          6           0       -2.616351   -3.351229    0.253090
     43          6           0       -2.066801   -3.499223    1.614861
     44          8           0       -2.750341   -3.411421    2.635281
     45          8           0       -0.699013   -3.855732    1.606809
     46          6           0       -0.094237   -4.137786    2.897559
     47          6           0        4.563071   -2.045264   -0.417829
     48          6           0        5.948250   -1.434566   -0.471841
     49          6           0        6.680262   -0.550291    0.236275
     50          6           0        6.184609    0.330333    1.365429
     51          6           0        8.132353   -0.325506   -0.172842
     52          6           0        8.334166    0.671940   -1.318612
     53          6           0        9.102021    0.193997   -2.554266
     54          6           0       10.406451    0.893980   -3.022864
     55          6           0       10.053447    1.874507   -4.138653
     56          6           0       11.598218   -0.016601   -3.428583
     57          6           0       12.903311    0.285324   -2.569103
     58          6           0       13.275103   -0.865907   -1.561504
     59          6           0       13.335742   -0.345506   -0.072957
     60          6           0       14.477535   -1.080082    0.755908
     61          6           0       11.977118   -0.093456    0.605448
     62          6           0       11.570827    1.373125    0.749135
     63          6           0       11.826673    2.028574    2.067762
     64          6           0       10.759290    1.671589    3.056363
     65          6           0        9.500213    2.586671    2.874907
     66          6           0       11.229519    1.840950    4.534337
     67          1           0       -2.775670    3.657409    0.009897
     68          1           0       -9.396331    3.135769   -0.157562
     69          1           0       -8.936649   -3.096641   -0.146581
     70          1           0       -0.984131   -0.300688    1.167865
     71          1           0       -1.048953    1.561580   -1.098731
     72          1           0       -1.393231    2.760911    1.555310
     73          1           0       -0.055069    3.004677    0.339049
     74          1           0        0.100562    1.730661    1.459049
     75          1           0       -0.751215   -0.621658   -1.776831
     76          1           0       -0.445736   -1.998320   -0.613534
     77          1           0        1.309628    0.232465    0.022946
     78          1           0        1.384731   -0.047856   -1.717475
     79          1           0       -4.623526    6.420321   -1.052863
     80          1           0       -3.439644    5.595862   -0.191386
     81          1           0       -4.676358    6.480062    0.736779
     82          1           0       -6.850650    7.277119   -0.661052
     83          1           0       -6.857838    7.154434    1.272737
     84          1           0       -8.208133    7.769242    0.224173
     85          1           0      -10.628730    1.174255   -1.287176
     86          1           0      -10.807047   -1.128993    0.548967
     87          1           0      -10.822065    1.842226    1.624700
     88          1           0      -11.882017    0.507779    1.304593
     89          1           0      -12.126558    1.905413    0.305819
     90          1           0       -9.905137   -1.346920   -2.258047
     91          1           0      -11.638807   -0.779867   -2.029251
     92          1           0      -11.493182   -2.914448   -0.471044
     93          1           0      -10.432599   -3.425670   -1.767956
     94          1           0      -12.162661   -2.959366   -2.071323
     95          1           0       -7.819145   -5.266233   -1.206581
     96          1           0       -7.401960   -5.528926    0.558227
     97          1           0       -6.368797   -6.035101   -0.765156
     98          1           0       -1.732377   -3.592429   -0.337724
     99          1           0        0.217206   -5.182839    2.882676
    100          1           0       -0.682566   -3.993191    3.803247
    101          1           0        0.770679   -3.478066    2.962812
    102          1           0        4.465832   -2.988031   -0.955702
    103          1           0        4.389570   -2.473144    0.569716
    104          1           0        6.505167   -1.940713   -1.259273
    105          1           0        6.719653    1.280203    1.376268
    106          1           0        6.309271   -0.129647    2.345168
    107          1           0        5.123879    0.557757    1.253909
    108          1           0        8.465302   -1.350315   -0.339990
    109          1           0        8.667806    0.034760    0.706015
    110          1           0        8.865966    1.517730   -0.882782
    111          1           0        7.379114    1.154896   -1.520490
    112          1           0        8.385564    0.373054   -3.356111
    113          1           0        9.368018   -0.835072   -2.313547
    114          1           0       10.777794    1.478969   -2.181323
    115          1           0        9.750064    1.356992   -5.049360
    116          1           0       10.984365    2.411759   -4.321223
    117          1           0        9.275146    2.566646   -3.816908
    118          1           0       11.817434    0.074700   -4.492269
    119          1           0       11.343519   -1.044808   -3.171251
    120          1           0       12.897925    1.171741   -1.934687
    121          1           0       13.778337    0.449232   -3.197874
    122          1           0       14.307376   -1.196719   -1.681323
    123          1           0       12.601876   -1.711260   -1.699410
    124          1           0       13.837066    0.622390   -0.072069
    125          1           0       15.466687   -0.669149    0.555981
    126          1           0       14.465991   -2.133356    0.475322
    127          1           0       14.244538   -1.049256    1.820211
    128          1           0       12.069828   -0.503934    1.611292
    129          1           0       11.230390   -0.625722    0.015366
    130          1           0       10.493154    1.383644    0.587509
    131          1           0       11.973709    2.045491   -0.008244
    132          1           0       11.751982    3.063021    1.733903
    133          1           0       12.827407    1.800964    2.433989
    134          1           0       10.504312    0.615998    2.959350
    135          1           0        8.719234    1.889515    3.175215
    136          1           0        9.368915    2.901271    1.838807
    137          1           0        9.584417    3.479413    3.495057
    138          1           0       12.251852    2.217184    4.480085
    139          1           0       11.224340    0.837657    4.960121
    140          1           0       10.618658    2.484596    5.166772
 ---------------------------------------------------------------------

 SCF Done:  E(RB-LYP) =  -3007.36094499     A.U. after   20 cycles

 Excitation energies and oscillator strengths:

 Excited State   1:      Singlet-A      1.7597 eV  704.56 nm  f=0.2807  <S**2>=0.000
     245 -> 248       -0.18007
     246 -> 247        0.69289
     246 <- 247       -0.15657
 This state for optimization and/or second-order correction.
 Total Energy, E(TD-HF/TD-DFT) =  -3007.29627599
 Copying the excited state density for this state as the 1-particle RhoCI density.

 Excited State   2:      Singlet-A      1.9891 eV  623.32 nm  f=0.0223  <S**2>=0.000
     244 -> 247        0.59143
     245 -> 247        0.35643
     246 -> 248        0.13497

 Excited State   3:      Singlet-A      2.0559 eV  603.06 nm  f=0.0378  <S**2>=0.000
     244 -> 247       -0.38093
     245 -> 247        0.51923
     246 -> 248        0.26295

 Excited State   4:      Singlet-A      2.1230 eV  584.01 nm  f=0.0008  <S**2>=0.000
     243 -> 247        0.70440

 Excited State   5:      Singlet-A      2.4489 eV  506.28 nm  f=0.0004  <S**2>=0.000
     242 -> 247        0.70573

 The electronic state is 1-A.
 Alpha  occ. eigenvalues --  -46.27368 -18.81548 -18.81165 -18.77421 -18.75930
 Alpha  occ. eigenvalues --  -18.75886 -18.75512 -14.03529 -14.02786 -14.01652
 Alpha  occ. eigenvalues --  -14.00621 -10.04051 -10.03125  -9.99620  -9.99382
 Alpha  occ. eigenvalues --   -9.97641  -9.97070  -9.96793  -9.96524  -9.96494
 Alpha  occ. eigenvalues --   -9.96490  -9.96234  -9.95972  -9.94789  -9.94746
 Alpha  occ. eigenvalues --   -9.94636  -9.94284  -9.94247  -9.94085  -9.94067
 Alpha  occ. eigenvalues --   -9.93518  -9.93406  -9.93321  -9.93307  -9.93281
 Alpha  occ. eigenvalues --   -9.93236  -9.93146  -9.93064  -9.92977  -9.92914
 Alpha  occ. eigenvalues --   -9.92790  -9.92174  -9.92108  -9.92103  -9.92066
 Alpha  occ. eigenvalues --   -9.91982  -9.91961  -9.91897  -9.91707  -9.91699
 Alpha  occ. eigenvalues --   -9.91671  -9.91655  -9.91648  -9.91605  -9.91426
 Alpha  occ. eigenvalues --   -9.91416  -9.91363  -9.91360  -9.91173  -9.91114
 Alpha  occ. eigenvalues --   -9.91069  -9.90946  -9.90819  -9.90811  -9.90750
 Alpha  occ. eigenvalues --   -9.90054  -2.91853  -1.72280  -1.71738  -1.71564
 Alpha  occ. eigenvalues --   -0.98839  -0.95732  -0.92522  -0.92262  -0.90966
 Alpha  occ. eigenvalues --   -0.88566  -0.86699  -0.84628  -0.84496  -0.82960
 Alpha  occ. eigenvalues --   -0.76028  -0.73872  -0.73513  -0.72806  -0.72641
 Alpha  occ. eigenvalues --   -0.72161  -0.71500  -0.70826  -0.70444  -0.70243
 Alpha  occ. eigenvalues --   -0.69329  -0.68534  -0.67801  -0.67573  -0.67202
 Alpha  occ. eigenvalues --   -0.66473  -0.66372  -0.65397  -0.64691  -0.64543
 Alpha  occ. eigenvalues --   -0.64233  -0.62605  -0.62395  -0.61290  -0.60590
 Alpha  occ. eigenvalues --   -0.60378  -0.60129  -0.60076  -0.59654  -0.59110
 Alpha  occ. eigenvalues --   -0.58210  -0.57535  -0.56665  -0.55828  -0.54398
 Alpha  occ. eigenvalues --   -0.53897  -0.53763  -0.52802  -0.52206  -0.51503
 Alpha  occ. eigenvalues --   -0.51303  -0.50984  -0.50622  -0.50348  -0.50046
 Alpha  occ. eigenvalues --   -0.49427  -0.49233  -0.47747  -0.47699  -0.46127
 Alpha  occ. eigenvalues --   -0.46049  -0.45980  -0.45647  -0.45162  -0.44375
 Alpha  occ. eigenvalues --   -0.43713  -0.43644  -0.42958  -0.42720  -0.42198
 Alpha  occ. eigenvalues --   -0.41991  -0.41879  -0.41750  -0.41536  -0.41362
 Alpha  occ. eigenvalues --   -0.41029  -0.40911  -0.40630  -0.40486  -0.39767
 Alpha  occ. eigenvalues --   -0.39686  -0.39509  -0.39334  -0.39155  -0.39008
 Alpha  occ. eigenvalues --   -0.38851  -0.38678  -0.38550  -0.38467  -0.38337
 Alpha  occ. eigenvalues --   -0.38175  -0.38051  -0.37923  -0.37891  -0.37227
 Alpha  occ. eigenvalues --   -0.36967  -0.36957  -0.36856  -0.36686  -0.36559
 Alpha  occ. eigenvalues --   -0.36230  -0.36156  -0.36066  -0.35968  -0.35541
 Alpha  occ. eigenvalues --   -0.35433  -0.35118  -0.34982  -0.34827  -0.34690
 Alpha  occ. eigenvalues --   -0.34454  -0.34321  -0.34128  -0.34045  -0.33761
 Alpha  occ. eigenvalues --   -0.33716  -0.33642  -0.33475  -0.33356  -0.33097
 Alpha  occ. eigenvalues --   -0.33013  -0.32650  -0.32564  -0.32419  -0.32331
 Alpha  occ. eigenvalues --   -0.32035  -0.31940  -0.31567  -0.31565  -0.31296
 Alpha  occ. eigenvalues --   -0.31220  -0.31022  -0.30943  -0.30835  -0.30742
 Alpha  occ. eigenvalues --   -0.30617  -0.30327  -0.30264  -0.30186  -0.29949
 Alpha  occ. eigenvalues --   -0.29570  -0.29147  -0.29056  -0.28974  -0.28799
 Alpha  occ. eigenvalues --   -0.28773  -0.28263  -0.27924  -0.27807  -0.27777
 Alpha  occ. eigenvalues --   -0.27483  -0.27461  -0.26887  -0.26455  -0.26288
 Alpha  occ. eigenvalues --   -0.26067  -0.25798  -0.25782  -0.25254  -0.25189
 Alpha  occ. eigenvalues --   -0.24826  -0.24368  -0.24272  -0.23834  -0.23662
 Alpha  occ. eigenvalues --   -0.23068  -0.22767  -0.22125  -0.21002  -0.20805
 Alpha  occ. eigenvalues --   -0.20438  -0.20394  -0.19101  -0.18688  -0.17459
 Alpha  occ. eigenvalues --   -0.15478
 Alpha virt. eigenvalues --   -0.11395  -0.07051  -0.05975  -0.04494  -0.03041
 Alpha virt. eigenvalues --   -0.02499  -0.02214  -0.01861  -0.01650   0.00237
 Alpha virt. eigenvalues --    0.01555   0.01715   0.01940   0.02373   0.02694

 Mulliken charges:
               1
     1  Mg   0.679861
     2  C    0.082443
     3  C   -0.057233
     4  C    0.003104
     5  C   -0.077221
     6  N   -0.230879
     7  C   -0.032325
     8  C    0.054667
     9  C   -0.053248
    10  C    0.018199
    11  C    0.117616
    12  C    0.115579
    13  C    0.086149
    14  C    0.055814
    15  O   -0.135132
    16  O   -0.284950
    17  N   -0.317606
    18  C    0.165854
    19  C   -0.152750
    20  C    0.019840
    21  C    0.158036
    22  C    0.179401
    23  C   -0.128661
    24  O   -0.141579
    25  C    0.180247
    26  N   -0.210339
    27  C   -0.080125
    28  C    0.008797
    29  C    0.051098
    30  C   -0.036784
    31  C    0.144048
    32  C    0.095547
    33  C    0.057725
    34  N   -0.257371
    35  C    0.140454
    36  C   -0.192352
    37  C    0.083369
    38  C    0.055236
    39  C    0.159059
    40  C   -0.027620
    41  O   -0.093241
    42  C    0.025812
    43  C    0.093132
    44  O   -0.188034
    45  O   -0.277737
    46  C    0.210598
    47  C    0.303392
    48  C   -0.072060
    49  C   -0.172777
    50  C    0.141771
    51  C    0.114096
    52  C    0.093165
    53  C    0.141218
    54  C   -0.077273
    55  C    0.097934
    56  C    0.130140
    57  C    0.065526
    58  C    0.099243
    59  C   -0.129485
    60  C    0.083856
    61  C    0.167098
    62  C    0.029307
    63  C    0.151275
    64  C   -0.146035
    65  C    0.094881
    66  C    0.114061
    67  H   -0.066285
    68  H   -0.047007
    69  H   -0.047007
    70  H   -0.021696
    71  H   -0.014770
    72  H    0.010040
    73  H   -0.012078
    74  H   -0.001389
    75  H   -0.030270
    76  H    0.009412
    77  H   -0.000077
    78  H   -0.001315
    79  H    0.000740
    80  H   -0.023612
    81  H    0.007162
    82  H   -0.000525
    83  H    0.032317
    84  H   -0.020218
    85  H   -0.015291
    86  H   -0.028302
    87  H    0.010950
    88  H   -0.019622
    89  H    0.000568
    90  H   -0.015719
    91  H   -0.016909
    92  H   -0.024196
    93  H    0.003405
    94  H   -0.011407
    95  H   -0.004414
    96  H    0.012673
    97  H   -0.009005
    98  H   -0.002617
    99  H    0.014685
   100  H    0.017535
   101  H    0.011442
   102  H   -0.019656
   103  H   -0.019140
   104  H   -0.041102
   105  H   -0.007175
   106  H    0.004944
   107  H   -0.010098
   108  H   -0.012445
   109  H   -0.031695
   110  H   -0.043266
   111  H   -0.034063
   112  H   -0.031368
   113  H   -0.038487
   114  H   -0.038852
   115  H   -0.008992
   116  H   -0.019665
   117  H   -0.016195
   118  H   -0.029414
   119  H   -0.036286
   120  H   -0.030235
   121  H   -0.038495
   122  H   -0.044713
   123  H   -0.024608
   124  H   -0.038740
   125  H   -0.005222
   126  H   -0.019493
   127  H   -0.023228
   128  H   -0.044233
   129  H   -0.037249
   130  H   -0.050016
   131  H   -0.021484
   132  H   -0.044755
   133  H   -0.036743
   134  H   -0.023483
   135  H   -0.006044
   136  H   -0.012894
   137  H   -0.005900
   138  H   -0.020885
   139  H   -0.019047
   140  H   -0.012607
 Sum of Mulliken charges =  -0.00000

 Dipole moment (field-independent basis, Debye):
    X=              2.9367    Y=              5.0662    Z=             -2.0812  Tot=              6.2147
 Quadrupole moment (field-independent basis, Debye-Ang):
   XX=           -376.3333   YY=           -424.4998   ZZ=           -405.0020
   XY=              6.8213   XZ=             18.5753   YZ=              2.8902

 Normal termination of Gaussian 16 at Fri Apr 29 20:25:04 2022.
