 Gaussian 16, Revision A.03,
 Gaussian 16:  ES64L-G16RevA.03 25-Dec-2016

 -----------------------------------
 #p cam-b3lyp/Def2SVP td=(nstates=5)
 -----------------------------------

 -------------------------------------------------------
 step_451_chromophore_19 TDDFT with cam-b3lyp functional
 -------------------------------------------------------
 Symbolic Z-matrix:
 Charge =  0 Multiplicity = 1

                         Standard orientation:
 ---------------------------------------------------------------------
 Center     Atomic      Atomic             Coordinates (Angstroms)
 Number     Number       Type             X           Y           Z
 ---------------------------------------------------------------------
      1         12           0       -5.900074    0.302177   -0.299653
      2          6           0       -3.288377   -2.030072    0.090596
      3          6           0       -3.537069    2.878035   -0.053294
      4          6           0       -8.469982    2.556909   -0.176349
      5          6           0       -8.167938   -2.324179   -0.218159
      6          7           0       -3.700236    0.434503   -0.076355
      7          6           0       -2.816604   -0.711011    0.058084
      8          6           0       -1.391431   -0.235965    0.159138
      9          6           0       -1.441649    1.350624   -0.104299
     10          6           0       -3.002466    1.580499   -0.089199
     11          6           0       -0.652565    2.292425    0.907043
     12          6           0       -0.430572   -0.921209   -0.778956
     13          6           0        1.114220   -0.497908   -0.762341
     14          6           0        2.219467   -1.544279   -0.407398
     15          8           0        2.033422   -2.526786    0.203131
     16          8           0        3.495024   -1.076602   -0.706369
     17          7           0       -6.005989    2.397016   -0.159439
     18          6           0       -4.887901    3.258745   -0.164878
     19          6           0       -5.430622    4.680210   -0.133425
     20          6           0       -6.867826    4.596037   -0.048914
     21          6           0       -7.196234    3.132510   -0.193707
     22          6           0       -4.498964    5.848741   -0.133251
     23          6           0       -7.859996    5.736331    0.146934
     24          8           0       -9.041402    5.513704    0.247392
     25          6           0       -7.342745    7.111059    0.296702
     26          7           0       -8.091720    0.151691    0.102231
     27          6           0       -8.924254    1.248882   -0.045583
     28          6           0      -10.395473    0.820372   -0.282545
     29          6           0      -10.291752   -0.716531   -0.318510
     30          6           0       -8.767732   -1.023669   -0.092435
     31          6           0      -11.356355    1.332033    0.823641
     32          6           0      -10.770022   -1.276925   -1.598086
     33          6           0      -11.246901   -2.745538   -1.518914
     34          7           0       -5.816690   -1.759388   -0.174219
     35          6           0       -6.837306   -2.681356   -0.183316
     36          6           0       -6.194427   -3.973357   -0.319634
     37          6           0       -4.838402   -3.796676   -0.176044
     38          6           0       -4.662881   -2.413850   -0.154795
     39          6           0       -7.049468   -5.250314   -0.434168
     40          6           0       -3.619473   -4.511950    0.044453
     41          8           0       -3.438529   -5.701850    0.107889
     42          6           0       -2.616351   -3.351229    0.253090
     43          6           0       -2.066801   -3.499223    1.614861
     44          8           0       -2.750341   -3.411421    2.635281
     45          8           0       -0.699013   -3.855732    1.606809
     46          6           0       -0.094237   -4.137786    2.897559
     47          6           0        4.563071   -2.045264   -0.417829
     48          6           0        5.948250   -1.434566   -0.471841
     49          6           0        6.680262   -0.550291    0.236275
     50          6           0        6.184609    0.330333    1.365429
     51          6           0        8.132353   -0.325506   -0.172842
     52          6           0        8.334166    0.671940   -1.318612
     53          6           0        9.102021    0.193997   -2.554266
     54          6           0       10.406451    0.893980   -3.022864
     55          6           0       10.053447    1.874507   -4.138653
     56          6           0       11.598218   -0.016601   -3.428583
     57          6           0       12.903311    0.285324   -2.569103
     58          6           0       13.275103   -0.865907   -1.561504
     59          6           0       13.335742   -0.345506   -0.072957
     60          6           0       14.477535   -1.080082    0.755908
     61          6           0       11.977118   -0.093456    0.605448
     62          6           0       11.570827    1.373125    0.749135
     63          6           0       11.826673    2.028574    2.067762
     64          6           0       10.759290    1.671589    3.056363
     65          6           0        9.500213    2.586671    2.874907
     66          6           0       11.229519    1.840950    4.534337
     67          1           0       -2.775670    3.657409    0.009897
     68          1           0       -9.396331    3.135769   -0.157562
     69          1           0       -8.936649   -3.096641   -0.146581
     70          1           0       -0.984131   -0.300688    1.167865
     71          1           0       -1.048953    1.561580   -1.098731
     72          1           0       -1.393231    2.760911    1.555310
     73          1           0       -0.055069    3.004677    0.339049
     74          1           0        0.100562    1.730661    1.459049
     75          1           0       -0.751215   -0.621658   -1.776831
     76          1           0       -0.445736   -1.998320   -0.613534
     77          1           0        1.309628    0.232465    0.022946
     78          1           0        1.384731   -0.047856   -1.717475
     79          1           0       -4.623526    6.420321   -1.052863
     80          1           0       -3.439644    5.595862   -0.191386
     81          1           0       -4.676358    6.480062    0.736779
     82          1           0       -6.850650    7.277119   -0.661052
     83          1           0       -6.857838    7.154434    1.272737
     84          1           0       -8.208133    7.769242    0.224173
     85          1           0      -10.628730    1.174255   -1.287176
     86          1           0      -10.807047   -1.128993    0.548967
     87          1           0      -10.822065    1.842226    1.624700
     88          1           0      -11.882017    0.507779    1.304593
     89          1           0      -12.126558    1.905413    0.305819
     90          1           0       -9.905137   -1.346920   -2.258047
     91          1           0      -11.638807   -0.779867   -2.029251
     92          1           0      -11.493182   -2.914448   -0.471044
     93          1           0      -10.432599   -3.425670   -1.767956
     94          1           0      -12.162661   -2.959366   -2.071323
     95          1           0       -7.819145   -5.266233   -1.206581
     96          1           0       -7.401960   -5.528926    0.558227
     97          1           0       -6.368797   -6.035101   -0.765156
     98          1           0       -1.732377   -3.592429   -0.337724
     99          1           0        0.217206   -5.182839    2.882676
    100          1           0       -0.682566   -3.993191    3.803247
    101          1           0        0.770679   -3.478066    2.962812
    102          1           0        4.465832   -2.988031   -0.955702
    103          1           0        4.389570   -2.473144    0.569716
    104          1           0        6.505167   -1.940713   -1.259273
    105          1           0        6.719653    1.280203    1.376268
    106          1           0        6.309271   -0.129647    2.345168
    107          1           0        5.123879    0.557757    1.253909
    108          1           0        8.465302   -1.350315   -0.339990
    109          1           0        8.667806    0.034760    0.706015
    110          1           0        8.865966    1.517730   -0.882782
    111          1           0        7.379114    1.154896   -1.520490
    112          1           0        8.385564    0.373054   -3.356111
    113          1           0        9.368018   -0.835072   -2.313547
    114          1           0       10.777794    1.478969   -2.181323
    115          1           0        9.750064    1.356992   -5.049360
    116          1           0       10.984365    2.411759   -4.321223
    117          1           0        9.275146    2.566646   -3.816908
    118          1           0       11.817434    0.074700   -4.492269
    119          1           0       11.343519   -1.044808   -3.171251
    120          1           0       12.897925    1.171741   -1.934687
    121          1           0       13.778337    0.449232   -3.197874
    122          1           0       14.307376   -1.196719   -1.681323
    123          1           0       12.601876   -1.711260   -1.699410
    124          1           0       13.837066    0.622390   -0.072069
    125          1           0       15.466687   -0.669149    0.555981
    126          1           0       14.465991   -2.133356    0.475322
    127          1           0       14.244538   -1.049256    1.820211
    128          1           0       12.069828   -0.503934    1.611292
    129          1           0       11.230390   -0.625722    0.015366
    130          1           0       10.493154    1.383644    0.587509
    131          1           0       11.973709    2.045491   -0.008244
    132          1           0       11.751982    3.063021    1.733903
    133          1           0       12.827407    1.800964    2.433989
    134          1           0       10.504312    0.615998    2.959350
    135          1           0        8.719234    1.889515    3.175215
    136          1           0        9.368915    2.901271    1.838807
    137          1           0        9.584417    3.479413    3.495057
    138          1           0       12.251852    2.217184    4.480085
    139          1           0       11.224340    0.837657    4.960121
    140          1           0       10.618658    2.484596    5.166772
 ---------------------------------------------------------------------

 SCF Done:  E(RCAM-B3LYP) =  -3007.15480420     A.U. after   19 cycles

 Excitation energies and oscillator strengths:

 Excited State   1:      Singlet-A      1.6637 eV  745.23 nm  f=0.3567  <S**2>=0.000
     245 -> 248       -0.16791
     246 -> 247        0.68844
     245 <- 248       -0.10529
 This state for optimization and/or second-order correction.
 Total Energy, E(TD-HF/TD-DFT) =  -3007.09366382
 Copying the excited state density for this state as the 1-particle RhoCI density.

 Excited State   2:      Singlet-A      2.2793 eV  543.96 nm  f=0.0567  <S**2>=0.000
     245 -> 247        0.60453
     246 -> 248        0.35452

 Excited State   3:      Singlet-A      3.4103 eV  363.56 nm  f=0.6075  <S**2>=0.000
     242 -> 247       -0.30890
     244 -> 247        0.10255
     245 -> 247       -0.29425
     246 -> 248        0.54818

 Excited State   4:      Singlet-A      3.5126 eV  352.97 nm  f=0.1315  <S**2>=0.000
     242 -> 247       -0.30902
     244 -> 247        0.56777
     245 -> 247        0.14680
     246 -> 248       -0.20700

 Excited State   5:      Singlet-A      3.6988 eV  335.20 nm  f=0.0335  <S**2>=0.000
     239 -> 247        0.34027
     239 -> 248       -0.12094
     239 -> 249        0.20695
     239 -> 251       -0.11919
     240 -> 247        0.30845
     240 -> 249        0.14904
     242 -> 247       -0.27978
     244 -> 247       -0.23867

 The electronic state is 1-A.
 Alpha  occ. eigenvalues --  -46.88914 -19.24382 -19.23974 -19.20366 -19.19037
 Alpha  occ. eigenvalues --  -19.18919 -19.18828 -14.42391 -14.41670 -14.40296
 Alpha  occ. eigenvalues --  -14.38835 -10.39254 -10.38566 -10.35024 -10.34418
 Alpha  occ. eigenvalues --  -10.31711 -10.31611 -10.31464 -10.31421 -10.31304
 Alpha  occ. eigenvalues --  -10.30610 -10.30595 -10.30042 -10.29871 -10.28846
 Alpha  occ. eigenvalues --  -10.28466 -10.28339 -10.28264 -10.28206 -10.28110
 Alpha  occ. eigenvalues --  -10.28045 -10.27569 -10.27482 -10.27471 -10.27455
 Alpha  occ. eigenvalues --  -10.27219 -10.27093 -10.27034 -10.26908 -10.26842
 Alpha  occ. eigenvalues --  -10.26802 -10.26368 -10.26043 -10.25787 -10.25786
 Alpha  occ. eigenvalues --  -10.25698 -10.25676 -10.25618 -10.25610 -10.25483
 Alpha  occ. eigenvalues --  -10.25373 -10.25357 -10.25245 -10.25131 -10.25118
 Alpha  occ. eigenvalues --  -10.25070 -10.24995 -10.24985 -10.24816 -10.24783
 Alpha  occ. eigenvalues --  -10.24723 -10.24517 -10.24478 -10.24422 -10.24348
 Alpha  occ. eigenvalues --  -10.23676  -3.17297  -1.92203  -1.91743  -1.91603
 Alpha  occ. eigenvalues --   -1.17360  -1.14137  -1.11272  -1.10434  -1.08772
 Alpha  occ. eigenvalues --   -1.06379  -1.04075  -1.02234  -1.02129  -1.00613
 Alpha  occ. eigenvalues --   -0.93046  -0.90745  -0.90338  -0.89476  -0.89391
 Alpha  occ. eigenvalues --   -0.88874  -0.88282  -0.87401  -0.87170  -0.86981
 Alpha  occ. eigenvalues --   -0.85636  -0.84807  -0.84075  -0.83676  -0.83398
 Alpha  occ. eigenvalues --   -0.82783  -0.82540  -0.81335  -0.80588  -0.80225
 Alpha  occ. eigenvalues --   -0.80000  -0.78375  -0.78158  -0.76709  -0.75919
 Alpha  occ. eigenvalues --   -0.75636  -0.75476  -0.75406  -0.74911  -0.74349
 Alpha  occ. eigenvalues --   -0.73247  -0.72446  -0.71581  -0.70638  -0.68871
 Alpha  occ. eigenvalues --   -0.68500  -0.68332  -0.67236  -0.66817  -0.65742
 Alpha  occ. eigenvalues --   -0.65367  -0.65148  -0.64750  -0.64162  -0.64111
 Alpha  occ. eigenvalues --   -0.63192  -0.63081  -0.61447  -0.61340  -0.59712
 Alpha  occ. eigenvalues --   -0.59616  -0.59469  -0.59096  -0.58422  -0.57798
 Alpha  occ. eigenvalues --   -0.57139  -0.56990  -0.56236  -0.55991  -0.55110
 Alpha  occ. eigenvalues --   -0.55011  -0.54810  -0.54764  -0.54679  -0.54347
 Alpha  occ. eigenvalues --   -0.53787  -0.53632  -0.53446  -0.53348  -0.52989
 Alpha  occ. eigenvalues --   -0.52456  -0.52129  -0.52018  -0.51733  -0.51560
 Alpha  occ. eigenvalues --   -0.51411  -0.51300  -0.51206  -0.50831  -0.50695
 Alpha  occ. eigenvalues --   -0.50590  -0.50517  -0.50313  -0.50197  -0.49829
 Alpha  occ. eigenvalues --   -0.49411  -0.49210  -0.49160  -0.49044  -0.48871
 Alpha  occ. eigenvalues --   -0.48623  -0.48341  -0.48268  -0.48162  -0.47937
 Alpha  occ. eigenvalues --   -0.47650  -0.47143  -0.46942  -0.46802  -0.46476
 Alpha  occ. eigenvalues --   -0.46392  -0.46320  -0.46059  -0.45708  -0.45682
 Alpha  occ. eigenvalues --   -0.45496  -0.45298  -0.45238  -0.45071  -0.44883
 Alpha  occ. eigenvalues --   -0.44634  -0.44309  -0.44110  -0.44089  -0.43949
 Alpha  occ. eigenvalues --   -0.43557  -0.43440  -0.43369  -0.43193  -0.43001
 Alpha  occ. eigenvalues --   -0.42913  -0.42828  -0.42570  -0.42268  -0.42137
 Alpha  occ. eigenvalues --   -0.42016  -0.41559  -0.41461  -0.41342  -0.41309
 Alpha  occ. eigenvalues --   -0.41070  -0.40874  -0.40286  -0.40099  -0.39871
 Alpha  occ. eigenvalues --   -0.39764  -0.39223  -0.38826  -0.38804  -0.38695
 Alpha  occ. eigenvalues --   -0.38354  -0.38335  -0.37644  -0.37128  -0.37075
 Alpha  occ. eigenvalues --   -0.36737  -0.36716  -0.36436  -0.36292  -0.36176
 Alpha  occ. eigenvalues --   -0.35742  -0.35187  -0.34859  -0.34734  -0.34584
 Alpha  occ. eigenvalues --   -0.34005  -0.33467  -0.32907  -0.31270  -0.31100
 Alpha  occ. eigenvalues --   -0.30827  -0.30263  -0.30117  -0.29690  -0.24403
 Alpha  occ. eigenvalues --   -0.20599
 Alpha virt. eigenvalues --   -0.08341  -0.01961   0.00566   0.02432   0.02636
 Alpha virt. eigenvalues --    0.04344   0.05356   0.05686   0.06201   0.07044
 Alpha virt. eigenvalues --    0.07877   0.08133   0.08674   0.08785   0.09185

 Mulliken charges:
               1
     1  Mg   0.810286
     2  C    0.048571
     3  C   -0.084726
     4  C   -0.023187
     5  C   -0.087759
     6  N   -0.303348
     7  C    0.007002
     8  C    0.006351
     9  C   -0.100963
    10  C    0.050263
    11  C    0.054912
    12  C    0.064879
    13  C    0.023913
    14  C    0.134941
    15  O   -0.175223
    16  O   -0.349460
    17  N   -0.404095
    18  C    0.183705
    19  C   -0.160138
    20  C   -0.042283
    21  C    0.186497
    22  C    0.118608
    23  C   -0.043098
    24  O   -0.180493
    25  C    0.089127
    26  N   -0.276938
    27  C   -0.048646
    28  C   -0.051021
    29  C   -0.006532
    30  C   -0.010482
    31  C    0.083418
    32  C    0.031789
    33  C   -0.002908
    34  N   -0.345966
    35  C    0.139297
    36  C   -0.186443
    37  C    0.000644
    38  C    0.092414
    39  C    0.108508
    40  C    0.071407
    41  O   -0.134903
    42  C   -0.058317
    43  C    0.189389
    44  O   -0.224760
    45  O   -0.342498
    46  C    0.172967
    47  C    0.275626
    48  C   -0.102777
    49  C   -0.185228
    50  C    0.082915
    51  C    0.054663
    52  C    0.042618
    53  C    0.083614
    54  C   -0.128674
    55  C    0.041748
    56  C    0.072868
    57  C    0.012356
    58  C    0.046207
    59  C   -0.181544
    60  C    0.029404
    61  C    0.116299
    62  C   -0.019817
    63  C    0.092649
    64  C   -0.200637
    65  C    0.039581
    66  C    0.056039
    67  H   -0.031459
    68  H   -0.007752
    69  H   -0.012078
    70  H    0.011831
    71  H    0.018685
    72  H    0.035842
    73  H    0.013600
    74  H    0.022656
    75  H    0.000917
    76  H    0.037161
    77  H    0.026942
    78  H    0.031344
    79  H    0.029091
    80  H    0.007527
    81  H    0.033765
    82  H    0.027956
    83  H    0.059789
    84  H    0.018299
    85  H    0.020426
    86  H    0.006161
    87  H    0.036233
    88  H    0.006581
    89  H    0.024613
    90  H    0.015120
    91  H    0.011876
    92  H   -0.001231
    93  H    0.023914
    94  H    0.014946
    95  H    0.018425
    96  H    0.037218
    97  H    0.018098
    98  H    0.043141
    99  H    0.035727
   100  H    0.043658
   101  H    0.031660
   102  H    0.010313
   103  H    0.012363
   104  H   -0.010743
   105  H    0.013603
   106  H    0.029133
   107  H    0.015886
   108  H    0.015984
   109  H   -0.006970
   110  H   -0.017045
   111  H   -0.002330
   112  H   -0.001219
   113  H   -0.012171
   114  H   -0.010980
   115  H    0.014271
   116  H    0.004262
   117  H    0.007545
   118  H    0.001082
   119  H   -0.007767
   120  H   -0.005043
   121  H   -0.007711
   122  H   -0.012838
   123  H    0.001297
   124  H   -0.006999
   125  H    0.018045
   126  H    0.003975
   127  H    0.000432
   128  H   -0.015540
   129  H   -0.012567
   130  H   -0.031224
   131  H    0.004923
   132  H   -0.013546
   133  H   -0.008788
   134  H    0.005570
   135  H    0.015498
   136  H    0.007767
   137  H    0.018188
   138  H    0.003722
   139  H    0.004661
   140  H    0.011664
 Sum of Mulliken charges =  -0.00000

 Dipole moment (field-independent basis, Debye):
    X=              2.9600    Y=              6.3029    Z=             -2.1675  Tot=              7.2929
 Quadrupole moment (field-independent basis, Debye-Ang):
   XX=           -373.8155   YY=           -419.5671   ZZ=           -405.0373
   XY=              0.0739   XZ=             19.7719   YZ=              3.0466

 Normal termination of Gaussian 16 at Fri Apr 29 19:12:09 2022.
