 Gaussian 16, Revision A.03,
 Gaussian 16:  ES64L-G16RevA.03 25-Dec-2016

 ---------------------------------
 #p PBE1PBE/Def2SVP td=(nstates=5)
 ---------------------------------

 -----------------------------------------------------
 step_451_chromophore_19 TDDFT with PBE1PBE functional
 -----------------------------------------------------
 Symbolic Z-matrix:
 Charge =  0 Multiplicity = 1

                         Standard orientation:
 ---------------------------------------------------------------------
 Center     Atomic      Atomic             Coordinates (Angstroms)
 Number     Number       Type             X           Y           Z
 ---------------------------------------------------------------------
      1         12           0       -5.900074    0.302177   -0.299653
      2          6           0       -3.288377   -2.030072    0.090596
      3          6           0       -3.537069    2.878035   -0.053294
      4          6           0       -8.469982    2.556909   -0.176349
      5          6           0       -8.167938   -2.324179   -0.218159
      6          7           0       -3.700236    0.434503   -0.076355
      7          6           0       -2.816604   -0.711011    0.058084
      8          6           0       -1.391431   -0.235965    0.159138
      9          6           0       -1.441649    1.350624   -0.104299
     10          6           0       -3.002466    1.580499   -0.089199
     11          6           0       -0.652565    2.292425    0.907043
     12          6           0       -0.430572   -0.921209   -0.778956
     13          6           0        1.114220   -0.497908   -0.762341
     14          6           0        2.219467   -1.544279   -0.407398
     15          8           0        2.033422   -2.526786    0.203131
     16          8           0        3.495024   -1.076602   -0.706369
     17          7           0       -6.005989    2.397016   -0.159439
     18          6           0       -4.887901    3.258745   -0.164878
     19          6           0       -5.430622    4.680210   -0.133425
     20          6           0       -6.867826    4.596037   -0.048914
     21          6           0       -7.196234    3.132510   -0.193707
     22          6           0       -4.498964    5.848741   -0.133251
     23          6           0       -7.859996    5.736331    0.146934
     24          8           0       -9.041402    5.513704    0.247392
     25          6           0       -7.342745    7.111059    0.296702
     26          7           0       -8.091720    0.151691    0.102231
     27          6           0       -8.924254    1.248882   -0.045583
     28          6           0      -10.395473    0.820372   -0.282545
     29          6           0      -10.291752   -0.716531   -0.318510
     30          6           0       -8.767732   -1.023669   -0.092435
     31          6           0      -11.356355    1.332033    0.823641
     32          6           0      -10.770022   -1.276925   -1.598086
     33          6           0      -11.246901   -2.745538   -1.518914
     34          7           0       -5.816690   -1.759388   -0.174219
     35          6           0       -6.837306   -2.681356   -0.183316
     36          6           0       -6.194427   -3.973357   -0.319634
     37          6           0       -4.838402   -3.796676   -0.176044
     38          6           0       -4.662881   -2.413850   -0.154795
     39          6           0       -7.049468   -5.250314   -0.434168
     40          6           0       -3.619473   -4.511950    0.044453
     41          8           0       -3.438529   -5.701850    0.107889
     42          6           0       -2.616351   -3.351229    0.253090
     43          6           0       -2.066801   -3.499223    1.614861
     44          8           0       -2.750341   -3.411421    2.635281
     45          8           0       -0.699013   -3.855732    1.606809
     46          6           0       -0.094237   -4.137786    2.897559
     47          6           0        4.563071   -2.045264   -0.417829
     48          6           0        5.948250   -1.434566   -0.471841
     49          6           0        6.680262   -0.550291    0.236275
     50          6           0        6.184609    0.330333    1.365429
     51          6           0        8.132353   -0.325506   -0.172842
     52          6           0        8.334166    0.671940   -1.318612
     53          6           0        9.102021    0.193997   -2.554266
     54          6           0       10.406451    0.893980   -3.022864
     55          6           0       10.053447    1.874507   -4.138653
     56          6           0       11.598218   -0.016601   -3.428583
     57          6           0       12.903311    0.285324   -2.569103
     58          6           0       13.275103   -0.865907   -1.561504
     59          6           0       13.335742   -0.345506   -0.072957
     60          6           0       14.477535   -1.080082    0.755908
     61          6           0       11.977118   -0.093456    0.605448
     62          6           0       11.570827    1.373125    0.749135
     63          6           0       11.826673    2.028574    2.067762
     64          6           0       10.759290    1.671589    3.056363
     65          6           0        9.500213    2.586671    2.874907
     66          6           0       11.229519    1.840950    4.534337
     67          1           0       -2.775670    3.657409    0.009897
     68          1           0       -9.396331    3.135769   -0.157562
     69          1           0       -8.936649   -3.096641   -0.146581
     70          1           0       -0.984131   -0.300688    1.167865
     71          1           0       -1.048953    1.561580   -1.098731
     72          1           0       -1.393231    2.760911    1.555310
     73          1           0       -0.055069    3.004677    0.339049
     74          1           0        0.100562    1.730661    1.459049
     75          1           0       -0.751215   -0.621658   -1.776831
     76          1           0       -0.445736   -1.998320   -0.613534
     77          1           0        1.309628    0.232465    0.022946
     78          1           0        1.384731   -0.047856   -1.717475
     79          1           0       -4.623526    6.420321   -1.052863
     80          1           0       -3.439644    5.595862   -0.191386
     81          1           0       -4.676358    6.480062    0.736779
     82          1           0       -6.850650    7.277119   -0.661052
     83          1           0       -6.857838    7.154434    1.272737
     84          1           0       -8.208133    7.769242    0.224173
     85          1           0      -10.628730    1.174255   -1.287176
     86          1           0      -10.807047   -1.128993    0.548967
     87          1           0      -10.822065    1.842226    1.624700
     88          1           0      -11.882017    0.507779    1.304593
     89          1           0      -12.126558    1.905413    0.305819
     90          1           0       -9.905137   -1.346920   -2.258047
     91          1           0      -11.638807   -0.779867   -2.029251
     92          1           0      -11.493182   -2.914448   -0.471044
     93          1           0      -10.432599   -3.425670   -1.767956
     94          1           0      -12.162661   -2.959366   -2.071323
     95          1           0       -7.819145   -5.266233   -1.206581
     96          1           0       -7.401960   -5.528926    0.558227
     97          1           0       -6.368797   -6.035101   -0.765156
     98          1           0       -1.732377   -3.592429   -0.337724
     99          1           0        0.217206   -5.182839    2.882676
    100          1           0       -0.682566   -3.993191    3.803247
    101          1           0        0.770679   -3.478066    2.962812
    102          1           0        4.465832   -2.988031   -0.955702
    103          1           0        4.389570   -2.473144    0.569716
    104          1           0        6.505167   -1.940713   -1.259273
    105          1           0        6.719653    1.280203    1.376268
    106          1           0        6.309271   -0.129647    2.345168
    107          1           0        5.123879    0.557757    1.253909
    108          1           0        8.465302   -1.350315   -0.339990
    109          1           0        8.667806    0.034760    0.706015
    110          1           0        8.865966    1.517730   -0.882782
    111          1           0        7.379114    1.154896   -1.520490
    112          1           0        8.385564    0.373054   -3.356111
    113          1           0        9.368018   -0.835072   -2.313547
    114          1           0       10.777794    1.478969   -2.181323
    115          1           0        9.750064    1.356992   -5.049360
    116          1           0       10.984365    2.411759   -4.321223
    117          1           0        9.275146    2.566646   -3.816908
    118          1           0       11.817434    0.074700   -4.492269
    119          1           0       11.343519   -1.044808   -3.171251
    120          1           0       12.897925    1.171741   -1.934687
    121          1           0       13.778337    0.449232   -3.197874
    122          1           0       14.307376   -1.196719   -1.681323
    123          1           0       12.601876   -1.711260   -1.699410
    124          1           0       13.837066    0.622390   -0.072069
    125          1           0       15.466687   -0.669149    0.555981
    126          1           0       14.465991   -2.133356    0.475322
    127          1           0       14.244538   -1.049256    1.820211
    128          1           0       12.069828   -0.503934    1.611292
    129          1           0       11.230390   -0.625722    0.015366
    130          1           0       10.493154    1.383644    0.587509
    131          1           0       11.973709    2.045491   -0.008244
    132          1           0       11.751982    3.063021    1.733903
    133          1           0       12.827407    1.800964    2.433989
    134          1           0       10.504312    0.615998    2.959350
    135          1           0        8.719234    1.889515    3.175215
    136          1           0        9.368915    2.901271    1.838807
    137          1           0        9.584417    3.479413    3.495057
    138          1           0       12.251852    2.217184    4.480085
    139          1           0       11.224340    0.837657    4.960121
    140          1           0       10.618658    2.484596    5.166772
 ---------------------------------------------------------------------

 SCF Done:  E(RPBE1PBE) =  -3005.34248848     A.U. after   16 cycles

 Excitation energies and oscillator strengths:

 Excited State   1:      Singlet-A      1.8045 eV  687.09 nm  f=0.3454  <S**2>=0.000
     245 -> 248       -0.16231
     246 -> 247        0.69564
     246 <- 247       -0.11352
 This state for optimization and/or second-order correction.
 Total Energy, E(TD-HF/TD-DFT) =  -3005.27617523
 Copying the excited state density for this state as the 1-particle RhoCI density.

 Excited State   2:      Singlet-A      2.2719 eV  545.73 nm  f=0.0650  <S**2>=0.000
     245 -> 247        0.62239
     246 -> 248        0.32382

 Excited State   3:      Singlet-A      3.1364 eV  395.31 nm  f=0.0046  <S**2>=0.000
     241 -> 247        0.10860
     242 -> 247        0.32290
     243 -> 247        0.19743
     244 -> 247        0.56634

 Excited State   4:      Singlet-A      3.1670 eV  391.49 nm  f=0.0172  <S**2>=0.000
     241 -> 247        0.38811
     242 -> 247        0.42540
     244 -> 247       -0.32415
     246 -> 248       -0.12410

 Excited State   5:      Singlet-A      3.2180 eV  385.28 nm  f=0.2264  <S**2>=0.000
     240 -> 247        0.15149
     241 -> 247       -0.26238
     242 -> 247        0.33250
     245 -> 247       -0.20092
     246 -> 248        0.47399

 The electronic state is 1-A.
 Alpha  occ. eigenvalues --  -46.92323 -19.25082 -19.24700 -19.20599 -19.19242
 Alpha  occ. eigenvalues --  -19.19197 -19.19028 -14.41978 -14.41178 -14.39904
 Alpha  occ. eigenvalues --  -14.38597 -10.36290 -10.35649 -10.31940 -10.31721
 Alpha  occ. eigenvalues --  -10.29370 -10.29110 -10.29109 -10.28830 -10.28801
 Alpha  occ. eigenvalues --  -10.28634 -10.28214 -10.27316 -10.27288 -10.26622
 Alpha  occ. eigenvalues --  -10.26511 -10.26165 -10.26123 -10.25882 -10.25852
 Alpha  occ. eigenvalues --  -10.25568 -10.25305 -10.25265 -10.25150 -10.24894
 Alpha  occ. eigenvalues --  -10.24859 -10.24737 -10.24730 -10.24723 -10.24499
 Alpha  occ. eigenvalues --  -10.24479 -10.23606 -10.23489 -10.23386 -10.23301
 Alpha  occ. eigenvalues --  -10.23263 -10.23258 -10.23221 -10.23190 -10.23162
 Alpha  occ. eigenvalues --  -10.23054 -10.22971 -10.22812 -10.22737 -10.22723
 Alpha  occ. eigenvalues --  -10.22665 -10.22506 -10.22425 -10.22388 -10.22313
 Alpha  occ. eigenvalues --  -10.22147 -10.22034 -10.21905 -10.21883 -10.21837
 Alpha  occ. eigenvalues --  -10.21646  -3.14292  -1.87138  -1.86656  -1.86519
 Alpha  occ. eigenvalues --   -1.12178  -1.08932  -1.05814  -1.05372  -1.03677
 Alpha  occ. eigenvalues --   -1.01250  -0.98974  -0.96824  -0.96694  -0.95093
 Alpha  occ. eigenvalues --   -0.87540  -0.84835  -0.84483  -0.83786  -0.83651
 Alpha  occ. eigenvalues --   -0.82998  -0.82524  -0.81525  -0.81313  -0.81239
 Alpha  occ. eigenvalues --   -0.80121  -0.79013  -0.78308  -0.78045  -0.77604
 Alpha  occ. eigenvalues --   -0.76846  -0.76745  -0.75563  -0.74859  -0.74625
 Alpha  occ. eigenvalues --   -0.74203  -0.72529  -0.72480  -0.71050  -0.70137
 Alpha  occ. eigenvalues --   -0.69988  -0.69598  -0.69528  -0.69276  -0.68514
 Alpha  occ. eigenvalues --   -0.67591  -0.66924  -0.65982  -0.65010  -0.63451
 Alpha  occ. eigenvalues --   -0.62829  -0.62621  -0.61465  -0.61138  -0.59994
 Alpha  occ. eigenvalues --   -0.59806  -0.59578  -0.59251  -0.58817  -0.58243
 Alpha  occ. eigenvalues --   -0.57647  -0.57337  -0.55963  -0.55671  -0.54214
 Alpha  occ. eigenvalues --   -0.54171  -0.53948  -0.53711  -0.53066  -0.52335
 Alpha  occ. eigenvalues --   -0.51664  -0.51504  -0.50772  -0.50320  -0.49635
 Alpha  occ. eigenvalues --   -0.49542  -0.49366  -0.49207  -0.48920  -0.48851
 Alpha  occ. eigenvalues --   -0.48311  -0.48134  -0.47989  -0.47896  -0.47500
 Alpha  occ. eigenvalues --   -0.47065  -0.46680  -0.46567  -0.46274  -0.46114
 Alpha  occ. eigenvalues --   -0.46066  -0.45903  -0.45827  -0.45315  -0.45210
 Alpha  occ. eigenvalues --   -0.45110  -0.45078  -0.44899  -0.44864  -0.44387
 Alpha  occ. eigenvalues --   -0.44061  -0.43912  -0.43777  -0.43588  -0.43415
 Alpha  occ. eigenvalues --   -0.43311  -0.43025  -0.42842  -0.42711  -0.42487
 Alpha  occ. eigenvalues --   -0.42253  -0.41771  -0.41540  -0.41435  -0.41135
 Alpha  occ. eigenvalues --   -0.41096  -0.41068  -0.40737  -0.40458  -0.40371
 Alpha  occ. eigenvalues --   -0.40302  -0.40020  -0.39957  -0.39715  -0.39612
 Alpha  occ. eigenvalues --   -0.39332  -0.39099  -0.38951  -0.38788  -0.38747
 Alpha  occ. eigenvalues --   -0.38292  -0.38247  -0.38063  -0.37892  -0.37817
 Alpha  occ. eigenvalues --   -0.37709  -0.37597  -0.37257  -0.37204  -0.37032
 Alpha  occ. eigenvalues --   -0.36756  -0.36430  -0.36286  -0.36232  -0.36106
 Alpha  occ. eigenvalues --   -0.35974  -0.35714  -0.35129  -0.35040  -0.34728
 Alpha  occ. eigenvalues --   -0.34550  -0.34149  -0.33824  -0.33586  -0.33522
 Alpha  occ. eigenvalues --   -0.33381  -0.33170  -0.32476  -0.32131  -0.32056
 Alpha  occ. eigenvalues --   -0.31832  -0.31593  -0.31359  -0.31304  -0.31112
 Alpha  occ. eigenvalues --   -0.30605  -0.30151  -0.29750  -0.29641  -0.29448
 Alpha  occ. eigenvalues --   -0.29272  -0.28700  -0.28191  -0.26747  -0.25876
 Alpha  occ. eigenvalues --   -0.25854  -0.25732  -0.25435  -0.25404  -0.21237
 Alpha  occ. eigenvalues --   -0.18313
 Alpha virt. eigenvalues --   -0.10908  -0.05438  -0.03667  -0.01910  -0.00236
 Alpha virt. eigenvalues --   -0.00122   0.00796   0.01072   0.01688   0.03238
 Alpha virt. eigenvalues --    0.04473   0.04549   0.04816   0.05252   0.05507

 Mulliken charges:
               1
     1  Mg   0.955215
     2  C    0.033042
     3  C   -0.082290
     4  C   -0.024287
     5  C   -0.092795
     6  N   -0.406400
     7  C    0.071632
     8  C   -0.061111
     9  C   -0.167563
    10  C    0.092228
    11  C   -0.008528
    12  C    0.006057
    13  C   -0.047410
    14  C    0.198977
    15  O   -0.208172
    16  O   -0.379408
    17  N   -0.510735
    18  C    0.206346
    19  C   -0.189590
    20  C   -0.088732
    21  C    0.214693
    22  C    0.058656
    23  C    0.010856
    24  O   -0.219743
    25  C    0.010918
    26  N   -0.374970
    27  C   -0.005860
    28  C   -0.133202
    29  C   -0.087294
    30  C    0.041798
    31  C    0.027741
    32  C   -0.033397
    33  C   -0.074218
    34  N   -0.476227
    35  C    0.169251
    36  C   -0.199314
    37  C   -0.050686
    38  C    0.150695
    39  C    0.054312
    40  C    0.168268
    41  O   -0.183903
    42  C   -0.175493
    43  C    0.287680
    44  O   -0.257940
    45  O   -0.375755
    46  C    0.119403
    47  C    0.237969
    48  C   -0.115013
    49  C   -0.226381
    50  C    0.019942
    51  C   -0.021767
    52  C   -0.014040
    53  C    0.024770
    54  C   -0.215218
    55  C   -0.024293
    56  C    0.016975
    57  C   -0.049021
    58  C   -0.011808
    59  C   -0.260461
    60  C   -0.034226
    61  C    0.062846
    62  C   -0.101293
    63  C    0.036714
    64  C   -0.292269
    65  C   -0.024778
    66  C   -0.001892
    67  H    0.002388
    68  H    0.025154
    69  H    0.020943
    70  H    0.050390
    71  H    0.054898
    72  H    0.063158
    73  H    0.041264
    74  H    0.048796
    75  H    0.034968
    76  H    0.075688
    77  H    0.061912
    78  H    0.062024
    79  H    0.055990
    80  H    0.033971
    81  H    0.060278
    82  H    0.055650
    83  H    0.085278
    84  H    0.046110
    85  H    0.057155
    86  H    0.042955
    87  H    0.063059
    88  H    0.033499
    89  H    0.051861
    90  H    0.050330
    91  H    0.045729
    92  H    0.027020
    93  H    0.051002
    94  H    0.043735
    95  H    0.046212
    96  H    0.065921
    97  H    0.047738
    98  H    0.080017
    99  H    0.057976
   100  H    0.064539
   101  H    0.054127
   102  H    0.036129
   103  H    0.039152
   104  H    0.019823
   105  H    0.041969
   106  H    0.056692
   107  H    0.044006
   108  H    0.045980
   109  H    0.031790
   110  H    0.015473
   111  H    0.030245
   112  H    0.032317
   113  H    0.019810
   114  H    0.032924
   115  H    0.042175
   116  H    0.033960
   117  H    0.036865
   118  H    0.032879
   119  H    0.024959
   120  H    0.027299
   121  H    0.025597
   122  H    0.021720
   123  H    0.032035
   124  H    0.033495
   125  H    0.044971
   126  H    0.032647
   127  H    0.028155
   128  H    0.017476
   129  H    0.025238
   130  H    0.012638
   131  H    0.035925
   132  H    0.020678
   133  H    0.024108
   134  H    0.042808
   135  H    0.044724
   136  H    0.034810
   137  H    0.045713
   138  H    0.031118
   139  H    0.032312
   140  H    0.038146
 Sum of Mulliken charges =  -0.00000

 Dipole moment (field-independent basis, Debye):
    X=              2.9816    Y=              5.7618    Z=             -2.1630  Tot=              6.8386
 Quadrupole moment (field-independent basis, Debye-Ang):
   XX=           -367.2350   YY=           -417.2141   ZZ=           -402.7196
   XY=              4.4465   XZ=             20.1872   YZ=              3.0892

 Normal termination of Gaussian 16 at Fri Apr 29 19:37:09 2022.
