 Gaussian 16, Revision A.03,
 Gaussian 16:  ES64L-G16RevA.03 25-Dec-2016

 --------------------------------
 #p wB97XD/Def2SVP td=(nstates=5)
 --------------------------------

 ----------------------------------------------------
 step_451_chromophore_19 TDDFT with wB97XD functional
 ----------------------------------------------------
 Symbolic Z-matrix:
 Charge =  0 Multiplicity = 1

                         Standard orientation:
 ---------------------------------------------------------------------
 Center     Atomic      Atomic             Coordinates (Angstroms)
 Number     Number       Type             X           Y           Z
 ---------------------------------------------------------------------
      1         12           0       -5.900074    0.302177   -0.299653
      2          6           0       -3.288377   -2.030072    0.090596
      3          6           0       -3.537069    2.878035   -0.053294
      4          6           0       -8.469982    2.556909   -0.176349
      5          6           0       -8.167938   -2.324179   -0.218159
      6          7           0       -3.700236    0.434503   -0.076355
      7          6           0       -2.816604   -0.711011    0.058084
      8          6           0       -1.391431   -0.235965    0.159138
      9          6           0       -1.441649    1.350624   -0.104299
     10          6           0       -3.002466    1.580499   -0.089199
     11          6           0       -0.652565    2.292425    0.907043
     12          6           0       -0.430572   -0.921209   -0.778956
     13          6           0        1.114220   -0.497908   -0.762341
     14          6           0        2.219467   -1.544279   -0.407398
     15          8           0        2.033422   -2.526786    0.203131
     16          8           0        3.495024   -1.076602   -0.706369
     17          7           0       -6.005989    2.397016   -0.159439
     18          6           0       -4.887901    3.258745   -0.164878
     19          6           0       -5.430622    4.680210   -0.133425
     20          6           0       -6.867826    4.596037   -0.048914
     21          6           0       -7.196234    3.132510   -0.193707
     22          6           0       -4.498964    5.848741   -0.133251
     23          6           0       -7.859996    5.736331    0.146934
     24          8           0       -9.041402    5.513704    0.247392
     25          6           0       -7.342745    7.111059    0.296702
     26          7           0       -8.091720    0.151691    0.102231
     27          6           0       -8.924254    1.248882   -0.045583
     28          6           0      -10.395473    0.820372   -0.282545
     29          6           0      -10.291752   -0.716531   -0.318510
     30          6           0       -8.767732   -1.023669   -0.092435
     31          6           0      -11.356355    1.332033    0.823641
     32          6           0      -10.770022   -1.276925   -1.598086
     33          6           0      -11.246901   -2.745538   -1.518914
     34          7           0       -5.816690   -1.759388   -0.174219
     35          6           0       -6.837306   -2.681356   -0.183316
     36          6           0       -6.194427   -3.973357   -0.319634
     37          6           0       -4.838402   -3.796676   -0.176044
     38          6           0       -4.662881   -2.413850   -0.154795
     39          6           0       -7.049468   -5.250314   -0.434168
     40          6           0       -3.619473   -4.511950    0.044453
     41          8           0       -3.438529   -5.701850    0.107889
     42          6           0       -2.616351   -3.351229    0.253090
     43          6           0       -2.066801   -3.499223    1.614861
     44          8           0       -2.750341   -3.411421    2.635281
     45          8           0       -0.699013   -3.855732    1.606809
     46          6           0       -0.094237   -4.137786    2.897559
     47          6           0        4.563071   -2.045264   -0.417829
     48          6           0        5.948250   -1.434566   -0.471841
     49          6           0        6.680262   -0.550291    0.236275
     50          6           0        6.184609    0.330333    1.365429
     51          6           0        8.132353   -0.325506   -0.172842
     52          6           0        8.334166    0.671940   -1.318612
     53          6           0        9.102021    0.193997   -2.554266
     54          6           0       10.406451    0.893980   -3.022864
     55          6           0       10.053447    1.874507   -4.138653
     56          6           0       11.598218   -0.016601   -3.428583
     57          6           0       12.903311    0.285324   -2.569103
     58          6           0       13.275103   -0.865907   -1.561504
     59          6           0       13.335742   -0.345506   -0.072957
     60          6           0       14.477535   -1.080082    0.755908
     61          6           0       11.977118   -0.093456    0.605448
     62          6           0       11.570827    1.373125    0.749135
     63          6           0       11.826673    2.028574    2.067762
     64          6           0       10.759290    1.671589    3.056363
     65          6           0        9.500213    2.586671    2.874907
     66          6           0       11.229519    1.840950    4.534337
     67          1           0       -2.775670    3.657409    0.009897
     68          1           0       -9.396331    3.135769   -0.157562
     69          1           0       -8.936649   -3.096641   -0.146581
     70          1           0       -0.984131   -0.300688    1.167865
     71          1           0       -1.048953    1.561580   -1.098731
     72          1           0       -1.393231    2.760911    1.555310
     73          1           0       -0.055069    3.004677    0.339049
     74          1           0        0.100562    1.730661    1.459049
     75          1           0       -0.751215   -0.621658   -1.776831
     76          1           0       -0.445736   -1.998320   -0.613534
     77          1           0        1.309628    0.232465    0.022946
     78          1           0        1.384731   -0.047856   -1.717475
     79          1           0       -4.623526    6.420321   -1.052863
     80          1           0       -3.439644    5.595862   -0.191386
     81          1           0       -4.676358    6.480062    0.736779
     82          1           0       -6.850650    7.277119   -0.661052
     83          1           0       -6.857838    7.154434    1.272737
     84          1           0       -8.208133    7.769242    0.224173
     85          1           0      -10.628730    1.174255   -1.287176
     86          1           0      -10.807047   -1.128993    0.548967
     87          1           0      -10.822065    1.842226    1.624700
     88          1           0      -11.882017    0.507779    1.304593
     89          1           0      -12.126558    1.905413    0.305819
     90          1           0       -9.905137   -1.346920   -2.258047
     91          1           0      -11.638807   -0.779867   -2.029251
     92          1           0      -11.493182   -2.914448   -0.471044
     93          1           0      -10.432599   -3.425670   -1.767956
     94          1           0      -12.162661   -2.959366   -2.071323
     95          1           0       -7.819145   -5.266233   -1.206581
     96          1           0       -7.401960   -5.528926    0.558227
     97          1           0       -6.368797   -6.035101   -0.765156
     98          1           0       -1.732377   -3.592429   -0.337724
     99          1           0        0.217206   -5.182839    2.882676
    100          1           0       -0.682566   -3.993191    3.803247
    101          1           0        0.770679   -3.478066    2.962812
    102          1           0        4.465832   -2.988031   -0.955702
    103          1           0        4.389570   -2.473144    0.569716
    104          1           0        6.505167   -1.940713   -1.259273
    105          1           0        6.719653    1.280203    1.376268
    106          1           0        6.309271   -0.129647    2.345168
    107          1           0        5.123879    0.557757    1.253909
    108          1           0        8.465302   -1.350315   -0.339990
    109          1           0        8.667806    0.034760    0.706015
    110          1           0        8.865966    1.517730   -0.882782
    111          1           0        7.379114    1.154896   -1.520490
    112          1           0        8.385564    0.373054   -3.356111
    113          1           0        9.368018   -0.835072   -2.313547
    114          1           0       10.777794    1.478969   -2.181323
    115          1           0        9.750064    1.356992   -5.049360
    116          1           0       10.984365    2.411759   -4.321223
    117          1           0        9.275146    2.566646   -3.816908
    118          1           0       11.817434    0.074700   -4.492269
    119          1           0       11.343519   -1.044808   -3.171251
    120          1           0       12.897925    1.171741   -1.934687
    121          1           0       13.778337    0.449232   -3.197874
    122          1           0       14.307376   -1.196719   -1.681323
    123          1           0       12.601876   -1.711260   -1.699410
    124          1           0       13.837066    0.622390   -0.072069
    125          1           0       15.466687   -0.669149    0.555981
    126          1           0       14.465991   -2.133356    0.475322
    127          1           0       14.244538   -1.049256    1.820211
    128          1           0       12.069828   -0.503934    1.611292
    129          1           0       11.230390   -0.625722    0.015366
    130          1           0       10.493154    1.383644    0.587509
    131          1           0       11.973709    2.045491   -0.008244
    132          1           0       11.751982    3.063021    1.733903
    133          1           0       12.827407    1.800964    2.433989
    134          1           0       10.504312    0.615998    2.959350
    135          1           0        8.719234    1.889515    3.175215
    136          1           0        9.368915    2.901271    1.838807
    137          1           0        9.584417    3.479413    3.495057
    138          1           0       12.251852    2.217184    4.480085
    139          1           0       11.224340    0.837657    4.960121
    140          1           0       10.618658    2.484596    5.166772
 ---------------------------------------------------------------------

 SCF Done:  E(RwB97XD) =  -3007.85722147     A.U. after   19 cycles

 Excitation energies and oscillator strengths:

 Excited State   1:      Singlet-A      1.6164 eV  767.03 nm  f=0.3557  <S**2>=0.000
     245 -> 248       -0.17267
     246 -> 247        0.68643
     245 <- 248       -0.11358
 This state for optimization and/or second-order correction.
 Total Energy, E(TD-HF/TD-DFT) =  -3007.79781882
 Copying the excited state density for this state as the 1-particle RhoCI density.

 Excited State   2:      Singlet-A      2.2286 eV  556.32 nm  f=0.0567  <S**2>=0.000
     245 -> 247        0.60457
     246 -> 248        0.35306

 Excited State   3:      Singlet-A      3.4164 eV  362.91 nm  f=0.5818  <S**2>=0.000
     242 -> 247       -0.34134
     245 -> 247       -0.27871
     246 -> 248        0.53580
     245 <- 247        0.10097

 Excited State   4:      Singlet-A      3.5382 eV  350.41 nm  f=0.1782  <S**2>=0.000
     242 -> 247       -0.34451
     244 -> 247        0.52060
     245 -> 247        0.16971
     246 -> 248       -0.23750

 Excited State   5:      Singlet-A      3.7045 eV  334.68 nm  f=0.0014  <S**2>=0.000
     239 -> 247        0.13125
     239 -> 249        0.10730
     240 -> 247        0.49245
     240 -> 248       -0.15656
     240 -> 249        0.28935
     240 -> 250       -0.19168
     242 -> 247       -0.13231
     244 -> 247       -0.17578

 The electronic state is 1-A.
 Alpha  occ. eigenvalues --  -46.95259 -19.29624 -19.29172 -19.25224 -19.24095
 Alpha  occ. eigenvalues --  -19.23833 -19.23818 -14.47023 -14.46269 -14.44957
 Alpha  occ. eigenvalues --  -14.43388 -10.43026 -10.42393 -10.39009 -10.38380
 Alpha  occ. eigenvalues --  -10.35699 -10.35604 -10.35592 -10.35511 -10.35444
 Alpha  occ. eigenvalues --  -10.34674 -10.34580 -10.34120 -10.33735 -10.32932
 Alpha  occ. eigenvalues --  -10.32396 -10.32374 -10.32304 -10.32285 -10.32142
 Alpha  occ. eigenvalues --  -10.32086 -10.31588 -10.31505 -10.31489 -10.31475
 Alpha  occ. eigenvalues --  -10.31218 -10.31180 -10.30956 -10.30952 -10.30855
 Alpha  occ. eigenvalues --  -10.30829 -10.30276 -10.30125 -10.29657 -10.29653
 Alpha  occ. eigenvalues --  -10.29637 -10.29609 -10.29573 -10.29520 -10.29477
 Alpha  occ. eigenvalues --  -10.29344 -10.29326 -10.29187 -10.29073 -10.29012
 Alpha  occ. eigenvalues --  -10.28956 -10.28845 -10.28822 -10.28756 -10.28707
 Alpha  occ. eigenvalues --  -10.28562 -10.28422 -10.28355 -10.28258 -10.28243
 Alpha  occ. eigenvalues --  -10.27630  -3.21099  -1.94691  -1.94209  -1.94072
 Alpha  occ. eigenvalues --   -1.19495  -1.16264  -1.13527  -1.12621  -1.10977
 Alpha  occ. eigenvalues --   -1.08546  -1.06059  -1.04245  -1.04131  -1.02696
 Alpha  occ. eigenvalues --   -0.95000  -0.92505  -0.92138  -0.91337  -0.91246
 Alpha  occ. eigenvalues --   -0.90665  -0.90247  -0.89185  -0.89153  -0.88912
 Alpha  occ. eigenvalues --   -0.87557  -0.86679  -0.85956  -0.85578  -0.85286
 Alpha  occ. eigenvalues --   -0.84728  -0.84395  -0.83234  -0.82494  -0.82162
 Alpha  occ. eigenvalues --   -0.81855  -0.80378  -0.80062  -0.78613  -0.77773
 Alpha  occ. eigenvalues --   -0.77538  -0.77282  -0.77219  -0.76875  -0.76190
 Alpha  occ. eigenvalues --   -0.75179  -0.74404  -0.73555  -0.72597  -0.70837
 Alpha  occ. eigenvalues --   -0.70414  -0.70235  -0.69104  -0.68846  -0.67616
 Alpha  occ. eigenvalues --   -0.67278  -0.67113  -0.66764  -0.66169  -0.65922
 Alpha  occ. eigenvalues --   -0.65069  -0.65012  -0.63302  -0.63285  -0.61750
 Alpha  occ. eigenvalues --   -0.61541  -0.61427  -0.61074  -0.60408  -0.59742
 Alpha  occ. eigenvalues --   -0.59093  -0.58940  -0.58216  -0.57855  -0.57064
 Alpha  occ. eigenvalues --   -0.56923  -0.56763  -0.56652  -0.56643  -0.56251
 Alpha  occ. eigenvalues --   -0.55669  -0.55520  -0.55335  -0.55249  -0.54881
 Alpha  occ. eigenvalues --   -0.54416  -0.54040  -0.53924  -0.53627  -0.53450
 Alpha  occ. eigenvalues --   -0.53327  -0.53233  -0.53124  -0.52755  -0.52629
 Alpha  occ. eigenvalues --   -0.52504  -0.52458  -0.52216  -0.52096  -0.51771
 Alpha  occ. eigenvalues --   -0.51360  -0.51136  -0.51082  -0.50912  -0.50746
 Alpha  occ. eigenvalues --   -0.50518  -0.50255  -0.50159  -0.50028  -0.49883
 Alpha  occ. eigenvalues --   -0.49624  -0.49107  -0.48800  -0.48743  -0.48365
 Alpha  occ. eigenvalues --   -0.48305  -0.48252  -0.47974  -0.47638  -0.47569
 Alpha  occ. eigenvalues --   -0.47453  -0.47201  -0.47137  -0.46938  -0.46842
 Alpha  occ. eigenvalues --   -0.46514  -0.46233  -0.46014  -0.45975  -0.45843
 Alpha  occ. eigenvalues --   -0.45462  -0.45397  -0.45297  -0.45181  -0.44953
 Alpha  occ. eigenvalues --   -0.44838  -0.44736  -0.44523  -0.44191  -0.44047
 Alpha  occ. eigenvalues --   -0.43896  -0.43458  -0.43411  -0.43215  -0.43196
 Alpha  occ. eigenvalues --   -0.42990  -0.42768  -0.42177  -0.41977  -0.41755
 Alpha  occ. eigenvalues --   -0.41627  -0.41112  -0.40750  -0.40646  -0.40548
 Alpha  occ. eigenvalues --   -0.40241  -0.40199  -0.39489  -0.39048  -0.38984
 Alpha  occ. eigenvalues --   -0.38860  -0.38561  -0.38345  -0.38199  -0.38105
 Alpha  occ. eigenvalues --   -0.37586  -0.37162  -0.36705  -0.36578  -0.36501
 Alpha  occ. eigenvalues --   -0.36017  -0.35469  -0.35070  -0.33396  -0.33164
 Alpha  occ. eigenvalues --   -0.32764  -0.32484  -0.32157  -0.31827  -0.26347
 Alpha  occ. eigenvalues --   -0.22416
 Alpha virt. eigenvalues --   -0.06682  -0.00050   0.02617   0.04612   0.05627
 Alpha virt. eigenvalues --    0.06542   0.07580   0.07899   0.08625   0.09816
 Alpha virt. eigenvalues --    0.10751   0.11100   0.11681   0.11803   0.12139

 Mulliken charges:
               1
     1  Mg   0.947473
     2  C    0.033157
     3  C   -0.099465
     4  C   -0.039171
     5  C   -0.098320
     6  N   -0.374911
     7  C    0.041992
     8  C   -0.036786
     9  C   -0.147605
    10  C    0.081514
    11  C    0.004569
    12  C    0.028491
    13  C   -0.032637
    14  C    0.191437
    15  O   -0.206565
    16  O   -0.379213
    17  N   -0.484244
    18  C    0.204101
    19  C   -0.178316
    20  C   -0.082374
    21  C    0.209682
    22  C    0.070190
    23  C    0.008637
    24  O   -0.212796
    25  C    0.021929
    26  N   -0.343798
    27  C   -0.018105
    28  C   -0.107775
    29  C   -0.055748
    30  C    0.020085
    31  C    0.036174
    32  C   -0.016794
    33  C   -0.057569
    34  N   -0.437106
    35  C    0.154224
    36  C   -0.198501
    37  C   -0.046326
    38  C    0.127490
    39  C    0.064762
    40  C    0.149714
    41  O   -0.174502
    42  C   -0.132615
    43  C    0.261128
    44  O   -0.253833
    45  O   -0.373986
    46  C    0.134157
    47  C    0.252452
    48  C   -0.126872
    49  C   -0.210131
    50  C    0.033690
    51  C    0.010325
    52  C    0.001470
    53  C    0.045057
    54  C   -0.179311
    55  C   -0.008384
    56  C    0.031811
    57  C   -0.029254
    58  C    0.002314
    59  C   -0.229272
    60  C   -0.019485
    61  C    0.079553
    62  C   -0.055515
    63  C    0.051253
    64  C   -0.260610
    65  C   -0.009274
    66  C    0.009304
    67  H   -0.008777
    68  H    0.019629
    69  H    0.010908
    70  H    0.038857
    71  H    0.044511
    72  H    0.056832
    73  H    0.036534
    74  H    0.043372
    75  H    0.026107
    76  H    0.057624
    77  H    0.051018
    78  H    0.057431
    79  H    0.052153
    80  H    0.031983
    81  H    0.055656
    82  H    0.049436
    83  H    0.081870
    84  H    0.045717
    85  H    0.047180
    86  H    0.029117
    87  H    0.057746
    88  H    0.028426
    89  H    0.046859
    90  H    0.039546
    91  H    0.037270
    92  H    0.019090
    93  H    0.043459
    94  H    0.039443
    95  H    0.039893
    96  H    0.060177
    97  H    0.042379
    98  H    0.074310
    99  H    0.053547
   100  H    0.060581
   101  H    0.050748
   102  H    0.032595
   103  H    0.033026
   104  H    0.014570
   105  H    0.033594
   106  H    0.051699
   107  H    0.039584
   108  H    0.037376
   109  H    0.014085
   110  H    0.004787
   111  H    0.022583
   112  H    0.023631
   113  H    0.006620
   114  H    0.008438
   115  H    0.035527
   116  H    0.026742
   117  H    0.030395
   118  H    0.026704
   119  H    0.013086
   120  H    0.012140
   121  H    0.019600
   122  H    0.013228
   123  H    0.023105
   124  H    0.017037
   125  H    0.039897
   126  H    0.025461
   127  H    0.021789
   128  H    0.006072
   129  H    0.008509
   130  H   -0.023598
   131  H    0.025842
   132  H    0.011935
   133  H    0.014326
   134  H    0.029374
   135  H    0.037242
   136  H    0.027532
   137  H    0.039803
   138  H    0.024549
   139  H    0.026962
   140  H    0.032557
 Sum of Mulliken charges =  -0.00000

 Dipole moment (field-independent basis, Debye):
    X=              3.0006    Y=              6.5598    Z=             -2.1881  Tot=              7.5381
 Quadrupole moment (field-independent basis, Debye-Ang):
   XX=           -368.1483   YY=           -415.0117   ZZ=           -402.1774
   XY=             -0.7377   XZ=             20.2480   YZ=              3.1559

 Normal termination of Gaussian 16 at Fri Apr 29 20:13:00 2022.
