 Gaussian 16, Revision A.03,
 Gaussian 16:  ES64L-G16RevA.03 25-Dec-2016

 --------------------
 #p ZINDO=(nstates=5)
 --------------------

 -----------------------------
 step_451_chromophore_19 ZINDO
 -----------------------------
 Symbolic Z-matrix:
 Charge =  0 Multiplicity = 1

                         Standard orientation:
 ---------------------------------------------------------------------
 Center     Atomic      Atomic             Coordinates (Angstroms)
 Number     Number       Type             X           Y           Z
 ---------------------------------------------------------------------
      1         12           0       -5.900074    0.302177   -0.299653
      2          6           0       -3.288377   -2.030072    0.090596
      3          6           0       -3.537069    2.878035   -0.053294
      4          6           0       -8.469982    2.556909   -0.176349
      5          6           0       -8.167938   -2.324179   -0.218159
      6          7           0       -3.700236    0.434503   -0.076355
      7          6           0       -2.816604   -0.711011    0.058084
      8          6           0       -1.391431   -0.235965    0.159138
      9          6           0       -1.441649    1.350624   -0.104299
     10          6           0       -3.002466    1.580499   -0.089199
     11          6           0       -0.652565    2.292425    0.907043
     12          6           0       -0.430572   -0.921209   -0.778956
     13          6           0        1.114220   -0.497908   -0.762341
     14          6           0        2.219467   -1.544279   -0.407398
     15          8           0        2.033422   -2.526786    0.203131
     16          8           0        3.495024   -1.076602   -0.706369
     17          7           0       -6.005989    2.397016   -0.159439
     18          6           0       -4.887901    3.258745   -0.164878
     19          6           0       -5.430622    4.680210   -0.133425
     20          6           0       -6.867826    4.596037   -0.048914
     21          6           0       -7.196234    3.132510   -0.193707
     22          6           0       -4.498964    5.848741   -0.133251
     23          6           0       -7.859996    5.736331    0.146934
     24          8           0       -9.041402    5.513704    0.247392
     25          6           0       -7.342745    7.111059    0.296702
     26          7           0       -8.091720    0.151691    0.102231
     27          6           0       -8.924254    1.248882   -0.045583
     28          6           0      -10.395473    0.820372   -0.282545
     29          6           0      -10.291752   -0.716531   -0.318510
     30          6           0       -8.767732   -1.023669   -0.092435
     31          6           0      -11.356355    1.332033    0.823641
     32          6           0      -10.770022   -1.276925   -1.598086
     33          6           0      -11.246901   -2.745538   -1.518914
     34          7           0       -5.816690   -1.759388   -0.174219
     35          6           0       -6.837306   -2.681356   -0.183316
     36          6           0       -6.194427   -3.973357   -0.319634
     37          6           0       -4.838402   -3.796676   -0.176044
     38          6           0       -4.662881   -2.413850   -0.154795
     39          6           0       -7.049468   -5.250314   -0.434168
     40          6           0       -3.619473   -4.511950    0.044453
     41          8           0       -3.438529   -5.701850    0.107889
     42          6           0       -2.616351   -3.351229    0.253090
     43          6           0       -2.066801   -3.499223    1.614861
     44          8           0       -2.750341   -3.411421    2.635281
     45          8           0       -0.699013   -3.855732    1.606809
     46          6           0       -0.094237   -4.137786    2.897559
     47          6           0        4.563071   -2.045264   -0.417829
     48          6           0        5.948250   -1.434566   -0.471841
     49          6           0        6.680262   -0.550291    0.236275
     50          6           0        6.184609    0.330333    1.365429
     51          6           0        8.132353   -0.325506   -0.172842
     52          6           0        8.334166    0.671940   -1.318612
     53          6           0        9.102021    0.193997   -2.554266
     54          6           0       10.406451    0.893980   -3.022864
     55          6           0       10.053447    1.874507   -4.138653
     56          6           0       11.598218   -0.016601   -3.428583
     57          6           0       12.903311    0.285324   -2.569103
     58          6           0       13.275103   -0.865907   -1.561504
     59          6           0       13.335742   -0.345506   -0.072957
     60          6           0       14.477535   -1.080082    0.755908
     61          6           0       11.977118   -0.093456    0.605448
     62          6           0       11.570827    1.373125    0.749135
     63          6           0       11.826673    2.028574    2.067762
     64          6           0       10.759290    1.671589    3.056363
     65          6           0        9.500213    2.586671    2.874907
     66          6           0       11.229519    1.840950    4.534337
     67          1           0       -2.775670    3.657409    0.009897
     68          1           0       -9.396331    3.135769   -0.157562
     69          1           0       -8.936649   -3.096641   -0.146581
     70          1           0       -0.984131   -0.300688    1.167865
     71          1           0       -1.048953    1.561580   -1.098731
     72          1           0       -1.393231    2.760911    1.555310
     73          1           0       -0.055069    3.004677    0.339049
     74          1           0        0.100562    1.730661    1.459049
     75          1           0       -0.751215   -0.621658   -1.776831
     76          1           0       -0.445736   -1.998320   -0.613534
     77          1           0        1.309628    0.232465    0.022946
     78          1           0        1.384731   -0.047856   -1.717475
     79          1           0       -4.623526    6.420321   -1.052863
     80          1           0       -3.439644    5.595862   -0.191386
     81          1           0       -4.676358    6.480062    0.736779
     82          1           0       -6.850650    7.277119   -0.661052
     83          1           0       -6.857838    7.154434    1.272737
     84          1           0       -8.208133    7.769242    0.224173
     85          1           0      -10.628730    1.174255   -1.287176
     86          1           0      -10.807047   -1.128993    0.548967
     87          1           0      -10.822065    1.842226    1.624700
     88          1           0      -11.882017    0.507779    1.304593
     89          1           0      -12.126558    1.905413    0.305819
     90          1           0       -9.905137   -1.346920   -2.258047
     91          1           0      -11.638807   -0.779867   -2.029251
     92          1           0      -11.493182   -2.914448   -0.471044
     93          1           0      -10.432599   -3.425670   -1.767956
     94          1           0      -12.162661   -2.959366   -2.071323
     95          1           0       -7.819145   -5.266233   -1.206581
     96          1           0       -7.401960   -5.528926    0.558227
     97          1           0       -6.368797   -6.035101   -0.765156
     98          1           0       -1.732377   -3.592429   -0.337724
     99          1           0        0.217206   -5.182839    2.882676
    100          1           0       -0.682566   -3.993191    3.803247
    101          1           0        0.770679   -3.478066    2.962812
    102          1           0        4.465832   -2.988031   -0.955702
    103          1           0        4.389570   -2.473144    0.569716
    104          1           0        6.505167   -1.940713   -1.259273
    105          1           0        6.719653    1.280203    1.376268
    106          1           0        6.309271   -0.129647    2.345168
    107          1           0        5.123879    0.557757    1.253909
    108          1           0        8.465302   -1.350315   -0.339990
    109          1           0        8.667806    0.034760    0.706015
    110          1           0        8.865966    1.517730   -0.882782
    111          1           0        7.379114    1.154896   -1.520490
    112          1           0        8.385564    0.373054   -3.356111
    113          1           0        9.368018   -0.835072   -2.313547
    114          1           0       10.777794    1.478969   -2.181323
    115          1           0        9.750064    1.356992   -5.049360
    116          1           0       10.984365    2.411759   -4.321223
    117          1           0        9.275146    2.566646   -3.816908
    118          1           0       11.817434    0.074700   -4.492269
    119          1           0       11.343519   -1.044808   -3.171251
    120          1           0       12.897925    1.171741   -1.934687
    121          1           0       13.778337    0.449232   -3.197874
    122          1           0       14.307376   -1.196719   -1.681323
    123          1           0       12.601876   -1.711260   -1.699410
    124          1           0       13.837066    0.622390   -0.072069
    125          1           0       15.466687   -0.669149    0.555981
    126          1           0       14.465991   -2.133356    0.475322
    127          1           0       14.244538   -1.049256    1.820211
    128          1           0       12.069828   -0.503934    1.611292
    129          1           0       11.230390   -0.625722    0.015366
    130          1           0       10.493154    1.383644    0.587509
    131          1           0       11.973709    2.045491   -0.008244
    132          1           0       11.751982    3.063021    1.733903
    133          1           0       12.827407    1.800964    2.433989
    134          1           0       10.504312    0.615998    2.959350
    135          1           0        8.719234    1.889515    3.175215
    136          1           0        9.368915    2.901271    1.838807
    137          1           0        9.584417    3.479413    3.495057
    138          1           0       12.251852    2.217184    4.480085
    139          1           0       11.224340    0.837657    4.960121
    140          1           0       10.618658    2.484596    5.166772
 ---------------------------------------------------------------------

 SCF Done:  E(RZINDO/S) =  -474.223121585     A.U. after   19 cycles

 Excitation energies and oscillator strengths:

 Excited State   1:      Singlet-A      1.2278 eV 1009.80 nm  f=0.5618  <S**2>=0.000
     175 ->178        -0.17756
     176 ->177         0.66727
 This state for optimization and/or second-order correction.
 Total Energy, E(CIS/TDA) =  -474.178000456
 Copying the excited state density for this state as the 1-particle RhoCI density.

 Excited State   2:      Singlet-A      1.9493 eV  636.05 nm  f=0.0009  <S**2>=0.000
     175 ->177         0.47877
     176 ->178         0.49899

 Excited State   3:      Singlet-A      2.9347 eV  422.48 nm  f=0.0357  <S**2>=0.000
     176 ->179         0.65156
     176 ->180         0.15372
     176 ->182         0.10361

 Excited State   4:      Singlet-A      2.9778 eV  416.36 nm  f=0.9376  <S**2>=0.000
     168 ->177        -0.15892
     168 ->179         0.18789
     168 ->180        -0.13884
     168 ->186         0.11562
     175 ->177        -0.41042
     176 ->178         0.41434
     176 ->180        -0.11510

 Excited State   5:      Singlet-A      3.0141 eV  411.34 nm  f=0.2689  <S**2>=0.000
     168 ->177        -0.25507
     168 ->178         0.12846
     168 ->179         0.34996
     168 ->180        -0.25408
     168 ->186         0.21539
     168 ->187        -0.11519
     175 ->177         0.21994
     176 ->178        -0.22354

 The electronic state is 1-A.
 Alpha  occ. eigenvalues --   -1.85040  -1.78306  -1.76464  -1.73266  -1.70594
 Alpha  occ. eigenvalues --   -1.68457  -1.67557  -1.61087  -1.61024  -1.58797
 Alpha  occ. eigenvalues --   -1.55844  -1.51372  -1.49243  -1.48720  -1.48101
 Alpha  occ. eigenvalues --   -1.44406  -1.42687  -1.39680  -1.39223  -1.37808
 Alpha  occ. eigenvalues --   -1.35908  -1.32309  -1.31726  -1.30460  -1.28359
 Alpha  occ. eigenvalues --   -1.27274  -1.25357  -1.23350  -1.22080  -1.18175
 Alpha  occ. eigenvalues --   -1.17259  -1.15638  -1.15248  -1.13713  -1.13291
 Alpha  occ. eigenvalues --   -1.11612  -1.11002  -1.10238  -1.04553  -1.03487
 Alpha  occ. eigenvalues --   -1.03262  -1.00913  -0.99017  -0.97008  -0.96221
 Alpha  occ. eigenvalues --   -0.96206  -0.94869  -0.93082  -0.92228  -0.91864
 Alpha  occ. eigenvalues --   -0.91216  -0.91083  -0.89527  -0.88150  -0.86074
 Alpha  occ. eigenvalues --   -0.84666  -0.84438  -0.83270  -0.81798  -0.80421
 Alpha  occ. eigenvalues --   -0.80172  -0.78827  -0.77741  -0.77093  -0.76244
 Alpha  occ. eigenvalues --   -0.75478  -0.75294  -0.74660  -0.74119  -0.73286
 Alpha  occ. eigenvalues --   -0.72816  -0.72223  -0.72141  -0.71747  -0.70709
 Alpha  occ. eigenvalues --   -0.70357  -0.70040  -0.69437  -0.68405  -0.68081
 Alpha  occ. eigenvalues --   -0.67329  -0.66480  -0.66019  -0.65909  -0.65070
 Alpha  occ. eigenvalues --   -0.64949  -0.64340  -0.64139  -0.63670  -0.63187
 Alpha  occ. eigenvalues --   -0.63015  -0.62831  -0.62497  -0.62418  -0.62140
 Alpha  occ. eigenvalues --   -0.62021  -0.61977  -0.60826  -0.60404  -0.60021
 Alpha  occ. eigenvalues --   -0.59777  -0.59480  -0.59238  -0.58623  -0.58025
 Alpha  occ. eigenvalues --   -0.57481  -0.57380  -0.57157  -0.56844  -0.56593
 Alpha  occ. eigenvalues --   -0.56291  -0.55190  -0.55033  -0.54769  -0.54591
 Alpha  occ. eigenvalues --   -0.53693  -0.53670  -0.53478  -0.53416  -0.52921
 Alpha  occ. eigenvalues --   -0.52481  -0.52096  -0.51828  -0.51577  -0.51524
 Alpha  occ. eigenvalues --   -0.50880  -0.50839  -0.50510  -0.50230  -0.49901
 Alpha  occ. eigenvalues --   -0.49622  -0.49097  -0.49018  -0.48742  -0.48626
 Alpha  occ. eigenvalues --   -0.48555  -0.48252  -0.48001  -0.47658  -0.47144
 Alpha  occ. eigenvalues --   -0.46918  -0.46877  -0.46490  -0.46178  -0.46137
 Alpha  occ. eigenvalues --   -0.45767  -0.45671  -0.45356  -0.45305  -0.44957
 Alpha  occ. eigenvalues --   -0.44866  -0.44568  -0.44559  -0.44248  -0.44029
 Alpha  occ. eigenvalues --   -0.43968  -0.43252  -0.42434  -0.42220  -0.42192
 Alpha  occ. eigenvalues --   -0.42153  -0.41857  -0.40588  -0.38887  -0.38608
 Alpha  occ. eigenvalues --   -0.37495  -0.36941  -0.35686  -0.34609  -0.34141
 Alpha  occ. eigenvalues --   -0.33591  -0.32432  -0.32321  -0.32236  -0.27035
 Alpha  occ. eigenvalues --   -0.21145
 Alpha virt. eigenvalues --   -0.07985  -0.02220  -0.00385   0.01332   0.02455
 Alpha virt. eigenvalues --    0.02616   0.02881   0.03443   0.04673   0.05157
 Alpha virt. eigenvalues --    0.06164   0.06558   0.06962   0.07526   0.08404

 Mulliken charges:
               1
     1  Mg   0.425323
     2  C   -0.023972
     3  C   -0.093260
     4  C   -0.056468
     5  C   -0.052771
     6  N   -0.295396
     7  C    0.086352
     8  C    0.014810
     9  C   -0.017166
    10  C    0.167581
    11  C   -0.055941
    12  C   -0.023040
    13  C   -0.007772
    14  C    0.461518
    15  O   -0.489131
    16  O   -0.279943
    17  N   -0.335296
    18  C    0.123783
    19  C    0.012249
    20  C   -0.044899
    21  C    0.143007
    22  C   -0.037577
    23  C    0.336037
    24  O   -0.516464
    25  C   -0.035092
    26  N   -0.271007
    27  C    0.139239
    28  C    0.003649
    29  C    0.013144
    30  C    0.086466
    31  C   -0.049216
    32  C   -0.026848
    33  C   -0.068079
    34  N   -0.303233
    35  C    0.074206
    36  C    0.023356
    37  C   -0.048267
    38  C    0.106567
    39  C   -0.050085
    40  C    0.345357
    41  O   -0.511903
    42  C    0.068243
    43  C    0.484507
    44  O   -0.525101
    45  O   -0.270784
    46  C    0.076720
    47  C    0.104438
    48  C   -0.090190
    49  C    0.007754
    50  C   -0.040270
    51  C   -0.020607
    52  C   -0.027823
    53  C   -0.036529
    54  C   -0.014802
    55  C   -0.053000
    56  C   -0.032116
    57  C   -0.047606
    58  C   -0.039279
    59  C   -0.028014
    60  C   -0.061342
    61  C   -0.027498
    62  C   -0.036021
    63  C   -0.025487
    64  C   -0.013204
    65  C   -0.060642
    66  C   -0.066925
    67  H    0.026532
    68  H    0.040015
    69  H    0.027636
    70  H    0.037182
    71  H    0.031738
    72  H    0.033931
    73  H    0.018947
    74  H    0.023196
    75  H    0.020729
    76  H    0.038957
    77  H    0.042258
    78  H    0.034566
    79  H    0.028656
    80  H    0.024459
    81  H    0.033442
    82  H    0.043183
    83  H    0.058451
    84  H    0.032648
    85  H    0.036179
    86  H    0.032253
    87  H    0.034973
    88  H    0.017899
    89  H    0.023807
    90  H    0.025476
    91  H    0.021241
    92  H    0.011520
    93  H    0.023310
    94  H    0.020553
    95  H    0.028274
    96  H    0.037735
    97  H    0.019207
    98  H    0.050707
    99  H    0.036757
   100  H    0.050631
   101  H    0.032153
   102  H    0.047277
   103  H    0.040685
   104  H    0.011737
   105  H    0.020758
   106  H    0.032358
   107  H    0.021399
   108  H    0.025312
   109  H    0.017136
   110  H    0.009938
   111  H    0.021508
   112  H    0.024215
   113  H    0.023668
   114  H    0.018772
   115  H    0.022429
   116  H    0.010875
   117  H    0.017248
   118  H    0.026054
   119  H    0.022239
   120  H    0.027023
   121  H    0.013978
   122  H    0.016482
   123  H    0.027017
   124  H    0.009810
   125  H    0.024906
   126  H    0.012695
   127  H    0.016940
   128  H    0.020426
   129  H    0.018649
   130  H    0.011574
   131  H    0.014548
   132  H    0.015578
   133  H    0.020473
   134  H    0.023433
   135  H    0.019684
   136  H    0.016793
   137  H    0.026735
   138  H    0.018880
   139  H    0.013736
   140  H    0.023593
 Sum of Mulliken charges =  -0.00000

 Dipole moment (field-independent basis, Debye):
    X=              4.3694    Y=             10.0477    Z=             -3.9571  Tot=             11.6493
 N-N= 4.299236316780D+03 E-N= 0.000000000000D+00  KE=-9.273157128282D+03
 Leave Link  601 at Fri Apr 29 20:25:12 2022, MaxMem=  6710886400 cpu:               0.8 elap:               0.0
 (Enter /sw/apps/gaussian-16.0/g16/l9999.exe)
 1\1\GINC-BP1-COMPUTE070\SP\RZINDO CIS\STO-3G\C55H74Mg1N4O6\OF15641\29-
 Apr-2022\0\\#p ZINDO=(nstates=5)\\step_451_chromophore_19 ZINDO\\0,1\M
 g,0,25.69,50.409,26.605\C,0,23.829,51.343,29.447\C,0,28.281,49.384,28.
 73\C,0,27.68,49.971,23.857\C,0,23.184,51.743,24.608\N,0,26.013,50.306,
 28.794\C,0,25.056,50.759,29.789\C,0,25.607,50.505,31.167\C,0,26.964,49
 .669,30.946\C,0,27.1,49.779,29.378\C,0,28.263,50.149,31.73\C,0,24.664,
 49.79,32.101\C,0,25.141,49.464,33.595\C,0,24.372,50.056,34.82\O,0,23.6

 Normal termination of Gaussian 16 at Fri Apr 29 20:25:12 2022.
