 Gaussian 16, Revision A.03,
 Gaussian 16:  ES64L-G16RevA.03 25-Dec-2016

 ------------------------------
 #p blyp/Def2SVP td=(nstates=5)
 ------------------------------

 -------------------------------------------------
 step_951_chromophore_1 TDDFT with blyp functional
 -------------------------------------------------
 Symbolic Z-matrix:
 Charge =  0 Multiplicity = 1

                         Standard orientation:
 ---------------------------------------------------------------------
 Center     Atomic      Atomic             Coordinates (Angstroms)
 Number     Number       Type             X           Y           Z
 ---------------------------------------------------------------------
      1         12           0        5.785933    0.429270   -0.080758
      2          6           0        3.740464   -2.275165   -0.753542
      3          6           0        3.550679    2.527337   -1.407049
      4          6           0        8.093675    3.028835    0.142154
      5          6           0        8.394888   -1.816180    0.866056
      6          7           0        3.925906    0.136588   -0.947619
      7          6           0        3.184414   -1.016222   -0.997085
      8          6           0        1.749331   -0.717586   -1.535459
      9          6           0        2.021257    0.670065   -2.300315
     10          6           0        3.214725    1.162244   -1.496109
     11          6           0        2.263882    0.624434   -3.842610
     12          6           0        0.693252   -0.627747   -0.400167
     13          6           0       -0.710797   -1.135201   -0.795905
     14          6           0       -1.618281   -1.811131    0.302414
     15          8           0       -1.194015   -2.343089    1.285065
     16          8           0       -2.907853   -1.598224   -0.039633
     17          7           0        5.675123    2.559268   -0.370514
     18          6           0        4.651449    3.170880   -0.933064
     19          6           0        4.837318    4.621624   -0.765209
     20          6           0        6.165258    4.832240   -0.243579
     21          6           0        6.715493    3.466033   -0.095113
     22          6           0        3.793105    5.719140   -1.124864
     23          6           0        6.834477    6.037648    0.065302
     24          8           0        7.990825    6.039982    0.513824
     25          6           0        6.166580    7.362440   -0.129740
     26          7           0        8.022711    0.647287    0.350664
     27          6           0        8.714788    1.785186    0.323738
     28          6           0       10.190863    1.494967    0.476193
     29          6           0       10.228478   -0.000176    0.989408
     30          6           0        8.830101   -0.487077    0.675135
     31          6           0       11.145413    1.884204   -0.657351
     32          6           0       10.630861   -0.096748    2.528913
     33          6           0        9.524271    0.023166    3.618619
     34          7           0        6.050854   -1.555561    0.086210
     35          6           0        7.155457   -2.375520    0.438103
     36          6           0        6.848640   -3.804296    0.260288
     37          6           0        5.490124   -3.790742   -0.110564
     38          6           0        5.033797   -2.465665   -0.274832
     39          6           0        7.809676   -4.878331    0.473464
     40          6           0        4.436475   -4.607002   -0.436931
     41          8           0        4.305438   -5.856568   -0.386038
     42          6           0        3.274275   -3.694398   -0.892175
     43          6           0        2.039469   -4.076551   -0.140172
     44          8           0        1.848914   -3.873243    1.035014
     45          8           0        1.177088   -4.854431   -0.913102
     46          6           0       -0.038366   -5.371835   -0.123130
     47          6           0       -3.915640   -2.158366    0.907100
     48          6           0       -5.272319   -1.774578    0.348253
     49          6           0       -6.368856   -2.527923    0.106858
     50          6           0       -6.701699   -3.952574    0.442507
     51          6           0       -7.447541   -1.881114   -0.768766
     52          6           0       -8.326463   -1.034138    0.165926
     53          6           0       -8.550295    0.290392   -0.452588
     54          6           0       -8.547731    1.593950    0.438286
     55          6           0       -7.094082    2.098577    0.665958
     56          6           0       -9.185962    1.411700    1.840738
     57          6           0      -10.256746    2.425200    2.215267
     58          6           0      -11.401807    1.752807    2.983281
     59          6           0      -12.827196    1.848788    2.305400
     60          6           0      -13.957758    2.004663    3.349661
     61          6           0      -13.130960    0.746051    1.321972
     62          6           0      -12.775174    1.148060   -0.103908
     63          6           0      -14.075906    1.529189   -0.883524
     64          6           0      -14.135214    0.632449   -2.129568
     65          6           0      -13.296933    1.081091   -3.354224
     66          6           0      -15.549204    0.171956   -2.500813
     67          1           0        2.855701    3.162089   -1.960014
     68          1           0        8.779312    3.877478    0.187244
     69          1           0        9.142103   -2.586663    1.067448
     70          1           0        1.498086   -1.495910   -2.256460
     71          1           0        1.170940    1.329283   -2.125568
     72          1           0        1.531737    1.192774   -4.415119
     73          1           0        2.155311   -0.424835   -4.117495
     74          1           0        3.225137    1.063102   -4.110335
     75          1           0        0.695952    0.442059   -0.189747
     76          1           0        0.993016   -1.132441    0.517239
     77          1           0       -0.661236   -1.907891   -1.562573
     78          1           0       -1.215466   -0.263546   -1.213211
     79          1           0        4.256483    6.174998   -2.000158
     80          1           0        3.674101    6.410865   -0.291319
     81          1           0        2.780195    5.352882   -1.290915
     82          1           0        5.482006    7.535598    0.701455
     83          1           0        5.634295    7.501670   -1.070451
     84          1           0        6.857148    8.203820   -0.071500
     85          1           0       10.521456    2.058814    1.348219
     86          1           0       10.815819   -0.711137    0.409210
     87          1           0       10.524326    2.462273   -1.341038
     88          1           0       11.672248    1.037316   -1.097918
     89          1           0       11.897361    2.531597   -0.205097
     90          1           0       11.353004    0.691853    2.740531
     91          1           0       11.216838   -1.013410    2.591644
     92          1           0        8.519139    0.158282    3.219029
     93          1           0        9.669151    0.824144    4.343656
     94          1           0        9.597834   -0.896378    4.200045
     95          1           0        8.879248   -4.672985    0.520123
     96          1           0        7.773967   -5.608577   -0.333906
     97          1           0        7.502058   -5.396966    1.381603
     98          1           0        3.177007   -4.006195   -1.931736
     99          1           0        0.258876   -5.871551    0.798732
    100          1           0       -0.702728   -5.991255   -0.724944
    101          1           0       -0.645469   -4.573332    0.303404
    102          1           0       -3.792463   -1.728146    1.900371
    103          1           0       -3.801337   -3.241739    0.878380
    104          1           0       -5.322248   -0.753566   -0.030416
    105          1           0       -7.532848   -3.924035    1.146982
    106          1           0       -5.779624   -4.345410    0.870074
    107          1           0       -7.050740   -4.603124   -0.359689
    108          1           0       -8.038516   -2.576399   -1.365020
    109          1           0       -6.811606   -1.328639   -1.460896
    110          1           0       -7.853654   -0.951936    1.144694
    111          1           0       -9.322044   -1.458995    0.297124
    112          1           0       -9.490568    0.200897   -0.997425
    113          1           0       -7.802156    0.372791   -1.240476
    114          1           0       -9.094518    2.285853   -0.201273
    115          1           0       -6.805905    2.147326    1.715186
    116          1           0       -7.113431    3.097398    0.230868
    117          1           0       -6.413640    1.473077    0.087397
    118          1           0       -8.563449    1.310481    2.729670
    119          1           0       -9.727793    0.466408    1.853964
    120          1           0      -10.676169    2.934257    1.347577
    121          1           0       -9.794435    3.156062    2.877594
    122          1           0      -11.252395    2.181513    3.974014
    123          1           0      -11.159008    0.697774    3.110306
    124          1           0      -12.898942    2.826631    1.828186
    125          1           0      -14.551584    1.092213    3.409877
    126          1           0      -14.556076    2.876228    3.087725
    127          1           0      -13.540197    2.091919    4.353232
    128          1           0      -14.166389    0.406962    1.324232
    129          1           0      -12.650501   -0.145400    1.725029
    130          1           0      -12.232645    0.313801   -0.550153
    131          1           0      -11.978842    1.891064   -0.144754
    132          1           0      -13.885538    2.536815   -1.252176
    133          1           0      -14.940339    1.485208   -0.220991
    134          1           0      -13.671774   -0.306327   -1.824207
    135          1           0      -12.404060    1.597664   -3.002808
    136          1           0      -13.778594    1.731074   -4.084017
    137          1           0      -12.995523    0.142134   -3.819499
    138          1           0      -16.271602    0.832185   -2.020489
    139          1           0      -15.874971   -0.820974   -2.189082
    140          1           0      -15.633417    0.185112   -3.588161
 ---------------------------------------------------------------------

 SCF Done:  E(RB-LYP) =  -3007.35192418     A.U. after   21 cycles

 Excitation energies and oscillator strengths:

 Excited State   1:      Singlet-A      1.6891 eV  734.04 nm  f=0.0043  <S**2>=0.000
     244 -> 247        0.64075
     245 -> 247       -0.28786
 This state for optimization and/or second-order correction.
 Total Energy, E(TD-HF/TD-DFT) =  -3007.28985212
 Copying the excited state density for this state as the 1-particle RhoCI density.

 Excited State   2:      Singlet-A      1.7627 eV  703.39 nm  f=0.2430  <S**2>=0.000
     243 -> 247       -0.27914
     245 -> 248        0.17107
     246 -> 247        0.62602
     246 <- 247       -0.13862

 Excited State   3:      Singlet-A      1.7802 eV  696.46 nm  f=0.0695  <S**2>=0.000
     243 -> 247        0.61026
     244 -> 247        0.13580
     245 -> 247        0.13763
     246 -> 247        0.29021

 Excited State   4:      Singlet-A      1.9571 eV  633.51 nm  f=0.0612  <S**2>=0.000
     243 -> 247       -0.20540
     244 -> 247        0.24834
     245 -> 247        0.56843
     246 -> 248       -0.23470

 Excited State   5:      Singlet-A      2.3530 eV  526.91 nm  f=0.0001  <S**2>=0.000
     241 -> 247        0.69417
     242 -> 247       -0.13066

 The electronic state is 1-A.
 Alpha  occ. eigenvalues --  -46.26575 -18.82565 -18.80836 -18.77258 -18.75490
 Alpha  occ. eigenvalues --  -18.74606 -18.74321 -14.03487 -14.02625 -14.01062
 Alpha  occ. eigenvalues --  -14.00861 -10.04198 -10.02591  -9.98848  -9.98705
 Alpha  occ. eigenvalues --   -9.98107  -9.96899  -9.96769  -9.96753  -9.96394
 Alpha  occ. eigenvalues --   -9.96376  -9.96153  -9.95691  -9.95377  -9.94829
 Alpha  occ. eigenvalues --   -9.94543  -9.94463  -9.94436  -9.93926  -9.93738
 Alpha  occ. eigenvalues --   -9.93536  -9.93466  -9.93404  -9.93364  -9.93281
 Alpha  occ. eigenvalues --   -9.93246  -9.92998  -9.92989  -9.92834  -9.92824
 Alpha  occ. eigenvalues --   -9.92739  -9.92658  -9.92516  -9.92481  -9.92381
 Alpha  occ. eigenvalues --   -9.92209  -9.92126  -9.92092  -9.91817  -9.91812
 Alpha  occ. eigenvalues --   -9.91629  -9.91509  -9.91500  -9.91383  -9.91377
 Alpha  occ. eigenvalues --   -9.91287  -9.90987  -9.90848  -9.90809  -9.90790
 Alpha  occ. eigenvalues --   -9.90776  -9.90758  -9.90700  -9.90619  -9.90611
 Alpha  occ. eigenvalues --   -9.90373  -2.91254  -1.71686  -1.71112  -1.70989
 Alpha  occ. eigenvalues --   -0.98693  -0.95581  -0.91311  -0.90325  -0.88688
 Alpha  occ. eigenvalues --   -0.87780  -0.86486  -0.85492  -0.84782  -0.83678
 Alpha  occ. eigenvalues --   -0.75850  -0.74525  -0.73471  -0.72337  -0.72120
 Alpha  occ. eigenvalues --   -0.71796  -0.71265  -0.71055  -0.70516  -0.70376
 Alpha  occ. eigenvalues --   -0.70211  -0.69261  -0.68477  -0.67335  -0.66845
 Alpha  occ. eigenvalues --   -0.66307  -0.65684  -0.65522  -0.64875  -0.64706
 Alpha  occ. eigenvalues --   -0.63978  -0.62986  -0.62579  -0.61522  -0.60968
 Alpha  occ. eigenvalues --   -0.60579  -0.60409  -0.59651  -0.59437  -0.58867
 Alpha  occ. eigenvalues --   -0.58185  -0.57524  -0.56957  -0.55458  -0.54777
 Alpha  occ. eigenvalues --   -0.54452  -0.53524  -0.53446  -0.53215  -0.51621
 Alpha  occ. eigenvalues --   -0.51483  -0.50733  -0.50404  -0.50087  -0.49979
 Alpha  occ. eigenvalues --   -0.49595  -0.49250  -0.48394  -0.47151  -0.46634
 Alpha  occ. eigenvalues --   -0.46216  -0.45976  -0.45475  -0.44672  -0.44095
 Alpha  occ. eigenvalues --   -0.43832  -0.43698  -0.42905  -0.42756  -0.42524
 Alpha  occ. eigenvalues --   -0.42213  -0.42003  -0.41516  -0.41185  -0.41093
 Alpha  occ. eigenvalues --   -0.40785  -0.40480  -0.40090  -0.40072  -0.39853
 Alpha  occ. eigenvalues --   -0.39689  -0.39618  -0.39491  -0.39331  -0.38963
 Alpha  occ. eigenvalues --   -0.38875  -0.38688  -0.38477  -0.38456  -0.38198
 Alpha  occ. eigenvalues --   -0.38052  -0.37672  -0.37576  -0.37352  -0.37238
 Alpha  occ. eigenvalues --   -0.37175  -0.36959  -0.36682  -0.36551  -0.36481
 Alpha  occ. eigenvalues --   -0.36191  -0.35925  -0.35894  -0.35769  -0.35609
 Alpha  occ. eigenvalues --   -0.35442  -0.34988  -0.34860  -0.34796  -0.34597
 Alpha  occ. eigenvalues --   -0.34554  -0.34337  -0.34138  -0.34034  -0.33883
 Alpha  occ. eigenvalues --   -0.33738  -0.33526  -0.33445  -0.33338  -0.33215
 Alpha  occ. eigenvalues --   -0.33023  -0.32468  -0.32422  -0.32188  -0.31881
 Alpha  occ. eigenvalues --   -0.31838  -0.31810  -0.31582  -0.31427  -0.31245
 Alpha  occ. eigenvalues --   -0.31131  -0.30981  -0.30802  -0.30504  -0.30437
 Alpha  occ. eigenvalues --   -0.30247  -0.30055  -0.29903  -0.29758  -0.29687
 Alpha  occ. eigenvalues --   -0.29594  -0.29396  -0.29340  -0.29187  -0.29014
 Alpha  occ. eigenvalues --   -0.28929  -0.28572  -0.28234  -0.27954  -0.27889
 Alpha  occ. eigenvalues --   -0.27778  -0.27050  -0.26788  -0.26393  -0.26273
 Alpha  occ. eigenvalues --   -0.26188  -0.26142  -0.26096  -0.25542  -0.25447
 Alpha  occ. eigenvalues --   -0.24232  -0.23995  -0.23776  -0.23631  -0.23273
 Alpha  occ. eigenvalues --   -0.23235  -0.22376  -0.21839  -0.20704  -0.20604
 Alpha  occ. eigenvalues --   -0.20359  -0.20187  -0.18179  -0.17873  -0.17206
 Alpha  occ. eigenvalues --   -0.15839
 Alpha virt. eigenvalues --   -0.11710  -0.07110  -0.06540  -0.04738  -0.02601
 Alpha virt. eigenvalues --   -0.02347  -0.01588  -0.01500  -0.01229   0.00398
 Alpha virt. eigenvalues --    0.01199   0.01468   0.01647   0.02474   0.02539

 Mulliken charges:
               1
     1  Mg   0.700935
     2  C    0.086340
     3  C   -0.083014
     4  C   -0.012838
     5  C   -0.023969
     6  N   -0.251604
     7  C   -0.065009
     8  C   -0.039682
     9  C   -0.004966
    10  C    0.016577
    11  C    0.146972
    12  C    0.144802
    13  C    0.097711
    14  C    0.080814
    15  O   -0.160184
    16  O   -0.268715
    17  N   -0.259783
    18  C    0.162056
    19  C   -0.162498
    20  C    0.108935
    21  C    0.067214
    22  C    0.167625
    23  C   -0.126238
    24  O   -0.184158
    25  C    0.133616
    26  N   -0.206749
    27  C   -0.006728
    28  C    0.045081
    29  C    0.015540
    30  C    0.008888
    31  C    0.159691
    32  C    0.072700
    33  C    0.066798
    34  N   -0.336728
    35  C    0.082012
    36  C   -0.132763
    37  C    0.185748
    38  C    0.061378
    39  C    0.165927
    40  C   -0.139595
    41  O   -0.171988
    42  C    0.103054
    43  C    0.102044
    44  O   -0.167354
    45  O   -0.296397
    46  C    0.219468
    47  C    0.333012
    48  C   -0.112629
    49  C   -0.174886
    50  C    0.173693
    51  C    0.110989
    52  C    0.077804
    53  C    0.051324
    54  C   -0.031814
    55  C    0.120211
    56  C    0.067894
    57  C    0.086227
    58  C    0.092746
    59  C   -0.071718
    60  C    0.102831
    61  C    0.128386
    62  C    0.039684
    63  C    0.148093
    64  C   -0.107580
    65  C    0.106915
    66  C    0.103133
    67  H   -0.068128
    68  H   -0.045759
    69  H   -0.064157
    70  H   -0.032841
    71  H   -0.038680
    72  H   -0.009164
    73  H   -0.003661
    74  H    0.001410
    75  H   -0.025626
    76  H    0.015871
    77  H    0.002619
    78  H   -0.008327
    79  H    0.024651
    80  H    0.005165
    81  H   -0.009057
    82  H    0.006602
    83  H   -0.009342
    84  H   -0.019342
    85  H   -0.026458
    86  H   -0.032446
    87  H   -0.003453
    88  H   -0.004384
    89  H   -0.009449
    90  H   -0.022594
    91  H   -0.023309
    92  H    0.016986
    93  H   -0.010419
    94  H   -0.006846
    95  H   -0.014792
    96  H    0.001357
    97  H    0.015238
    98  H   -0.009344
    99  H    0.015358
   100  H    0.011154
   101  H    0.002997
   102  H    0.013145
   103  H   -0.002849
   104  H   -0.029742
   105  H   -0.002722
   106  H   -0.021105
   107  H    0.000798
   108  H   -0.031246
   109  H   -0.011457
   110  H   -0.009726
   111  H   -0.021068
   112  H   -0.041244
   113  H   -0.044825
   114  H   -0.035162
   115  H   -0.010329
   116  H   -0.020478
   117  H   -0.017495
   118  H   -0.028859
   119  H   -0.034532
   120  H   -0.031374
   121  H   -0.040333
   122  H   -0.039308
   123  H   -0.041531
   124  H   -0.039842
   125  H   -0.026002
   126  H   -0.008888
   127  H   -0.030450
   128  H   -0.041742
   129  H   -0.051347
   130  H   -0.030746
   131  H   -0.031292
   132  H   -0.038270
   133  H   -0.018664
   134  H   -0.036741
   135  H   -0.023370
   136  H   -0.006301
   137  H   -0.012693
   138  H   -0.023643
   139  H   -0.018653
   140  H   -0.027022
 Sum of Mulliken charges =  -0.00000

 Dipole moment (field-independent basis, Debye):
    X=             -3.6981    Y=              2.9397    Z=             -2.6429  Tot=              5.4132
 Quadrupole moment (field-independent basis, Debye-Ang):
   XX=           -369.8300   YY=           -430.1569   ZZ=           -404.0385
   XY=              1.5612   XZ=             -0.1895   YZ=             -4.2810

 Normal termination of Gaussian 16 at Thu May  5 14:56:58 2022.
