 Gaussian 16, Revision A.03,
 Gaussian 16:  ES64L-G16RevA.03 25-Dec-2016

 -----------------------------------
 #p cam-b3lyp/Def2SVP td=(nstates=5)
 -----------------------------------

 ------------------------------------------------------
 step_951_chromophore_1 TDDFT with cam-b3lyp functional
 ------------------------------------------------------
 Symbolic Z-matrix:
 Charge =  0 Multiplicity = 1

                         Standard orientation:
 ---------------------------------------------------------------------
 Center     Atomic      Atomic             Coordinates (Angstroms)
 Number     Number       Type             X           Y           Z
 ---------------------------------------------------------------------
      1         12           0        5.785933    0.429270   -0.080758
      2          6           0        3.740464   -2.275165   -0.753542
      3          6           0        3.550679    2.527337   -1.407049
      4          6           0        8.093675    3.028835    0.142154
      5          6           0        8.394888   -1.816180    0.866056
      6          7           0        3.925906    0.136588   -0.947619
      7          6           0        3.184414   -1.016222   -0.997085
      8          6           0        1.749331   -0.717586   -1.535459
      9          6           0        2.021257    0.670065   -2.300315
     10          6           0        3.214725    1.162244   -1.496109
     11          6           0        2.263882    0.624434   -3.842610
     12          6           0        0.693252   -0.627747   -0.400167
     13          6           0       -0.710797   -1.135201   -0.795905
     14          6           0       -1.618281   -1.811131    0.302414
     15          8           0       -1.194015   -2.343089    1.285065
     16          8           0       -2.907853   -1.598224   -0.039633
     17          7           0        5.675123    2.559268   -0.370514
     18          6           0        4.651449    3.170880   -0.933064
     19          6           0        4.837318    4.621624   -0.765209
     20          6           0        6.165258    4.832240   -0.243579
     21          6           0        6.715493    3.466033   -0.095113
     22          6           0        3.793105    5.719140   -1.124864
     23          6           0        6.834477    6.037648    0.065302
     24          8           0        7.990825    6.039982    0.513824
     25          6           0        6.166580    7.362440   -0.129740
     26          7           0        8.022711    0.647287    0.350664
     27          6           0        8.714788    1.785186    0.323738
     28          6           0       10.190863    1.494967    0.476193
     29          6           0       10.228478   -0.000176    0.989408
     30          6           0        8.830101   -0.487077    0.675135
     31          6           0       11.145413    1.884204   -0.657351
     32          6           0       10.630861   -0.096748    2.528913
     33          6           0        9.524271    0.023166    3.618619
     34          7           0        6.050854   -1.555561    0.086210
     35          6           0        7.155457   -2.375520    0.438103
     36          6           0        6.848640   -3.804296    0.260288
     37          6           0        5.490124   -3.790742   -0.110564
     38          6           0        5.033797   -2.465665   -0.274832
     39          6           0        7.809676   -4.878331    0.473464
     40          6           0        4.436475   -4.607002   -0.436931
     41          8           0        4.305438   -5.856568   -0.386038
     42          6           0        3.274275   -3.694398   -0.892175
     43          6           0        2.039469   -4.076551   -0.140172
     44          8           0        1.848914   -3.873243    1.035014
     45          8           0        1.177088   -4.854431   -0.913102
     46          6           0       -0.038366   -5.371835   -0.123130
     47          6           0       -3.915640   -2.158366    0.907100
     48          6           0       -5.272319   -1.774578    0.348253
     49          6           0       -6.368856   -2.527923    0.106858
     50          6           0       -6.701699   -3.952574    0.442507
     51          6           0       -7.447541   -1.881114   -0.768766
     52          6           0       -8.326463   -1.034138    0.165926
     53          6           0       -8.550295    0.290392   -0.452588
     54          6           0       -8.547731    1.593950    0.438286
     55          6           0       -7.094082    2.098577    0.665958
     56          6           0       -9.185962    1.411700    1.840738
     57          6           0      -10.256746    2.425200    2.215267
     58          6           0      -11.401807    1.752807    2.983281
     59          6           0      -12.827196    1.848788    2.305400
     60          6           0      -13.957758    2.004663    3.349661
     61          6           0      -13.130960    0.746051    1.321972
     62          6           0      -12.775174    1.148060   -0.103908
     63          6           0      -14.075906    1.529189   -0.883524
     64          6           0      -14.135214    0.632449   -2.129568
     65          6           0      -13.296933    1.081091   -3.354224
     66          6           0      -15.549204    0.171956   -2.500813
     67          1           0        2.855701    3.162089   -1.960014
     68          1           0        8.779312    3.877478    0.187244
     69          1           0        9.142103   -2.586663    1.067448
     70          1           0        1.498086   -1.495910   -2.256460
     71          1           0        1.170940    1.329283   -2.125568
     72          1           0        1.531737    1.192774   -4.415119
     73          1           0        2.155311   -0.424835   -4.117495
     74          1           0        3.225137    1.063102   -4.110335
     75          1           0        0.695952    0.442059   -0.189747
     76          1           0        0.993016   -1.132441    0.517239
     77          1           0       -0.661236   -1.907891   -1.562573
     78          1           0       -1.215466   -0.263546   -1.213211
     79          1           0        4.256483    6.174998   -2.000158
     80          1           0        3.674101    6.410865   -0.291319
     81          1           0        2.780195    5.352882   -1.290915
     82          1           0        5.482006    7.535598    0.701455
     83          1           0        5.634295    7.501670   -1.070451
     84          1           0        6.857148    8.203820   -0.071500
     85          1           0       10.521456    2.058814    1.348219
     86          1           0       10.815819   -0.711137    0.409210
     87          1           0       10.524326    2.462273   -1.341038
     88          1           0       11.672248    1.037316   -1.097918
     89          1           0       11.897361    2.531597   -0.205097
     90          1           0       11.353004    0.691853    2.740531
     91          1           0       11.216838   -1.013410    2.591644
     92          1           0        8.519139    0.158282    3.219029
     93          1           0        9.669151    0.824144    4.343656
     94          1           0        9.597834   -0.896378    4.200045
     95          1           0        8.879248   -4.672985    0.520123
     96          1           0        7.773967   -5.608577   -0.333906
     97          1           0        7.502058   -5.396966    1.381603
     98          1           0        3.177007   -4.006195   -1.931736
     99          1           0        0.258876   -5.871551    0.798732
    100          1           0       -0.702728   -5.991255   -0.724944
    101          1           0       -0.645469   -4.573332    0.303404
    102          1           0       -3.792463   -1.728146    1.900371
    103          1           0       -3.801337   -3.241739    0.878380
    104          1           0       -5.322248   -0.753566   -0.030416
    105          1           0       -7.532848   -3.924035    1.146982
    106          1           0       -5.779624   -4.345410    0.870074
    107          1           0       -7.050740   -4.603124   -0.359689
    108          1           0       -8.038516   -2.576399   -1.365020
    109          1           0       -6.811606   -1.328639   -1.460896
    110          1           0       -7.853654   -0.951936    1.144694
    111          1           0       -9.322044   -1.458995    0.297124
    112          1           0       -9.490568    0.200897   -0.997425
    113          1           0       -7.802156    0.372791   -1.240476
    114          1           0       -9.094518    2.285853   -0.201273
    115          1           0       -6.805905    2.147326    1.715186
    116          1           0       -7.113431    3.097398    0.230868
    117          1           0       -6.413640    1.473077    0.087397
    118          1           0       -8.563449    1.310481    2.729670
    119          1           0       -9.727793    0.466408    1.853964
    120          1           0      -10.676169    2.934257    1.347577
    121          1           0       -9.794435    3.156062    2.877594
    122          1           0      -11.252395    2.181513    3.974014
    123          1           0      -11.159008    0.697774    3.110306
    124          1           0      -12.898942    2.826631    1.828186
    125          1           0      -14.551584    1.092213    3.409877
    126          1           0      -14.556076    2.876228    3.087725
    127          1           0      -13.540197    2.091919    4.353232
    128          1           0      -14.166389    0.406962    1.324232
    129          1           0      -12.650501   -0.145400    1.725029
    130          1           0      -12.232645    0.313801   -0.550153
    131          1           0      -11.978842    1.891064   -0.144754
    132          1           0      -13.885538    2.536815   -1.252176
    133          1           0      -14.940339    1.485208   -0.220991
    134          1           0      -13.671774   -0.306327   -1.824207
    135          1           0      -12.404060    1.597664   -3.002808
    136          1           0      -13.778594    1.731074   -4.084017
    137          1           0      -12.995523    0.142134   -3.819499
    138          1           0      -16.271602    0.832185   -2.020489
    139          1           0      -15.874971   -0.820974   -2.189082
    140          1           0      -15.633417    0.185112   -3.588161
 ---------------------------------------------------------------------

 SCF Done:  E(RCAM-B3LYP) =  -3007.14231647     A.U. after   18 cycles

 Excitation energies and oscillator strengths:

 Excited State   1:      Singlet-A      1.6646 eV  744.82 nm  f=0.3792  <S**2>=0.000
     245 -> 248       -0.18478
     246 -> 247        0.68463
     245 <- 248       -0.10960
 This state for optimization and/or second-order correction.
 Total Energy, E(TD-HF/TD-DFT) =  -3007.08114275
 Copying the excited state density for this state as the 1-particle RhoCI density.

 Excited State   2:      Singlet-A      2.1743 eV  570.23 nm  f=0.0966  <S**2>=0.000
     245 -> 247        0.63890
     246 -> 248        0.28876

 Excited State   3:      Singlet-A      3.3247 eV  372.92 nm  f=0.0360  <S**2>=0.000
     241 -> 247       -0.31881
     243 -> 247       -0.30511
     243 -> 249        0.10738
     243 -> 250       -0.10308
     244 -> 247        0.47376
     246 -> 248        0.17333

 Excited State   4:      Singlet-A      3.3364 eV  371.61 nm  f=0.0665  <S**2>=0.000
     241 -> 247       -0.25413
     243 -> 247        0.46012
     243 -> 249       -0.24474
     243 -> 250        0.21341
     244 -> 247        0.14699
     246 -> 248        0.23217

 Excited State   5:      Singlet-A      3.4095 eV  363.65 nm  f=0.2116  <S**2>=0.000
     239 -> 247       -0.18843
     241 -> 247       -0.12822
     243 -> 247       -0.14738
     244 -> 247       -0.41016
     245 -> 247       -0.16314
     246 -> 248        0.44438

 The electronic state is 1-A.
 Alpha  occ. eigenvalues --  -46.88085 -19.25409 -19.23607 -19.20137 -19.18468
 Alpha  occ. eigenvalues --  -19.18118 -19.17087 -14.42357 -14.41545 -14.39689
 Alpha  occ. eigenvalues --  -14.39170 -10.39373 -10.37887 -10.34316 -10.33131
 Alpha  occ. eigenvalues --  -10.32841 -10.31606 -10.31540 -10.31306 -10.30748
 Alpha  occ. eigenvalues --  -10.30627 -10.30367 -10.30068 -10.30035 -10.29635
 Alpha  occ. eigenvalues --  -10.28657 -10.28576 -10.28534 -10.28079 -10.28026
 Alpha  occ. eigenvalues --  -10.27647 -10.27498 -10.27405 -10.27368 -10.27349
 Alpha  occ. eigenvalues --  -10.27315 -10.27155 -10.27044 -10.26799 -10.26767
 Alpha  occ. eigenvalues --  -10.26609 -10.26569 -10.26486 -10.26470 -10.26085
 Alpha  occ. eigenvalues --  -10.25982 -10.25853 -10.25817 -10.25748 -10.25522
 Alpha  occ. eigenvalues --  -10.25502 -10.25335 -10.25024 -10.24992 -10.24978
 Alpha  occ. eigenvalues --  -10.24891 -10.24644 -10.24491 -10.24470 -10.24448
 Alpha  occ. eigenvalues --  -10.24436 -10.24390 -10.24361 -10.24239 -10.24193
 Alpha  occ. eigenvalues --  -10.23964  -3.16671  -1.91579  -1.91104  -1.91000
 Alpha  occ. eigenvalues --   -1.17135  -1.13997  -1.09137  -1.09000  -1.06674
 Alpha  occ. eigenvalues --   -1.05473  -1.04306  -1.03279  -1.02412  -1.00980
 Alpha  occ. eigenvalues --   -0.92796  -0.91453  -0.90302  -0.89054  -0.88836
 Alpha  occ. eigenvalues --   -0.88540  -0.87959  -0.87641  -0.87472  -0.86891
 Alpha  occ. eigenvalues --   -0.86560  -0.85573  -0.84810  -0.83454  -0.82886
 Alpha  occ. eigenvalues --   -0.82402  -0.81713  -0.81564  -0.81055  -0.80564
 Alpha  occ. eigenvalues --   -0.79706  -0.78935  -0.78230  -0.76972  -0.76328
 Alpha  occ. eigenvalues --   -0.75898  -0.75762  -0.74926  -0.74708  -0.74104
 Alpha  occ. eigenvalues --   -0.73200  -0.72465  -0.71890  -0.70352  -0.69415
 Alpha  occ. eigenvalues --   -0.69230  -0.68023  -0.67990  -0.67711  -0.65786
 Alpha  occ. eigenvalues --   -0.65776  -0.64863  -0.64332  -0.64021  -0.63925
 Alpha  occ. eigenvalues --   -0.63351  -0.63187  -0.62190  -0.60718  -0.60222
 Alpha  occ. eigenvalues --   -0.60003  -0.59441  -0.58935  -0.57869  -0.57536
 Alpha  occ. eigenvalues --   -0.57147  -0.56995  -0.55920  -0.55878  -0.55670
 Alpha  occ. eigenvalues --   -0.55350  -0.55079  -0.54407  -0.54114  -0.53959
 Alpha  occ. eigenvalues --   -0.53668  -0.53228  -0.53160  -0.53082  -0.52596
 Alpha  occ. eigenvalues --   -0.52406  -0.52327  -0.52128  -0.52013  -0.51718
 Alpha  occ. eigenvalues --   -0.51261  -0.50952  -0.50898  -0.50780  -0.50678
 Alpha  occ. eigenvalues --   -0.50475  -0.50194  -0.50040  -0.49694  -0.49531
 Alpha  occ. eigenvalues --   -0.49392  -0.49220  -0.49075  -0.48765  -0.48717
 Alpha  occ. eigenvalues --   -0.48505  -0.48417  -0.48044  -0.47967  -0.47867
 Alpha  occ. eigenvalues --   -0.47564  -0.47345  -0.46894  -0.46626  -0.46411
 Alpha  occ. eigenvalues --   -0.46371  -0.46124  -0.45988  -0.45813  -0.45619
 Alpha  occ. eigenvalues --   -0.45537  -0.45219  -0.45118  -0.45031  -0.44926
 Alpha  occ. eigenvalues --   -0.44673  -0.44160  -0.44036  -0.43904  -0.43606
 Alpha  occ. eigenvalues --   -0.43508  -0.43262  -0.43193  -0.43145  -0.42930
 Alpha  occ. eigenvalues --   -0.42889  -0.42435  -0.42150  -0.41931  -0.41874
 Alpha  occ. eigenvalues --   -0.41618  -0.41528  -0.41491  -0.41175  -0.40933
 Alpha  occ. eigenvalues --   -0.40838  -0.40738  -0.40537  -0.40297  -0.40244
 Alpha  occ. eigenvalues --   -0.40217  -0.39540  -0.39351  -0.38920  -0.38843
 Alpha  occ. eigenvalues --   -0.38626  -0.37844  -0.37837  -0.37557  -0.37556
 Alpha  occ. eigenvalues --   -0.37030  -0.36884  -0.36882  -0.36265  -0.36198
 Alpha  occ. eigenvalues --   -0.35142  -0.34757  -0.34482  -0.34275  -0.34130
 Alpha  occ. eigenvalues --   -0.33687  -0.33363  -0.32736  -0.31130  -0.30777
 Alpha  occ. eigenvalues --   -0.30164  -0.30069  -0.29798  -0.29267  -0.24044
 Alpha  occ. eigenvalues --   -0.21117
 Alpha virt. eigenvalues --   -0.08863  -0.02024  -0.00302   0.02112   0.03607
 Alpha virt. eigenvalues --    0.04879   0.05015   0.06092   0.06365   0.06590
 Alpha virt. eigenvalues --    0.07218   0.08223   0.08645   0.08728   0.09264

 Mulliken charges:
               1
     1  Mg   0.833010
     2  C    0.048391
     3  C   -0.099173
     4  C   -0.035368
     5  C   -0.030585
     6  N   -0.324759
     7  C   -0.019069
     8  C   -0.085542
     9  C   -0.058914
    10  C    0.036826
    11  C    0.089873
    12  C    0.090213
    13  C    0.033557
    14  C    0.158092
    15  O   -0.201258
    16  O   -0.333256
    17  N   -0.347107
    18  C    0.173086
    19  C   -0.158664
    20  C    0.031024
    21  C    0.100224
    22  C    0.110099
    23  C   -0.047346
    24  O   -0.224706
    25  C    0.049071
    26  N   -0.272622
    27  C    0.017170
    28  C   -0.012282
    29  C   -0.036055
    30  C    0.024241
    31  C    0.098825
    32  C    0.018736
    33  C    0.005494
    34  N   -0.423391
    35  C    0.088319
    36  C   -0.130858
    37  C    0.101091
    38  C    0.094359
    39  C    0.110989
    40  C   -0.039325
    41  O   -0.214838
    42  C    0.031020
    43  C    0.186667
    44  O   -0.202566
    45  O   -0.361832
    46  C    0.183053
    47  C    0.302134
    48  C   -0.132788
    49  C   -0.197503
    50  C    0.115415
    51  C    0.048862
    52  C    0.021048
    53  C    0.008400
    54  C   -0.088288
    55  C    0.063961
    56  C    0.012525
    57  C    0.034460
    58  C    0.040405
    59  C   -0.131659
    60  C    0.047926
    61  C    0.071549
    62  C   -0.009272
    63  C    0.089144
    64  C   -0.167732
    65  C    0.049146
    66  C    0.044925
    67  H   -0.034380
    68  H   -0.004787
    69  H   -0.030144
    70  H    0.001528
    71  H   -0.002673
    72  H    0.015940
    73  H    0.020790
    74  H    0.027234
    75  H    0.002818
    76  H    0.050137
    77  H    0.031729
    78  H    0.023791
    79  H    0.050470
    80  H    0.032523
    81  H    0.021323
    82  H    0.036586
    83  H    0.020224
    84  H    0.019128
    85  H    0.009709
    86  H    0.003021
    87  H    0.021157
    88  H    0.020719
    89  H    0.014880
    90  H    0.004598
    91  H    0.004609
    92  H    0.037930
    93  H    0.013566
    94  H    0.016626
    95  H    0.010276
    96  H    0.027805
    97  H    0.041086
    98  H    0.034968
    99  H    0.040982
   100  H    0.035028
   101  H    0.022129
   102  H    0.042129
   103  H    0.023758
   104  H    0.001170
   105  H    0.021753
   106  H    0.001861
   107  H    0.026243
   108  H    0.000101
   109  H    0.019105
   110  H    0.018217
   111  H    0.005736
   112  H   -0.014709
   113  H   -0.015613
   114  H   -0.002863
   115  H    0.013324
   116  H    0.004403
   117  H    0.001891
   118  H    0.000207
   119  H   -0.009294
   120  H   -0.005796
   121  H   -0.010046
   122  H   -0.008297
   123  H   -0.013536
   124  H   -0.007602
   125  H   -0.002159
   126  H    0.014417
   127  H   -0.004841
   128  H   -0.011172
   129  H   -0.021436
   130  H   -0.005627
   131  H   -0.008417
   132  H   -0.007983
   133  H    0.009133
   134  H   -0.004117
   135  H   -0.000667
   136  H    0.017316
   137  H    0.011325
   138  H    0.000143
   139  H    0.005985
   140  H   -0.001939
 Sum of Mulliken charges =  -0.00000

 Dipole moment (field-independent basis, Debye):
    X=             -3.8638    Y=              4.2089    Z=             -2.9260  Tot=              6.4192
 Quadrupole moment (field-independent basis, Debye-Ang):
   XX=           -368.9909   YY=           -425.0500   ZZ=           -403.8636
   XY=              8.5578   XZ=             -0.9568   YZ=             -5.0259

 Normal termination of Gaussian 16 at Thu May  5 13:52:30 2022.
