 Gaussian 16, Revision A.03,
 Gaussian 16:  ES64L-G16RevA.03 25-Dec-2016

 ---------------------------------
 #p PBE1PBE/Def2SVP td=(nstates=5)
 ---------------------------------

 ----------------------------------------------------
 step_951_chromophore_1 TDDFT with PBE1PBE functional
 ----------------------------------------------------
 Symbolic Z-matrix:
 Charge =  0 Multiplicity = 1

                         Standard orientation:
 ---------------------------------------------------------------------
 Center     Atomic      Atomic             Coordinates (Angstroms)
 Number     Number       Type             X           Y           Z
 ---------------------------------------------------------------------
      1         12           0        5.785933    0.429270   -0.080758
      2          6           0        3.740464   -2.275165   -0.753542
      3          6           0        3.550679    2.527337   -1.407049
      4          6           0        8.093675    3.028835    0.142154
      5          6           0        8.394888   -1.816180    0.866056
      6          7           0        3.925906    0.136588   -0.947619
      7          6           0        3.184414   -1.016222   -0.997085
      8          6           0        1.749331   -0.717586   -1.535459
      9          6           0        2.021257    0.670065   -2.300315
     10          6           0        3.214725    1.162244   -1.496109
     11          6           0        2.263882    0.624434   -3.842610
     12          6           0        0.693252   -0.627747   -0.400167
     13          6           0       -0.710797   -1.135201   -0.795905
     14          6           0       -1.618281   -1.811131    0.302414
     15          8           0       -1.194015   -2.343089    1.285065
     16          8           0       -2.907853   -1.598224   -0.039633
     17          7           0        5.675123    2.559268   -0.370514
     18          6           0        4.651449    3.170880   -0.933064
     19          6           0        4.837318    4.621624   -0.765209
     20          6           0        6.165258    4.832240   -0.243579
     21          6           0        6.715493    3.466033   -0.095113
     22          6           0        3.793105    5.719140   -1.124864
     23          6           0        6.834477    6.037648    0.065302
     24          8           0        7.990825    6.039982    0.513824
     25          6           0        6.166580    7.362440   -0.129740
     26          7           0        8.022711    0.647287    0.350664
     27          6           0        8.714788    1.785186    0.323738
     28          6           0       10.190863    1.494967    0.476193
     29          6           0       10.228478   -0.000176    0.989408
     30          6           0        8.830101   -0.487077    0.675135
     31          6           0       11.145413    1.884204   -0.657351
     32          6           0       10.630861   -0.096748    2.528913
     33          6           0        9.524271    0.023166    3.618619
     34          7           0        6.050854   -1.555561    0.086210
     35          6           0        7.155457   -2.375520    0.438103
     36          6           0        6.848640   -3.804296    0.260288
     37          6           0        5.490124   -3.790742   -0.110564
     38          6           0        5.033797   -2.465665   -0.274832
     39          6           0        7.809676   -4.878331    0.473464
     40          6           0        4.436475   -4.607002   -0.436931
     41          8           0        4.305438   -5.856568   -0.386038
     42          6           0        3.274275   -3.694398   -0.892175
     43          6           0        2.039469   -4.076551   -0.140172
     44          8           0        1.848914   -3.873243    1.035014
     45          8           0        1.177088   -4.854431   -0.913102
     46          6           0       -0.038366   -5.371835   -0.123130
     47          6           0       -3.915640   -2.158366    0.907100
     48          6           0       -5.272319   -1.774578    0.348253
     49          6           0       -6.368856   -2.527923    0.106858
     50          6           0       -6.701699   -3.952574    0.442507
     51          6           0       -7.447541   -1.881114   -0.768766
     52          6           0       -8.326463   -1.034138    0.165926
     53          6           0       -8.550295    0.290392   -0.452588
     54          6           0       -8.547731    1.593950    0.438286
     55          6           0       -7.094082    2.098577    0.665958
     56          6           0       -9.185962    1.411700    1.840738
     57          6           0      -10.256746    2.425200    2.215267
     58          6           0      -11.401807    1.752807    2.983281
     59          6           0      -12.827196    1.848788    2.305400
     60          6           0      -13.957758    2.004663    3.349661
     61          6           0      -13.130960    0.746051    1.321972
     62          6           0      -12.775174    1.148060   -0.103908
     63          6           0      -14.075906    1.529189   -0.883524
     64          6           0      -14.135214    0.632449   -2.129568
     65          6           0      -13.296933    1.081091   -3.354224
     66          6           0      -15.549204    0.171956   -2.500813
     67          1           0        2.855701    3.162089   -1.960014
     68          1           0        8.779312    3.877478    0.187244
     69          1           0        9.142103   -2.586663    1.067448
     70          1           0        1.498086   -1.495910   -2.256460
     71          1           0        1.170940    1.329283   -2.125568
     72          1           0        1.531737    1.192774   -4.415119
     73          1           0        2.155311   -0.424835   -4.117495
     74          1           0        3.225137    1.063102   -4.110335
     75          1           0        0.695952    0.442059   -0.189747
     76          1           0        0.993016   -1.132441    0.517239
     77          1           0       -0.661236   -1.907891   -1.562573
     78          1           0       -1.215466   -0.263546   -1.213211
     79          1           0        4.256483    6.174998   -2.000158
     80          1           0        3.674101    6.410865   -0.291319
     81          1           0        2.780195    5.352882   -1.290915
     82          1           0        5.482006    7.535598    0.701455
     83          1           0        5.634295    7.501670   -1.070451
     84          1           0        6.857148    8.203820   -0.071500
     85          1           0       10.521456    2.058814    1.348219
     86          1           0       10.815819   -0.711137    0.409210
     87          1           0       10.524326    2.462273   -1.341038
     88          1           0       11.672248    1.037316   -1.097918
     89          1           0       11.897361    2.531597   -0.205097
     90          1           0       11.353004    0.691853    2.740531
     91          1           0       11.216838   -1.013410    2.591644
     92          1           0        8.519139    0.158282    3.219029
     93          1           0        9.669151    0.824144    4.343656
     94          1           0        9.597834   -0.896378    4.200045
     95          1           0        8.879248   -4.672985    0.520123
     96          1           0        7.773967   -5.608577   -0.333906
     97          1           0        7.502058   -5.396966    1.381603
     98          1           0        3.177007   -4.006195   -1.931736
     99          1           0        0.258876   -5.871551    0.798732
    100          1           0       -0.702728   -5.991255   -0.724944
    101          1           0       -0.645469   -4.573332    0.303404
    102          1           0       -3.792463   -1.728146    1.900371
    103          1           0       -3.801337   -3.241739    0.878380
    104          1           0       -5.322248   -0.753566   -0.030416
    105          1           0       -7.532848   -3.924035    1.146982
    106          1           0       -5.779624   -4.345410    0.870074
    107          1           0       -7.050740   -4.603124   -0.359689
    108          1           0       -8.038516   -2.576399   -1.365020
    109          1           0       -6.811606   -1.328639   -1.460896
    110          1           0       -7.853654   -0.951936    1.144694
    111          1           0       -9.322044   -1.458995    0.297124
    112          1           0       -9.490568    0.200897   -0.997425
    113          1           0       -7.802156    0.372791   -1.240476
    114          1           0       -9.094518    2.285853   -0.201273
    115          1           0       -6.805905    2.147326    1.715186
    116          1           0       -7.113431    3.097398    0.230868
    117          1           0       -6.413640    1.473077    0.087397
    118          1           0       -8.563449    1.310481    2.729670
    119          1           0       -9.727793    0.466408    1.853964
    120          1           0      -10.676169    2.934257    1.347577
    121          1           0       -9.794435    3.156062    2.877594
    122          1           0      -11.252395    2.181513    3.974014
    123          1           0      -11.159008    0.697774    3.110306
    124          1           0      -12.898942    2.826631    1.828186
    125          1           0      -14.551584    1.092213    3.409877
    126          1           0      -14.556076    2.876228    3.087725
    127          1           0      -13.540197    2.091919    4.353232
    128          1           0      -14.166389    0.406962    1.324232
    129          1           0      -12.650501   -0.145400    1.725029
    130          1           0      -12.232645    0.313801   -0.550153
    131          1           0      -11.978842    1.891064   -0.144754
    132          1           0      -13.885538    2.536815   -1.252176
    133          1           0      -14.940339    1.485208   -0.220991
    134          1           0      -13.671774   -0.306327   -1.824207
    135          1           0      -12.404060    1.597664   -3.002808
    136          1           0      -13.778594    1.731074   -4.084017
    137          1           0      -12.995523    0.142134   -3.819499
    138          1           0      -16.271602    0.832185   -2.020489
    139          1           0      -15.874971   -0.820974   -2.189082
    140          1           0      -15.633417    0.185112   -3.588161
 ---------------------------------------------------------------------

 SCF Done:  E(RPBE1PBE) =  -3005.33203462     A.U. after   15 cycles

 Excitation energies and oscillator strengths:

 Excited State   1:      Singlet-A      1.8102 eV  684.93 nm  f=0.3679  <S**2>=0.000
     245 -> 248       -0.17867
     246 -> 247        0.69209
     246 <- 247       -0.10853
 This state for optimization and/or second-order correction.
 Total Energy, E(TD-HF/TD-DFT) =  -3005.26551198
 Copying the excited state density for this state as the 1-particle RhoCI density.

 Excited State   2:      Singlet-A      2.1659 eV  572.43 nm  f=0.0945  <S**2>=0.000
     245 -> 247        0.65219
     246 -> 248        0.25922

 Excited State   3:      Singlet-A      2.7781 eV  446.30 nm  f=0.0004  <S**2>=0.000
     244 -> 247        0.67071
     244 -> 249       -0.16148
     244 -> 250       -0.11681

 Excited State   4:      Singlet-A      2.9181 eV  424.87 nm  f=0.0006  <S**2>=0.000
     241 -> 247        0.65577
     241 -> 249        0.18164

 Excited State   5:      Singlet-A      2.9960 eV  413.83 nm  f=0.0030  <S**2>=0.000
     240 -> 247       -0.14191
     243 -> 247        0.67726

 The electronic state is 1-A.
 Alpha  occ. eigenvalues --  -46.91489 -19.26129 -19.24359 -19.20420 -19.18745
 Alpha  occ. eigenvalues --  -19.18157 -19.17596 -14.41901 -14.41027 -14.39228
 Alpha  occ. eigenvalues --  -14.38993 -10.36425 -10.34978 -10.31190 -10.30434
 Alpha  occ. eigenvalues --  -10.30232 -10.29173 -10.29127 -10.29075 -10.28570
 Alpha  occ. eigenvalues --  -10.28281 -10.27682 -10.27662 -10.27449 -10.27387
 Alpha  occ. eigenvalues --  -10.26551 -10.26393 -10.26347 -10.25994 -10.25368
 Alpha  occ. eigenvalues --  -10.25330 -10.25276 -10.25266 -10.25126 -10.24933
 Alpha  occ. eigenvalues --  -10.24840 -10.24787 -10.24740 -10.24364 -10.24214
 Alpha  occ. eigenvalues --  -10.24201 -10.24183 -10.24181 -10.23845 -10.23693
 Alpha  occ. eigenvalues --  -10.23671 -10.23415 -10.23179 -10.23171 -10.23129
 Alpha  occ. eigenvalues --  -10.23038 -10.22962 -10.22584 -10.22441 -10.22440
 Alpha  occ. eigenvalues --  -10.22378 -10.22358 -10.22208 -10.22079 -10.22025
 Alpha  occ. eigenvalues --  -10.22006 -10.21930 -10.21782 -10.21770 -10.21567
 Alpha  occ. eigenvalues --  -10.21357  -3.13655  -1.86504  -1.86006  -1.85906
 Alpha  occ. eigenvalues --   -1.11977  -1.08809  -1.04045  -1.03516  -1.01587
 Alpha  occ. eigenvalues --   -1.00389  -0.98852  -0.97812  -0.96990  -0.95774
 Alpha  occ. eigenvalues --   -0.87336  -0.85593  -0.84389  -0.83229  -0.83007
 Alpha  occ. eigenvalues --   -0.82835  -0.82200  -0.81761  -0.81570  -0.81230
 Alpha  occ. eigenvalues --   -0.81002  -0.79777  -0.79001  -0.77700  -0.77205
 Alpha  occ. eigenvalues --   -0.76641  -0.75906  -0.75725  -0.75246  -0.74713
 Alpha  occ. eigenvalues --   -0.74074  -0.73102  -0.72480  -0.71286  -0.70548
 Alpha  occ. eigenvalues --   -0.70217  -0.69843  -0.69257  -0.68857  -0.68269
 Alpha  occ. eigenvalues --   -0.67581  -0.66912  -0.66311  -0.64627  -0.63748
 Alpha  occ. eigenvalues --   -0.63613  -0.62526  -0.62242  -0.61869  -0.60224
 Alpha  occ. eigenvalues --   -0.59953  -0.59418  -0.58833  -0.58562  -0.58138
 Alpha  occ. eigenvalues --   -0.57878  -0.57371  -0.56441  -0.55372  -0.54683
 Alpha  occ. eigenvalues --   -0.54420  -0.53965  -0.53558  -0.52570  -0.52056
 Alpha  occ. eigenvalues --   -0.51594  -0.51466  -0.50580  -0.50351  -0.50102
 Alpha  occ. eigenvalues --   -0.49814  -0.49470  -0.48967  -0.48644  -0.48466
 Alpha  occ. eigenvalues --   -0.48184  -0.47741  -0.47552  -0.47471  -0.47114
 Alpha  occ. eigenvalues --   -0.46952  -0.46893  -0.46651  -0.46538  -0.46276
 Alpha  occ. eigenvalues --   -0.45873  -0.45510  -0.45465  -0.45355  -0.45302
 Alpha  occ. eigenvalues --   -0.45093  -0.44694  -0.44588  -0.44287  -0.44090
 Alpha  occ. eigenvalues --   -0.43980  -0.43797  -0.43670  -0.43382  -0.43302
 Alpha  occ. eigenvalues --   -0.43135  -0.42846  -0.42726  -0.42468  -0.42416
 Alpha  occ. eigenvalues --   -0.42164  -0.42041  -0.41636  -0.41192  -0.41172
 Alpha  occ. eigenvalues --   -0.41069  -0.40882  -0.40714  -0.40543  -0.40362
 Alpha  occ. eigenvalues --   -0.40227  -0.39962  -0.39795  -0.39736  -0.39662
 Alpha  occ. eigenvalues --   -0.39487  -0.38936  -0.38872  -0.38711  -0.38393
 Alpha  occ. eigenvalues --   -0.38353  -0.37998  -0.37896  -0.37839  -0.37647
 Alpha  occ. eigenvalues --   -0.37569  -0.37298  -0.36910  -0.36750  -0.36631
 Alpha  occ. eigenvalues --   -0.36463  -0.36361  -0.36300  -0.36049  -0.35767
 Alpha  occ. eigenvalues --   -0.35662  -0.35610  -0.35324  -0.35208  -0.35164
 Alpha  occ. eigenvalues --   -0.35012  -0.34341  -0.34298  -0.33839  -0.33644
 Alpha  occ. eigenvalues --   -0.33449  -0.32821  -0.32808  -0.32560  -0.32325
 Alpha  occ. eigenvalues --   -0.31950  -0.31841  -0.31696  -0.31361  -0.30992
 Alpha  occ. eigenvalues --   -0.30120  -0.29682  -0.29408  -0.29363  -0.29058
 Alpha  occ. eigenvalues --   -0.28806  -0.28621  -0.27800  -0.26554  -0.25673
 Alpha  occ. eigenvalues --   -0.25469  -0.25359  -0.25092  -0.24792  -0.20945
 Alpha  occ. eigenvalues --   -0.18761
 Alpha virt. eigenvalues --   -0.11325  -0.05502  -0.04416  -0.02257   0.00337
 Alpha virt. eigenvalues --    0.00503   0.00978   0.01655   0.01844   0.02966
 Alpha virt. eigenvalues --    0.03978   0.04368   0.04717   0.05375   0.05520

 Mulliken charges:
               1
     1  Mg   0.983286
     2  C    0.027518
     3  C   -0.087206
     4  C   -0.034273
     5  C   -0.024042
     6  N   -0.429055
     7  C    0.057703
     8  C   -0.154813
     9  C   -0.132794
    10  C    0.069204
    11  C    0.034370
    12  C    0.044709
    13  C   -0.041998
    14  C    0.223865
    15  O   -0.235233
    16  O   -0.363595
    17  N   -0.457169
    18  C    0.190797
    19  C   -0.177989
    20  C   -0.028836
    21  C    0.137542
    22  C    0.048229
    23  C    0.000176
    24  O   -0.263735
    25  C   -0.022331
    26  N   -0.369943
    27  C    0.054651
    28  C   -0.088231
    29  C   -0.107494
    30  C    0.059574
    31  C    0.037622
    32  C   -0.041476
    33  C   -0.067868
    34  N   -0.542451
    35  C    0.112861
    36  C   -0.148312
    37  C    0.047953
    38  C    0.141769
    39  C    0.062325
    40  C    0.052279
    41  O   -0.258919
    42  C   -0.075324
    43  C    0.279583
    44  O   -0.237577
    45  O   -0.392732
    46  C    0.120522
    47  C    0.259261
    48  C   -0.147407
    49  C   -0.245528
    50  C    0.052800
    51  C   -0.014227
    52  C   -0.040913
    53  C   -0.046261
    54  C   -0.174000
    55  C    0.001853
    56  C   -0.045682
    57  C   -0.023487
    58  C   -0.010276
    59  C   -0.222812
    60  C   -0.009260
    61  C    0.019437
    62  C   -0.075862
    63  C    0.031575
    64  C   -0.260571
    65  C   -0.013894
    66  C   -0.013355
    67  H   -0.001540
    68  H    0.027107
    69  H    0.001488
    70  H    0.038581
    71  H    0.033614
    72  H    0.042902
    73  H    0.047735
    74  H    0.054590
    75  H    0.037091
    76  H    0.081458
    77  H    0.063452
    78  H    0.055832
    79  H    0.077715
    80  H    0.059533
    81  H    0.046585
    82  H    0.063372
    83  H    0.045979
    84  H    0.046428
    85  H    0.048694
    86  H    0.039703
    87  H    0.049907
    88  H    0.047225
    89  H    0.041946
    90  H    0.037961
    91  H    0.036300
    92  H    0.067680
    93  H    0.041645
    94  H    0.044180
    95  H    0.036114
    96  H    0.056204
    97  H    0.069674
    98  H    0.072995
    99  H    0.063274
   100  H    0.057590
   101  H    0.051218
   102  H    0.068641
   103  H    0.050697
   104  H    0.034943
   105  H    0.050507
   106  H    0.030664
   107  H    0.052605
   108  H    0.031895
   109  H    0.050121
   110  H    0.051958
   111  H    0.038176
   112  H    0.020907
   113  H    0.017325
   114  H    0.033284
   115  H    0.039896
   116  H    0.032763
   117  H    0.031520
   118  H    0.031538
   119  H    0.026787
   120  H    0.024768
   121  H    0.024368
   122  H    0.023289
   123  H    0.017898
   124  H    0.032083
   125  H    0.025322
   126  H    0.041172
   127  H    0.022842
   128  H    0.020679
   129  H    0.010685
   130  H    0.027572
   131  H    0.026890
   132  H    0.026852
   133  H    0.039139
   134  H    0.035658
   135  H    0.027680
   136  H    0.044228
   137  H    0.039252
   138  H    0.027817
   139  H    0.033015
   140  H    0.025796
 Sum of Mulliken charges =  -0.00000

 Dipole moment (field-independent basis, Debye):
    X=             -3.7984    Y=              3.6184    Z=             -2.8501  Tot=              5.9702
 Quadrupole moment (field-independent basis, Debye-Ang):
   XX=           -362.6320   YY=           -422.9243   ZZ=           -401.1222
   XY=              5.0672   XZ=              0.2117   YZ=             -5.0848

 Normal termination of Gaussian 16 at Thu May  5 14:09:58 2022.
