 Gaussian 16, Revision A.03,
 Gaussian 16:  ES64L-G16RevA.03 25-Dec-2016

 --------------------------------
 #p wB97XD/Def2SVP td=(nstates=5)
 --------------------------------

 ---------------------------------------------------
 step_951_chromophore_1 TDDFT with wB97XD functional
 ---------------------------------------------------
 Symbolic Z-matrix:
 Charge =  0 Multiplicity = 1

                         Standard orientation:
 ---------------------------------------------------------------------
 Center     Atomic      Atomic             Coordinates (Angstroms)
 Number     Number       Type             X           Y           Z
 ---------------------------------------------------------------------
      1         12           0        5.785933    0.429270   -0.080758
      2          6           0        3.740464   -2.275165   -0.753542
      3          6           0        3.550679    2.527337   -1.407049
      4          6           0        8.093675    3.028835    0.142154
      5          6           0        8.394888   -1.816180    0.866056
      6          7           0        3.925906    0.136588   -0.947619
      7          6           0        3.184414   -1.016222   -0.997085
      8          6           0        1.749331   -0.717586   -1.535459
      9          6           0        2.021257    0.670065   -2.300315
     10          6           0        3.214725    1.162244   -1.496109
     11          6           0        2.263882    0.624434   -3.842610
     12          6           0        0.693252   -0.627747   -0.400167
     13          6           0       -0.710797   -1.135201   -0.795905
     14          6           0       -1.618281   -1.811131    0.302414
     15          8           0       -1.194015   -2.343089    1.285065
     16          8           0       -2.907853   -1.598224   -0.039633
     17          7           0        5.675123    2.559268   -0.370514
     18          6           0        4.651449    3.170880   -0.933064
     19          6           0        4.837318    4.621624   -0.765209
     20          6           0        6.165258    4.832240   -0.243579
     21          6           0        6.715493    3.466033   -0.095113
     22          6           0        3.793105    5.719140   -1.124864
     23          6           0        6.834477    6.037648    0.065302
     24          8           0        7.990825    6.039982    0.513824
     25          6           0        6.166580    7.362440   -0.129740
     26          7           0        8.022711    0.647287    0.350664
     27          6           0        8.714788    1.785186    0.323738
     28          6           0       10.190863    1.494967    0.476193
     29          6           0       10.228478   -0.000176    0.989408
     30          6           0        8.830101   -0.487077    0.675135
     31          6           0       11.145413    1.884204   -0.657351
     32          6           0       10.630861   -0.096748    2.528913
     33          6           0        9.524271    0.023166    3.618619
     34          7           0        6.050854   -1.555561    0.086210
     35          6           0        7.155457   -2.375520    0.438103
     36          6           0        6.848640   -3.804296    0.260288
     37          6           0        5.490124   -3.790742   -0.110564
     38          6           0        5.033797   -2.465665   -0.274832
     39          6           0        7.809676   -4.878331    0.473464
     40          6           0        4.436475   -4.607002   -0.436931
     41          8           0        4.305438   -5.856568   -0.386038
     42          6           0        3.274275   -3.694398   -0.892175
     43          6           0        2.039469   -4.076551   -0.140172
     44          8           0        1.848914   -3.873243    1.035014
     45          8           0        1.177088   -4.854431   -0.913102
     46          6           0       -0.038366   -5.371835   -0.123130
     47          6           0       -3.915640   -2.158366    0.907100
     48          6           0       -5.272319   -1.774578    0.348253
     49          6           0       -6.368856   -2.527923    0.106858
     50          6           0       -6.701699   -3.952574    0.442507
     51          6           0       -7.447541   -1.881114   -0.768766
     52          6           0       -8.326463   -1.034138    0.165926
     53          6           0       -8.550295    0.290392   -0.452588
     54          6           0       -8.547731    1.593950    0.438286
     55          6           0       -7.094082    2.098577    0.665958
     56          6           0       -9.185962    1.411700    1.840738
     57          6           0      -10.256746    2.425200    2.215267
     58          6           0      -11.401807    1.752807    2.983281
     59          6           0      -12.827196    1.848788    2.305400
     60          6           0      -13.957758    2.004663    3.349661
     61          6           0      -13.130960    0.746051    1.321972
     62          6           0      -12.775174    1.148060   -0.103908
     63          6           0      -14.075906    1.529189   -0.883524
     64          6           0      -14.135214    0.632449   -2.129568
     65          6           0      -13.296933    1.081091   -3.354224
     66          6           0      -15.549204    0.171956   -2.500813
     67          1           0        2.855701    3.162089   -1.960014
     68          1           0        8.779312    3.877478    0.187244
     69          1           0        9.142103   -2.586663    1.067448
     70          1           0        1.498086   -1.495910   -2.256460
     71          1           0        1.170940    1.329283   -2.125568
     72          1           0        1.531737    1.192774   -4.415119
     73          1           0        2.155311   -0.424835   -4.117495
     74          1           0        3.225137    1.063102   -4.110335
     75          1           0        0.695952    0.442059   -0.189747
     76          1           0        0.993016   -1.132441    0.517239
     77          1           0       -0.661236   -1.907891   -1.562573
     78          1           0       -1.215466   -0.263546   -1.213211
     79          1           0        4.256483    6.174998   -2.000158
     80          1           0        3.674101    6.410865   -0.291319
     81          1           0        2.780195    5.352882   -1.290915
     82          1           0        5.482006    7.535598    0.701455
     83          1           0        5.634295    7.501670   -1.070451
     84          1           0        6.857148    8.203820   -0.071500
     85          1           0       10.521456    2.058814    1.348219
     86          1           0       10.815819   -0.711137    0.409210
     87          1           0       10.524326    2.462273   -1.341038
     88          1           0       11.672248    1.037316   -1.097918
     89          1           0       11.897361    2.531597   -0.205097
     90          1           0       11.353004    0.691853    2.740531
     91          1           0       11.216838   -1.013410    2.591644
     92          1           0        8.519139    0.158282    3.219029
     93          1           0        9.669151    0.824144    4.343656
     94          1           0        9.597834   -0.896378    4.200045
     95          1           0        8.879248   -4.672985    0.520123
     96          1           0        7.773967   -5.608577   -0.333906
     97          1           0        7.502058   -5.396966    1.381603
     98          1           0        3.177007   -4.006195   -1.931736
     99          1           0        0.258876   -5.871551    0.798732
    100          1           0       -0.702728   -5.991255   -0.724944
    101          1           0       -0.645469   -4.573332    0.303404
    102          1           0       -3.792463   -1.728146    1.900371
    103          1           0       -3.801337   -3.241739    0.878380
    104          1           0       -5.322248   -0.753566   -0.030416
    105          1           0       -7.532848   -3.924035    1.146982
    106          1           0       -5.779624   -4.345410    0.870074
    107          1           0       -7.050740   -4.603124   -0.359689
    108          1           0       -8.038516   -2.576399   -1.365020
    109          1           0       -6.811606   -1.328639   -1.460896
    110          1           0       -7.853654   -0.951936    1.144694
    111          1           0       -9.322044   -1.458995    0.297124
    112          1           0       -9.490568    0.200897   -0.997425
    113          1           0       -7.802156    0.372791   -1.240476
    114          1           0       -9.094518    2.285853   -0.201273
    115          1           0       -6.805905    2.147326    1.715186
    116          1           0       -7.113431    3.097398    0.230868
    117          1           0       -6.413640    1.473077    0.087397
    118          1           0       -8.563449    1.310481    2.729670
    119          1           0       -9.727793    0.466408    1.853964
    120          1           0      -10.676169    2.934257    1.347577
    121          1           0       -9.794435    3.156062    2.877594
    122          1           0      -11.252395    2.181513    3.974014
    123          1           0      -11.159008    0.697774    3.110306
    124          1           0      -12.898942    2.826631    1.828186
    125          1           0      -14.551584    1.092213    3.409877
    126          1           0      -14.556076    2.876228    3.087725
    127          1           0      -13.540197    2.091919    4.353232
    128          1           0      -14.166389    0.406962    1.324232
    129          1           0      -12.650501   -0.145400    1.725029
    130          1           0      -12.232645    0.313801   -0.550153
    131          1           0      -11.978842    1.891064   -0.144754
    132          1           0      -13.885538    2.536815   -1.252176
    133          1           0      -14.940339    1.485208   -0.220991
    134          1           0      -13.671774   -0.306327   -1.824207
    135          1           0      -12.404060    1.597664   -3.002808
    136          1           0      -13.778594    1.731074   -4.084017
    137          1           0      -12.995523    0.142134   -3.819499
    138          1           0      -16.271602    0.832185   -2.020489
    139          1           0      -15.874971   -0.820974   -2.189082
    140          1           0      -15.633417    0.185112   -3.588161
 ---------------------------------------------------------------------

 SCF Done:  E(RwB97XD) =  -3007.84077633     A.U. after   20 cycles

 Excitation energies and oscillator strengths:

 Excited State   1:      Singlet-A      1.6119 eV  769.20 nm  f=0.3771  <S**2>=0.000
     245 -> 248       -0.18968
     246 -> 247        0.68233
     245 <- 248       -0.11851
 This state for optimization and/or second-order correction.
 Total Energy, E(TD-HF/TD-DFT) =  -3007.78154128
 Copying the excited state density for this state as the 1-particle RhoCI density.

 Excited State   2:      Singlet-A      2.1200 eV  584.84 nm  f=0.0934  <S**2>=0.000
     245 -> 247        0.63639
     246 -> 248        0.29130

 Excited State   3:      Singlet-A      3.3421 eV  370.98 nm  f=0.1051  <S**2>=0.000
     241 -> 247        0.44319
     244 -> 247       -0.41808
     245 -> 247        0.11048
     246 -> 248       -0.29639

 Excited State   4:      Singlet-A      3.3833 eV  366.46 nm  f=0.0552  <S**2>=0.000
     243 -> 247        0.50621
     243 -> 249       -0.28053
     243 -> 250       -0.25655
     244 -> 247       -0.12412
     246 -> 248        0.20344

 Excited State   5:      Singlet-A      3.4234 eV  362.17 nm  f=0.0489  <S**2>=0.000
     239 -> 247        0.26478
     239 -> 249        0.16978
     240 -> 247        0.38903
     240 -> 248       -0.10826
     240 -> 249        0.28115
     240 -> 250       -0.12765
     243 -> 247        0.12737
     244 -> 247        0.21138
     246 -> 248       -0.19665

 The electronic state is 1-A.
 Alpha  occ. eigenvalues --  -46.94422 -19.30642 -19.28823 -19.25025 -19.23358
 Alpha  occ. eigenvalues --  -19.23214 -19.22108 -14.46945 -14.46158 -14.44323
 Alpha  occ. eigenvalues --  -14.43776 -10.43152 -10.41703 -10.38304 -10.37080
 Alpha  occ. eigenvalues --  -10.36726 -10.35765 -10.35619 -10.35305 -10.34793
 Alpha  occ. eigenvalues --  -10.34612 -10.34334 -10.34147 -10.34107 -10.33594
 Alpha  occ. eigenvalues --  -10.32637 -10.32612 -10.32601 -10.32122 -10.32033
 Alpha  occ. eigenvalues --  -10.31649 -10.31574 -10.31507 -10.31404 -10.31403
 Alpha  occ. eigenvalues --  -10.31209 -10.31195 -10.31066 -10.30925 -10.30646
 Alpha  occ. eigenvalues --  -10.30622 -10.30527 -10.30422 -10.30294 -10.30030
 Alpha  occ. eigenvalues --  -10.29973 -10.29760 -10.29636 -10.29597 -10.29472
 Alpha  occ. eigenvalues --  -10.29446 -10.29306 -10.28940 -10.28814 -10.28799
 Alpha  occ. eigenvalues --  -10.28794 -10.28564 -10.28423 -10.28396 -10.28386
 Alpha  occ. eigenvalues --  -10.28372 -10.28282 -10.28214 -10.28144 -10.27990
 Alpha  occ. eigenvalues --  -10.27776  -3.20443  -1.94042  -1.93546  -1.93439
 Alpha  occ. eigenvalues --   -1.19295  -1.16115  -1.11316  -1.11258  -1.08840
 Alpha  occ. eigenvalues --   -1.07658  -1.06324  -1.05347  -1.04412  -1.02969
 Alpha  occ. eigenvalues --   -0.94762  -0.93250  -0.92050  -0.90860  -0.90646
 Alpha  occ. eigenvalues --   -0.90498  -0.89899  -0.89450  -0.89390  -0.88797
 Alpha  occ. eigenvalues --   -0.88469  -0.87425  -0.86663  -0.85345  -0.84753
 Alpha  occ. eigenvalues --   -0.84289  -0.83652  -0.83431  -0.82976  -0.82374
 Alpha  occ. eigenvalues --   -0.81653  -0.80916  -0.80118  -0.78875  -0.78185
 Alpha  occ. eigenvalues --   -0.77817  -0.77543  -0.76859  -0.76524  -0.75933
 Alpha  occ. eigenvalues --   -0.75124  -0.74425  -0.73862  -0.72316  -0.71372
 Alpha  occ. eigenvalues --   -0.71156  -0.70026  -0.69871  -0.69538  -0.67722
 Alpha  occ. eigenvalues --   -0.67610  -0.66876  -0.66264  -0.65929  -0.65812
 Alpha  occ. eigenvalues --   -0.65313  -0.65006  -0.64042  -0.62715  -0.62138
 Alpha  occ. eigenvalues --   -0.62042  -0.61375  -0.60933  -0.59860  -0.59459
 Alpha  occ. eigenvalues --   -0.59007  -0.58950  -0.57886  -0.57815  -0.57553
 Alpha  occ. eigenvalues --   -0.57341  -0.56938  -0.56324  -0.56036  -0.55862
 Alpha  occ. eigenvalues --   -0.55575  -0.55188  -0.55078  -0.54990  -0.54521
 Alpha  occ. eigenvalues --   -0.54342  -0.54249  -0.54005  -0.53898  -0.53611
 Alpha  occ. eigenvalues --   -0.53158  -0.52802  -0.52788  -0.52663  -0.52580
 Alpha  occ. eigenvalues --   -0.52373  -0.52187  -0.51937  -0.51596  -0.51498
 Alpha  occ. eigenvalues --   -0.51286  -0.51097  -0.50979  -0.50629  -0.50588
 Alpha  occ. eigenvalues --   -0.50452  -0.50372  -0.49959  -0.49924  -0.49725
 Alpha  occ. eigenvalues --   -0.49436  -0.49299  -0.48797  -0.48469  -0.48325
 Alpha  occ. eigenvalues --   -0.48239  -0.48041  -0.47874  -0.47703  -0.47481
 Alpha  occ. eigenvalues --   -0.47453  -0.47093  -0.46972  -0.46933  -0.46812
 Alpha  occ. eigenvalues --   -0.46566  -0.46085  -0.45991  -0.45812  -0.45522
 Alpha  occ. eigenvalues --   -0.45400  -0.45196  -0.45079  -0.45041  -0.44838
 Alpha  occ. eigenvalues --   -0.44720  -0.44393  -0.44070  -0.43899  -0.43789
 Alpha  occ. eigenvalues --   -0.43514  -0.43467  -0.43406  -0.43084  -0.42839
 Alpha  occ. eigenvalues --   -0.42747  -0.42645  -0.42388  -0.42211  -0.42171
 Alpha  occ. eigenvalues --   -0.42072  -0.41388  -0.41242  -0.40839  -0.40676
 Alpha  occ. eigenvalues --   -0.40470  -0.39849  -0.39781  -0.39481  -0.39379
 Alpha  occ. eigenvalues --   -0.38917  -0.38881  -0.38726  -0.38269  -0.38036
 Alpha  occ. eigenvalues --   -0.37123  -0.36606  -0.36309  -0.36246  -0.36057
 Alpha  occ. eigenvalues --   -0.35518  -0.35508  -0.34746  -0.33227  -0.32863
 Alpha  occ. eigenvalues --   -0.32391  -0.32083  -0.31721  -0.31390  -0.25975
 Alpha  occ. eigenvalues --   -0.22911
 Alpha virt. eigenvalues --   -0.07211  -0.00110   0.01738   0.04242   0.06695
 Alpha virt. eigenvalues --    0.07090   0.07304   0.08552   0.08803   0.09075
 Alpha virt. eigenvalues --    0.10639   0.11077   0.11541   0.12024   0.12353

 Mulliken charges:
               1
     1  Mg   0.971183
     2  C    0.027505
     3  C   -0.108805
     4  C   -0.048508
     5  C   -0.037477
     6  N   -0.397387
     7  C    0.021239
     8  C   -0.127315
     9  C   -0.106234
    10  C    0.058355
    11  C    0.042465
    12  C    0.053380
    13  C   -0.024288
    14  C    0.210983
    15  O   -0.230522
    16  O   -0.362898
    17  N   -0.427113
    18  C    0.189825
    19  C   -0.171890
    20  C   -0.017586
    21  C    0.128303
    22  C    0.063985
    23  C   -0.002229
    24  O   -0.256086
    25  C   -0.012523
    26  N   -0.337217
    27  C    0.041263
    28  C   -0.062918
    29  C   -0.083767
    30  C    0.045642
    31  C    0.049293
    32  C   -0.028362
    33  C   -0.049118
    34  N   -0.511170
    35  C    0.103385
    36  C   -0.145400
    37  C    0.053639
    38  C    0.125314
    39  C    0.069530
    40  C    0.035137
    41  O   -0.251171
    42  C   -0.034057
    43  C    0.251980
    44  O   -0.230551
    45  O   -0.392409
    46  C    0.142980
    47  C    0.273010
    48  C   -0.154857
    49  C   -0.225937
    50  C    0.067024
    51  C    0.005288
    52  C   -0.026932
    53  C   -0.024646
    54  C   -0.147564
    55  C    0.016820
    56  C   -0.022334
    57  C   -0.010084
    58  C    0.004097
    59  C   -0.189557
    60  C    0.002651
    61  C    0.033546
    62  C   -0.049623
    63  C    0.044581
    64  C   -0.226872
    65  C   -0.002872
    66  C   -0.002461
    67  H   -0.009013
    68  H    0.022988
    69  H   -0.005548
    70  H    0.025305
    71  H    0.023503
    72  H    0.038387
    73  H    0.042388
    74  H    0.048792
    75  H    0.026963
    76  H    0.073848
    77  H    0.056759
    78  H    0.049751
    79  H    0.072288
    80  H    0.054141
    81  H    0.044772
    82  H    0.059329
    83  H    0.040769
    84  H    0.046264
    85  H    0.036216
    86  H    0.030124
    87  H    0.042536
    88  H    0.042967
    89  H    0.036971
    90  H    0.028576
    91  H    0.029670
    92  H    0.056899
    93  H    0.036382
    94  H    0.038658
    95  H    0.030897
    96  H    0.050825
    97  H    0.064121
    98  H    0.066469
    99  H    0.059351
   100  H    0.054787
   101  H    0.039316
   102  H    0.065019
   103  H    0.044489
   104  H    0.026306
   105  H    0.044386
   106  H    0.023165
   107  H    0.048275
   108  H    0.026542
   109  H    0.039905
   110  H    0.038177
   111  H    0.030760
   112  H    0.010944
   113  H    0.005017
   114  H    0.023369
   115  H    0.034215
   116  H    0.027559
   117  H    0.020928
   118  H    0.023992
   119  H    0.006602
   120  H    0.012658
   121  H    0.017347
   122  H    0.016428
   123  H    0.006873
   124  H    0.017615
   125  H    0.018701
   126  H    0.036410
   127  H    0.016615
   128  H    0.010108
   129  H    0.002139
   130  H    0.014554
   131  H    0.010530
   132  H    0.018272
   133  H    0.030217
   134  H    0.021115
   135  H    0.021010
   136  H    0.039005
   137  H    0.033518
   138  H    0.021224
   139  H    0.028117
   140  H    0.019782
 Sum of Mulliken charges =  -0.00000

 Dipole moment (field-independent basis, Debye):
    X=             -3.8979    Y=              4.4106    Z=             -2.9593  Tot=              6.5882
 Quadrupole moment (field-independent basis, Debye-Ang):
   XX=           -363.8598   YY=           -420.3915   ZZ=           -400.7659
   XY=              9.7731   XZ=             -0.4927   YZ=             -5.2118

 Normal termination of Gaussian 16 at Thu May  5 14:43:02 2022.
