 Gaussian 16, Revision A.03,
 Gaussian 16:  ES64L-G16RevA.03 25-Dec-2016

 --------------------
 #p ZINDO=(nstates=5)
 --------------------

 ----------------------------
 step_951_chromophore_1 ZINDO
 ----------------------------
 Symbolic Z-matrix:
 Charge =  0 Multiplicity = 1

                         Standard orientation:
 ---------------------------------------------------------------------
 Center     Atomic      Atomic             Coordinates (Angstroms)
 Number     Number       Type             X           Y           Z
 ---------------------------------------------------------------------
      1         12           0        5.785933    0.429270   -0.080758
      2          6           0        3.740464   -2.275165   -0.753542
      3          6           0        3.550679    2.527337   -1.407049
      4          6           0        8.093675    3.028835    0.142154
      5          6           0        8.394888   -1.816180    0.866056
      6          7           0        3.925906    0.136588   -0.947619
      7          6           0        3.184414   -1.016222   -0.997085
      8          6           0        1.749331   -0.717586   -1.535459
      9          6           0        2.021257    0.670065   -2.300315
     10          6           0        3.214725    1.162244   -1.496109
     11          6           0        2.263882    0.624434   -3.842610
     12          6           0        0.693252   -0.627747   -0.400167
     13          6           0       -0.710797   -1.135201   -0.795905
     14          6           0       -1.618281   -1.811131    0.302414
     15          8           0       -1.194015   -2.343089    1.285065
     16          8           0       -2.907853   -1.598224   -0.039633
     17          7           0        5.675123    2.559268   -0.370514
     18          6           0        4.651449    3.170880   -0.933064
     19          6           0        4.837318    4.621624   -0.765209
     20          6           0        6.165258    4.832240   -0.243579
     21          6           0        6.715493    3.466033   -0.095113
     22          6           0        3.793105    5.719140   -1.124864
     23          6           0        6.834477    6.037648    0.065302
     24          8           0        7.990825    6.039982    0.513824
     25          6           0        6.166580    7.362440   -0.129740
     26          7           0        8.022711    0.647287    0.350664
     27          6           0        8.714788    1.785186    0.323738
     28          6           0       10.190863    1.494967    0.476193
     29          6           0       10.228478   -0.000176    0.989408
     30          6           0        8.830101   -0.487077    0.675135
     31          6           0       11.145413    1.884204   -0.657351
     32          6           0       10.630861   -0.096748    2.528913
     33          6           0        9.524271    0.023166    3.618619
     34          7           0        6.050854   -1.555561    0.086210
     35          6           0        7.155457   -2.375520    0.438103
     36          6           0        6.848640   -3.804296    0.260288
     37          6           0        5.490124   -3.790742   -0.110564
     38          6           0        5.033797   -2.465665   -0.274832
     39          6           0        7.809676   -4.878331    0.473464
     40          6           0        4.436475   -4.607002   -0.436931
     41          8           0        4.305438   -5.856568   -0.386038
     42          6           0        3.274275   -3.694398   -0.892175
     43          6           0        2.039469   -4.076551   -0.140172
     44          8           0        1.848914   -3.873243    1.035014
     45          8           0        1.177088   -4.854431   -0.913102
     46          6           0       -0.038366   -5.371835   -0.123130
     47          6           0       -3.915640   -2.158366    0.907100
     48          6           0       -5.272319   -1.774578    0.348253
     49          6           0       -6.368856   -2.527923    0.106858
     50          6           0       -6.701699   -3.952574    0.442507
     51          6           0       -7.447541   -1.881114   -0.768766
     52          6           0       -8.326463   -1.034138    0.165926
     53          6           0       -8.550295    0.290392   -0.452588
     54          6           0       -8.547731    1.593950    0.438286
     55          6           0       -7.094082    2.098577    0.665958
     56          6           0       -9.185962    1.411700    1.840738
     57          6           0      -10.256746    2.425200    2.215267
     58          6           0      -11.401807    1.752807    2.983281
     59          6           0      -12.827196    1.848788    2.305400
     60          6           0      -13.957758    2.004663    3.349661
     61          6           0      -13.130960    0.746051    1.321972
     62          6           0      -12.775174    1.148060   -0.103908
     63          6           0      -14.075906    1.529189   -0.883524
     64          6           0      -14.135214    0.632449   -2.129568
     65          6           0      -13.296933    1.081091   -3.354224
     66          6           0      -15.549204    0.171956   -2.500813
     67          1           0        2.855701    3.162089   -1.960014
     68          1           0        8.779312    3.877478    0.187244
     69          1           0        9.142103   -2.586663    1.067448
     70          1           0        1.498086   -1.495910   -2.256460
     71          1           0        1.170940    1.329283   -2.125568
     72          1           0        1.531737    1.192774   -4.415119
     73          1           0        2.155311   -0.424835   -4.117495
     74          1           0        3.225137    1.063102   -4.110335
     75          1           0        0.695952    0.442059   -0.189747
     76          1           0        0.993016   -1.132441    0.517239
     77          1           0       -0.661236   -1.907891   -1.562573
     78          1           0       -1.215466   -0.263546   -1.213211
     79          1           0        4.256483    6.174998   -2.000158
     80          1           0        3.674101    6.410865   -0.291319
     81          1           0        2.780195    5.352882   -1.290915
     82          1           0        5.482006    7.535598    0.701455
     83          1           0        5.634295    7.501670   -1.070451
     84          1           0        6.857148    8.203820   -0.071500
     85          1           0       10.521456    2.058814    1.348219
     86          1           0       10.815819   -0.711137    0.409210
     87          1           0       10.524326    2.462273   -1.341038
     88          1           0       11.672248    1.037316   -1.097918
     89          1           0       11.897361    2.531597   -0.205097
     90          1           0       11.353004    0.691853    2.740531
     91          1           0       11.216838   -1.013410    2.591644
     92          1           0        8.519139    0.158282    3.219029
     93          1           0        9.669151    0.824144    4.343656
     94          1           0        9.597834   -0.896378    4.200045
     95          1           0        8.879248   -4.672985    0.520123
     96          1           0        7.773967   -5.608577   -0.333906
     97          1           0        7.502058   -5.396966    1.381603
     98          1           0        3.177007   -4.006195   -1.931736
     99          1           0        0.258876   -5.871551    0.798732
    100          1           0       -0.702728   -5.991255   -0.724944
    101          1           0       -0.645469   -4.573332    0.303404
    102          1           0       -3.792463   -1.728146    1.900371
    103          1           0       -3.801337   -3.241739    0.878380
    104          1           0       -5.322248   -0.753566   -0.030416
    105          1           0       -7.532848   -3.924035    1.146982
    106          1           0       -5.779624   -4.345410    0.870074
    107          1           0       -7.050740   -4.603124   -0.359689
    108          1           0       -8.038516   -2.576399   -1.365020
    109          1           0       -6.811606   -1.328639   -1.460896
    110          1           0       -7.853654   -0.951936    1.144694
    111          1           0       -9.322044   -1.458995    0.297124
    112          1           0       -9.490568    0.200897   -0.997425
    113          1           0       -7.802156    0.372791   -1.240476
    114          1           0       -9.094518    2.285853   -0.201273
    115          1           0       -6.805905    2.147326    1.715186
    116          1           0       -7.113431    3.097398    0.230868
    117          1           0       -6.413640    1.473077    0.087397
    118          1           0       -8.563449    1.310481    2.729670
    119          1           0       -9.727793    0.466408    1.853964
    120          1           0      -10.676169    2.934257    1.347577
    121          1           0       -9.794435    3.156062    2.877594
    122          1           0      -11.252395    2.181513    3.974014
    123          1           0      -11.159008    0.697774    3.110306
    124          1           0      -12.898942    2.826631    1.828186
    125          1           0      -14.551584    1.092213    3.409877
    126          1           0      -14.556076    2.876228    3.087725
    127          1           0      -13.540197    2.091919    4.353232
    128          1           0      -14.166389    0.406962    1.324232
    129          1           0      -12.650501   -0.145400    1.725029
    130          1           0      -12.232645    0.313801   -0.550153
    131          1           0      -11.978842    1.891064   -0.144754
    132          1           0      -13.885538    2.536815   -1.252176
    133          1           0      -14.940339    1.485208   -0.220991
    134          1           0      -13.671774   -0.306327   -1.824207
    135          1           0      -12.404060    1.597664   -3.002808
    136          1           0      -13.778594    1.731074   -4.084017
    137          1           0      -12.995523    0.142134   -3.819499
    138          1           0      -16.271602    0.832185   -2.020489
    139          1           0      -15.874971   -0.820974   -2.189082
    140          1           0      -15.633417    0.185112   -3.588161
 ---------------------------------------------------------------------

 SCF Done:  E(RZINDO/S) =  -474.277615042     A.U. after   20 cycles

 Excitation energies and oscillator strengths:

 Excited State   1:      Singlet-A      1.2383 eV 1001.26 nm  f=0.6004  <S**2>=0.000
     175 ->178        -0.18350
     176 ->177         0.66517
 This state for optimization and/or second-order correction.
 Total Energy, E(CIS/TDA) =  -474.232109170
 Copying the excited state density for this state as the 1-particle RhoCI density.

 Excited State   2:      Singlet-A      1.9085 eV  649.66 nm  f=0.0226  <S**2>=0.000
     175 ->177         0.52488
     176 ->178         0.44653

 Excited State   3:      Singlet-A      2.8286 eV  438.33 nm  f=0.0049  <S**2>=0.000
     168 ->177        -0.36048
     168 ->179         0.45886
     168 ->180        -0.20738
     168 ->186        -0.19267

 Excited State   4:      Singlet-A      2.8843 eV  429.85 nm  f=0.4700  <S**2>=0.000
     175 ->177        -0.28691
     176 ->178         0.38032
     176 ->179         0.41326
     176 ->180         0.22861

 Excited State   5:      Singlet-A      2.9118 eV  425.79 nm  f=0.0720  <S**2>=0.000
     170 ->177         0.32596
     170 ->178         0.19747
     170 ->179         0.25470
     170 ->180         0.37972
     170 ->186        -0.16438
     170 ->187         0.11919
     170 ->204        -0.11644
     175 ->177        -0.10033
     176 ->178         0.12729

 The electronic state is 1-A.
 Alpha  occ. eigenvalues --   -1.83344  -1.80561  -1.78585  -1.72658  -1.71639
 Alpha  occ. eigenvalues --   -1.68488  -1.67486  -1.62885  -1.59965  -1.56812
 Alpha  occ. eigenvalues --   -1.56510  -1.51434  -1.48877  -1.46191  -1.44416
 Alpha  occ. eigenvalues --   -1.43155  -1.41629  -1.39773  -1.38701  -1.38158
 Alpha  occ. eigenvalues --   -1.36535  -1.33386  -1.33190  -1.32351  -1.29551
 Alpha  occ. eigenvalues --   -1.28487  -1.23645  -1.22562  -1.21207  -1.19208
 Alpha  occ. eigenvalues --   -1.16811  -1.16172  -1.15072  -1.14045  -1.12549
 Alpha  occ. eigenvalues --   -1.12295  -1.11754  -1.09780  -1.04876  -1.04061
 Alpha  occ. eigenvalues --   -1.02631  -1.01052  -0.99452  -0.98139  -0.97175
 Alpha  occ. eigenvalues --   -0.96729  -0.95184  -0.93842  -0.93375  -0.93171
 Alpha  occ. eigenvalues --   -0.91860  -0.89212  -0.88491  -0.88066  -0.85670
 Alpha  occ. eigenvalues --   -0.85506  -0.83715  -0.82692  -0.81397  -0.80535
 Alpha  occ. eigenvalues --   -0.79336  -0.78234  -0.77154  -0.76728  -0.76062
 Alpha  occ. eigenvalues --   -0.75296  -0.75122  -0.74282  -0.73997  -0.73071
 Alpha  occ. eigenvalues --   -0.72580  -0.72349  -0.71935  -0.71752  -0.71477
 Alpha  occ. eigenvalues --   -0.70626  -0.70423  -0.69461  -0.69239  -0.68363
 Alpha  occ. eigenvalues --   -0.67349  -0.67191  -0.66422  -0.65612  -0.65086
 Alpha  occ. eigenvalues --   -0.64606  -0.64359  -0.63755  -0.63236  -0.62948
 Alpha  occ. eigenvalues --   -0.62828  -0.62444  -0.62258  -0.62011  -0.61794
 Alpha  occ. eigenvalues --   -0.61451  -0.60900  -0.60585  -0.60360  -0.60049
 Alpha  occ. eigenvalues --   -0.59713  -0.59616  -0.59177  -0.58860  -0.58190
 Alpha  occ. eigenvalues --   -0.58115  -0.57836  -0.57488  -0.57041  -0.56840
 Alpha  occ. eigenvalues --   -0.56251  -0.55696  -0.55447  -0.54961  -0.54745
 Alpha  occ. eigenvalues --   -0.54331  -0.53628  -0.53420  -0.53016  -0.52345
 Alpha  occ. eigenvalues --   -0.52289  -0.51979  -0.51748  -0.51667  -0.51011
 Alpha  occ. eigenvalues --   -0.50807  -0.50543  -0.50137  -0.50076  -0.49907
 Alpha  occ. eigenvalues --   -0.49658  -0.49634  -0.49559  -0.49151  -0.49052
 Alpha  occ. eigenvalues --   -0.48841  -0.48299  -0.48216  -0.47869  -0.47622
 Alpha  occ. eigenvalues --   -0.47504  -0.47397  -0.47273  -0.46845  -0.46711
 Alpha  occ. eigenvalues --   -0.46052  -0.45842  -0.45185  -0.44965  -0.44688
 Alpha  occ. eigenvalues --   -0.44656  -0.44432  -0.43973  -0.43429  -0.43380
 Alpha  occ. eigenvalues --   -0.43263  -0.42381  -0.42254  -0.42130  -0.41269
 Alpha  occ. eigenvalues --   -0.41130  -0.40789  -0.40441  -0.38764  -0.38451
 Alpha  occ. eigenvalues --   -0.37334  -0.36992  -0.35479  -0.34733  -0.33703
 Alpha  occ. eigenvalues --   -0.33266  -0.32385  -0.31741  -0.31422  -0.26839
 Alpha  occ. eigenvalues --   -0.21629
 Alpha virt. eigenvalues --   -0.08577  -0.02332  -0.01043   0.01186   0.02444
 Alpha virt. eigenvalues --    0.02929   0.03030   0.03812   0.04602   0.05411
 Alpha virt. eigenvalues --    0.06617   0.06814   0.07190   0.07566   0.08409

 Mulliken charges:
               1
     1  Mg   0.420242
     2  C   -0.026152
     3  C   -0.087436
     4  C   -0.073096
     5  C   -0.065430
     6  N   -0.273615
     7  C    0.106346
     8  C   -0.001014
     9  C    0.000701
    10  C    0.157943
    11  C   -0.047126
    12  C   -0.018330
    13  C   -0.001168
    14  C    0.465850
    15  O   -0.493214
    16  O   -0.272029
    17  N   -0.326535
    18  C    0.152302
    19  C    0.022703
    20  C   -0.033475
    21  C    0.141142
    22  C   -0.044348
    23  C    0.338082
    24  O   -0.540544
    25  C   -0.032365
    26  N   -0.288937
    27  C    0.181632
    28  C    0.010454
    29  C   -0.002930
    30  C    0.098317
    31  C   -0.047268
    32  C   -0.027057
    33  C   -0.053328
    34  N   -0.339275
    35  C    0.070670
    36  C    0.035014
    37  C   -0.039684
    38  C    0.098027
    39  C   -0.029973
    40  C    0.331507
    41  O   -0.561709
    42  C    0.065940
    43  C    0.486350
    44  O   -0.503942
    45  O   -0.279931
    46  C    0.063794
    47  C    0.107135
    48  C   -0.106712
    49  C    0.002305
    50  C   -0.040745
    51  C   -0.031915
    52  C   -0.020926
    53  C   -0.037217
    54  C   -0.012636
    55  C   -0.061288
    56  C   -0.035824
    57  C   -0.038622
    58  C   -0.040868
    59  C   -0.007363
    60  C   -0.064236
    61  C   -0.026581
    62  C   -0.040343
    63  C   -0.029113
    64  C   -0.010305
    65  C   -0.052132
    66  C   -0.060856
    67  H    0.011816
    68  H    0.038196
    69  H    0.027707
    70  H    0.024924
    71  H    0.021938
    72  H    0.020320
    73  H    0.026251
    74  H    0.029108
    75  H    0.020694
    76  H    0.048693
    77  H    0.041932
    78  H    0.029776
    79  H    0.041208
    80  H    0.032950
    81  H    0.027933
    82  H    0.038594
    83  H    0.029822
    84  H    0.031174
    85  H    0.026751
    86  H    0.030216
    87  H    0.029605
    88  H    0.029218
    89  H    0.020717
    90  H    0.014513
    91  H    0.018066
    92  H    0.032252
    93  H    0.019761
    94  H    0.017952
    95  H    0.023965
    96  H    0.027144
    97  H    0.038479
    98  H    0.050132
    99  H    0.051817
   100  H    0.034227
   101  H    0.044888
   102  H    0.056432
   103  H    0.048793
   104  H    0.027262
   105  H    0.031576
   106  H    0.020376
   107  H    0.032391
   108  H    0.022008
   109  H    0.025319
   110  H    0.025283
   111  H    0.017491
   112  H    0.007783
   113  H    0.013552
   114  H    0.023732
   115  H    0.027378
   116  H    0.014099
   117  H    0.021647
   118  H    0.026482
   119  H    0.009051
   120  H    0.020878
   121  H    0.013591
   122  H    0.018922
   123  H    0.017228
   124  H    0.015012
   125  H    0.015780
   126  H    0.022221
   127  H    0.014456
   128  H    0.016066
   129  H    0.013227
   130  H    0.011419
   131  H    0.020111
   132  H    0.016532
   133  H    0.034624
   134  H    0.011789
   135  H    0.014256
   136  H    0.025538
   137  H    0.017435
   138  H    0.014580
   139  H    0.018553
   140  H    0.015528
 Sum of Mulliken charges =  -0.00000

 Dipole moment (field-independent basis, Debye):
    X=             -4.4013    Y=              7.6744    Z=             -6.5877  Tot=             11.0302
 N-N= 4.282263667634D+03 E-N= 0.000000000000D+00  KE=-9.239423780820D+03
 Leave Link  601 at Thu May  5 14:57:05 2022, MaxMem=  6710886400 cpu:               0.7 elap:               0.0
 (Enter /sw/apps/gaussian-16.0/g16/l9999.exe)
 1\1\GINC-BP1-COMPUTE192\SP\RZINDO CIS\STO-3G\C55H74Mg1N4O6\OF15641\05-
 May-2022\0\\#p ZINDO=(nstates=5)\\step_951_chromophore_1 ZINDO\\0,1\Mg
 ,0,-1.258,17.643,27.029\C,0,-1.8,15.408,29.61\C,0,-2.171,20.202,28.972
 \C,0,-1.201,19.762,24.265\C,0,-0.777,14.901,24.794\N,0,-1.89,17.755,29
 .\C,0,-1.903,16.761,29.945\C,0,-2.234,17.352,31.352\C,0,-2.954,18.722,
 30.917\C,0,-2.287,18.93,29.566\C,0,-4.515,18.75,30.871\C,0,-0.968,17.5
 44,32.231\C,0,-1.204,17.328,33.742\C,0,-0.034,16.745,34.624\O,0,0.856,

 Normal termination of Gaussian 16 at Thu May  5 14:57:05 2022.
