 Gaussian 16, Revision A.03,
 Gaussian 16:  ES64L-G16RevA.03 25-Dec-2016

 ------------------------------
 #p blyp/Def2SVP td=(nstates=5)
 ------------------------------

 ---------------------------------------------------
 step_1401_chromophore_17 TDDFT with blyp functional
 ---------------------------------------------------
 Symbolic Z-matrix:
 Charge =  0 Multiplicity = 1

                         Standard orientation:
 ---------------------------------------------------------------------
 Center     Atomic      Atomic             Coordinates (Angstroms)
 Number     Number       Type             X           Y           Z
 ---------------------------------------------------------------------
      1         12           0        4.007660    1.255507   -0.627907
      2          6           0        3.940716   -2.161336   -0.746780
      3          6           0        1.099236    1.262768   -2.599694
      4          6           0        3.657967    4.559438    0.069514
      5          6           0        6.371681    1.047860    1.887067
      6          7           0        2.758267   -0.288044   -1.517222
      7          6           0        2.885712   -1.640960   -1.458451
      8          6           0        1.781349   -2.445299   -2.266024
      9          6           0        1.132582   -1.286684   -3.051484
     10          6           0        1.624059   -0.030608   -2.298712
     11          6           0        1.558142   -1.346908   -4.598404
     12          6           0        0.807267   -3.014336   -1.158463
     13          6           0        0.175708   -4.395475   -1.355826
     14          6           0       -1.191206   -4.671763   -0.803285
     15          8           0       -2.237739   -4.412449   -1.412894
     16          8           0       -1.135810   -5.189192    0.464462
     17          7           0        2.681194    2.736056   -1.355636
     18          6           0        1.596283    2.556358   -2.125717
     19          6           0        0.986139    3.870345   -2.343696
     20          6           0        1.694810    4.756099   -1.581202
     21          6           0        2.749302    4.044299   -0.890374
     22          6           0       -0.111620    3.998826   -3.367058
     23          6           0        1.322575    6.295068   -1.600244
     24          8           0        0.291410    6.735556   -2.211817
     25          6           0        2.221328    7.346422   -0.905161
     26          7           0        4.785533    2.543575    0.956277
     27          6           0        4.579198    3.905180    0.849580
     28          6           0        5.308922    4.591781    2.070297
     29          6           0        6.113408    3.411410    2.734284
     30          6           0        5.727293    2.302987    1.805426
     31          6           0        6.228127    5.813423    1.645572
     32          6           0        5.952088    2.943766    4.279653
     33          6           0        7.063931    3.348612    5.282293
     34          7           0        5.010161   -0.161003    0.416268
     35          6           0        6.032867   -0.115106    1.317109
     36          6           0        6.484199   -1.439879    1.672194
     37          6           0        5.763280   -2.269723    0.802411
     38          6           0        4.833468   -1.456814    0.095402
     39          6           0        7.612791   -1.916994    2.610182
     40          6           0        5.645859   -3.612664    0.212767
     41          8           0        6.406343   -4.580271    0.314469
     42          6           0        4.418185   -3.519901   -0.677002
     43          6           0        4.786150   -4.138571   -1.937327
     44          8           0        5.585237   -3.667110   -2.696487
     45          8           0        3.949891   -5.266376   -2.262055
     46          6           0        4.071878   -5.841895   -3.610056
     47          6           0       -2.466163   -5.454106    1.053988
     48          6           0       -3.031776   -4.233494    1.783381
     49          6           0       -3.807420   -4.122038    2.866027
     50          6           0       -4.377114   -5.306844    3.593537
     51          6           0       -4.142799   -2.764560    3.498022
     52          6           0       -5.241659   -1.930570    2.782569
     53          6           0       -6.664636   -2.578545    2.565825
     54          6           0       -7.123680   -2.594690    1.086993
     55          6           0       -8.037268   -3.737213    0.732190
     56          6           0       -7.981086   -1.307808    0.749600
     57          6           0       -7.006443   -0.274705    0.175026
     58          6           0       -6.682303    0.857568    1.127638
     59          6           0       -7.277637    2.220792    0.627670
     60          6           0       -6.146069    3.320987    0.763091
     61          6           0       -8.492510    2.695748    1.487872
     62          6           0       -9.895509    2.164859    1.022647
     63          6           0      -10.591980    3.189523    0.133599
     64          6           0      -10.506811    2.788645   -1.371852
     65          6           0      -10.259007    4.149621   -2.145795
     66          6           0      -11.808744    2.151932   -1.807210
     67          1           0        0.283665    1.368310   -3.318318
     68          1           0        3.673949    5.648171    0.163972
     69          1           0        7.103725    0.916596    2.687274
     70          1           0        2.233333   -3.153051   -2.960439
     71          1           0        0.053292   -1.435007   -3.048598
     72          1           0        2.123879   -0.479445   -4.938590
     73          1           0        0.712227   -1.504324   -5.266887
     74          1           0        2.194491   -2.163865   -4.940555
     75          1           0       -0.004690   -2.320567   -0.941101
     76          1           0        1.366945   -3.229356   -0.248875
     77          1           0        0.793487   -5.147789   -0.865094
     78          1           0        0.163767   -4.723172   -2.396042
     79          1           0       -1.046682    3.957617   -2.806968
     80          1           0       -0.005561    3.217624   -4.120151
     81          1           0        0.143576    4.970188   -3.791012
     82          1           0        2.032201    7.440453    0.164474
     83          1           0        1.984919    8.294658   -1.388503
     84          1           0        3.274934    7.172521   -1.119446
     85          1           0        4.536027    5.087540    2.658186
     86          1           0        7.187143    3.594632    2.761684
     87          1           0        7.218604    5.467184    1.352265
     88          1           0        6.542853    6.425946    2.490363
     89          1           0        5.841628    6.387333    0.803637
     90          1           0        5.910725    1.855287    4.301133
     91          1           0        4.992625    3.420527    4.480179
     92          1           0        7.559566    2.405590    5.509137
     93          1           0        6.756303    3.732252    6.255465
     94          1           0        7.740856    4.063522    4.813847
     95          1           0        8.399462   -1.302990    2.172811
     96          1           0        7.724020   -2.997967    2.516179
     97          1           0        7.600013   -1.578047    3.646471
     98          1           0        3.705309   -4.224764   -0.249378
     99          1           0        5.093401   -6.181937   -3.783330
    100          1           0        3.799425   -5.191557   -4.441120
    101          1           0        3.409674   -6.693875   -3.757148
    102          1           0       -2.277289   -6.156202    1.866895
    103          1           0       -3.168902   -5.913622    0.358839
    104          1           0       -2.703920   -3.239609    1.478183
    105          1           0       -5.362133   -5.045773    3.978264
    106          1           0       -3.786632   -5.594969    4.462658
    107          1           0       -4.359074   -6.173754    2.932775
    108          1           0       -3.251393   -2.136767    3.455453
    109          1           0       -4.285044   -2.900137    4.569460
    110          1           0       -4.710417   -1.659393    1.869506
    111          1           0       -5.363803   -0.994837    3.326834
    112          1           0       -7.399928   -2.056691    3.177924
    113          1           0       -6.590966   -3.639390    2.805418
    114          1           0       -6.231709   -2.795378    0.493511
    115          1           0       -7.613146   -4.593538    1.256510
    116          1           0       -8.132919   -3.903175   -0.341721
    117          1           0       -9.033233   -3.698681    1.172708
    118          1           0       -8.662788   -1.094649    1.573485
    119          1           0       -8.721992   -1.509595   -0.024288
    120          1           0       -7.595689    0.057987   -0.679120
    121          1           0       -6.065290   -0.700543   -0.174877
    122          1           0       -5.605577    0.865559    1.298874
    123          1           0       -7.087605    0.674851    2.123229
    124          1           0       -7.547991    2.174589   -0.426691
    125          1           0       -6.502319    4.219095    0.259730
    126          1           0       -5.291028    2.930939    0.210006
    127          1           0       -6.026001    3.719593    1.769922
    128          1           0       -8.617803    3.766507    1.650831
    129          1           0       -8.304097    2.248883    2.463699
    130          1           0      -10.371441    2.050250    1.996866
    131          1           0       -9.733104    1.215074    0.514474
    132          1           0      -10.205009    4.189709    0.332330
    133          1           0      -11.641395    3.292942    0.413464
    134          1           0       -9.674434    2.119669   -1.593501
    135          1           0      -10.362950    4.973158   -1.440339
    136          1           0      -11.018381    4.335313   -2.905794
    137          1           0       -9.242642    4.088844   -2.534748
    138          1           0      -11.941040    2.232093   -2.886307
    139          1           0      -12.668716    2.676168   -1.390775
    140          1           0      -11.852326    1.126811   -1.439204
 ---------------------------------------------------------------------

 SCF Done:  E(RB-LYP) =  -3007.33844623     A.U. after   20 cycles

 Excitation energies and oscillator strengths:

 Excited State   1:      Singlet-A      1.7934 eV  691.32 nm  f=0.2808  <S**2>=0.000
     245 -> 248        0.17686
     246 -> 247        0.69092
     246 <- 247       -0.15121
 This state for optimization and/or second-order correction.
 Total Energy, E(TD-HF/TD-DFT) =  -3007.27253859
 Copying the excited state density for this state as the 1-particle RhoCI density.

 Excited State   2:      Singlet-A      1.9592 eV  632.84 nm  f=0.0001  <S**2>=0.000
     244 -> 247        0.70635

 Excited State   3:      Singlet-A      2.0565 eV  602.88 nm  f=0.0571  <S**2>=0.000
     243 -> 247        0.10825
     245 -> 247        0.63003
     246 -> 248       -0.26223
     246 -> 249        0.10665

 Excited State   4:      Singlet-A      2.1461 eV  577.72 nm  f=0.0019  <S**2>=0.000
     243 -> 247        0.69745

 Excited State   5:      Singlet-A      2.3729 eV  522.51 nm  f=0.0000  <S**2>=0.000
     242 -> 247        0.70710

 The electronic state is 1-A.
 Alpha  occ. eigenvalues --  -46.27656 -18.82957 -18.81738 -18.77407 -18.76575
 Alpha  occ. eigenvalues --  -18.76234 -18.76161 -14.04042 -14.03401 -14.01512
 Alpha  occ. eigenvalues --  -14.00843 -10.04059 -10.03983 -10.01004 -10.00043
 Alpha  occ. eigenvalues --   -9.98681  -9.97742  -9.97301  -9.97065  -9.96665
 Alpha  occ. eigenvalues --   -9.96557  -9.96258  -9.95400  -9.95237  -9.95175
 Alpha  occ. eigenvalues --   -9.95169  -9.94920  -9.94869  -9.94556  -9.94338
 Alpha  occ. eigenvalues --   -9.94040  -9.93694  -9.93591  -9.93543  -9.93377
 Alpha  occ. eigenvalues --   -9.93300  -9.93245  -9.93164  -9.92951  -9.92788
 Alpha  occ. eigenvalues --   -9.92695  -9.92662  -9.92632  -9.92587  -9.92568
 Alpha  occ. eigenvalues --   -9.92191  -9.92113  -9.92045  -9.91900  -9.91680
 Alpha  occ. eigenvalues --   -9.91665  -9.91536  -9.91490  -9.91381  -9.91315
 Alpha  occ. eigenvalues --   -9.91079  -9.90556  -9.90439  -9.90434  -9.90420
 Alpha  occ. eigenvalues --   -9.90407  -9.90286  -9.90223  -9.90221  -9.90157
 Alpha  occ. eigenvalues --   -9.89901  -2.92326  -1.72732  -1.72239  -1.72018
 Alpha  occ. eigenvalues --   -0.97802  -0.96987  -0.91219  -0.89960  -0.89296
 Alpha  occ. eigenvalues --   -0.89106  -0.88051  -0.86881  -0.85991  -0.85353
 Alpha  occ. eigenvalues --   -0.77355  -0.73585  -0.73022  -0.72688  -0.72580
 Alpha  occ. eigenvalues --   -0.71981  -0.71829  -0.70857  -0.70381  -0.70239
 Alpha  occ. eigenvalues --   -0.69714  -0.69552  -0.68326  -0.67770  -0.67290
 Alpha  occ. eigenvalues --   -0.66372  -0.65978  -0.65261  -0.64961  -0.64630
 Alpha  occ. eigenvalues --   -0.64079  -0.62840  -0.62548  -0.61913  -0.61203
 Alpha  occ. eigenvalues --   -0.60645  -0.60232  -0.59707  -0.58757  -0.58531
 Alpha  occ. eigenvalues --   -0.58255  -0.58165  -0.57427  -0.56124  -0.55157
 Alpha  occ. eigenvalues --   -0.54391  -0.52939  -0.52419  -0.52134  -0.52072
 Alpha  occ. eigenvalues --   -0.51607  -0.51291  -0.50911  -0.50624  -0.49633
 Alpha  occ. eigenvalues --   -0.49410  -0.49169  -0.48569  -0.48542  -0.46845
 Alpha  occ. eigenvalues --   -0.46508  -0.46064  -0.45968  -0.45676  -0.45304
 Alpha  occ. eigenvalues --   -0.44268  -0.44226  -0.43518  -0.42627  -0.42460
 Alpha  occ. eigenvalues --   -0.42300  -0.42099  -0.41605  -0.41449  -0.41318
 Alpha  occ. eigenvalues --   -0.40827  -0.40642  -0.40426  -0.39952  -0.39917
 Alpha  occ. eigenvalues --   -0.39616  -0.39532  -0.39255  -0.39174  -0.38915
 Alpha  occ. eigenvalues --   -0.38876  -0.38723  -0.38415  -0.38039  -0.37893
 Alpha  occ. eigenvalues --   -0.37867  -0.37804  -0.37392  -0.37317  -0.37201
 Alpha  occ. eigenvalues --   -0.37003  -0.36692  -0.36652  -0.36480  -0.36446
 Alpha  occ. eigenvalues --   -0.36358  -0.36096  -0.35812  -0.35671  -0.35520
 Alpha  occ. eigenvalues --   -0.35407  -0.35257  -0.35099  -0.34879  -0.34867
 Alpha  occ. eigenvalues --   -0.34710  -0.34432  -0.34314  -0.34133  -0.34036
 Alpha  occ. eigenvalues --   -0.33848  -0.33716  -0.33590  -0.33555  -0.33540
 Alpha  occ. eigenvalues --   -0.33155  -0.32970  -0.32859  -0.32846  -0.32418
 Alpha  occ. eigenvalues --   -0.32310  -0.32076  -0.32049  -0.31861  -0.31476
 Alpha  occ. eigenvalues --   -0.31444  -0.30964  -0.30838  -0.30805  -0.30634
 Alpha  occ. eigenvalues --   -0.30442  -0.30310  -0.30202  -0.29857  -0.29790
 Alpha  occ. eigenvalues --   -0.29615  -0.29483  -0.29434  -0.29374  -0.29077
 Alpha  occ. eigenvalues --   -0.28914  -0.28534  -0.28401  -0.28302  -0.28257
 Alpha  occ. eigenvalues --   -0.27753  -0.27335  -0.27083  -0.26945  -0.26752
 Alpha  occ. eigenvalues --   -0.26440  -0.26372  -0.25882  -0.25339  -0.25062
 Alpha  occ. eigenvalues --   -0.25033  -0.24446  -0.24403  -0.23823  -0.23504
 Alpha  occ. eigenvalues --   -0.22822  -0.22126  -0.21483  -0.21369  -0.21153
 Alpha  occ. eigenvalues --   -0.20712  -0.20391  -0.19417  -0.18820  -0.17719
 Alpha  occ. eigenvalues --   -0.15895
 Alpha virt. eigenvalues --   -0.11671  -0.07448  -0.06354  -0.05302  -0.03737
 Alpha virt. eigenvalues --   -0.03224  -0.03122  -0.02059  -0.01751  -0.00357
 Alpha virt. eigenvalues --    0.00719   0.01477   0.02022   0.02268   0.02395

 Mulliken charges:
               1
     1  Mg   0.714303
     2  C    0.093606
     3  C   -0.039369
     4  C   -0.067182
     5  C   -0.096579
     6  N   -0.235998
     7  C   -0.121182
     8  C    0.044622
     9  C    0.022672
    10  C    0.076927
    11  C    0.090693
    12  C    0.121540
    13  C    0.154436
    14  C    0.051913
    15  O   -0.216498
    16  O   -0.266100
    17  N   -0.272584
    18  C    0.049517
    19  C   -0.161701
    20  C    0.022705
    21  C    0.124156
    22  C    0.204075
    23  C   -0.044287
    24  O   -0.207165
    25  C    0.123126
    26  N   -0.168627
    27  C    0.052285
    28  C    0.022703
    29  C    0.056281
    30  C   -0.014037
    31  C    0.088837
    32  C    0.051596
    33  C    0.063977
    34  N   -0.266360
    35  C    0.139897
    36  C   -0.193117
    37  C    0.079938
    38  C    0.045909
    39  C    0.168441
    40  C   -0.047816
    41  O   -0.139104
    42  C    0.127209
    43  C    0.071295
    44  O   -0.145428
    45  O   -0.318013
    46  C    0.222381
    47  C    0.341238
    48  C   -0.086734
    49  C   -0.184568
    50  C    0.136718
    51  C    0.134800
    52  C    0.058089
    53  C    0.141209
    54  C   -0.092615
    55  C    0.112747
    56  C    0.075859
    57  C    0.099282
    58  C    0.118032
    59  C   -0.066434
    60  C    0.094789
    61  C    0.074093
    62  C    0.077075
    63  C    0.124612
    64  C   -0.117992
    65  C    0.098086
    66  C    0.120249
    67  H   -0.058336
    68  H   -0.081811
    69  H   -0.074922
    70  H   -0.009127
    71  H   -0.017402
    72  H   -0.003830
    73  H   -0.007360
    74  H   -0.013911
    75  H   -0.001499
    76  H   -0.005355
    77  H   -0.012602
    78  H   -0.013862
    79  H    0.012169
    80  H   -0.007183
    81  H    0.012569
    82  H    0.024742
    83  H   -0.006003
    84  H    0.012084
    85  H   -0.010853
    86  H   -0.034722
    87  H   -0.024796
    88  H   -0.010279
    89  H    0.000943
    90  H   -0.003487
    91  H   -0.017247
    92  H   -0.007482
    93  H    0.000570
    94  H   -0.002539
    95  H    0.004939
    96  H    0.028067
    97  H   -0.005494
    98  H   -0.010202
    99  H    0.016776
   100  H    0.001814
   101  H    0.008219
   102  H   -0.008189
   103  H    0.019363
   104  H   -0.041192
   105  H   -0.002814
   106  H   -0.003218
   107  H   -0.013218
   108  H   -0.035827
   109  H   -0.039543
   110  H   -0.020076
   111  H   -0.024009
   112  H   -0.033150
   113  H   -0.037712
   114  H   -0.024696
   115  H   -0.045773
   116  H   -0.006329
   117  H   -0.031965
   118  H   -0.028650
   119  H   -0.047138
   120  H   -0.035262
   121  H   -0.023443
   122  H   -0.039301
   123  H   -0.035310
   124  H   -0.028523
   125  H   -0.033096
   126  H   -0.009973
   127  H   -0.015026
   128  H   -0.038458
   129  H   -0.050331
   130  H   -0.043590
   131  H   -0.017563
   132  H   -0.036476
   133  H   -0.042603
   134  H   -0.021644
   135  H   -0.020546
   136  H   -0.024772
   137  H   -0.005455
   138  H   -0.016672
   139  H   -0.024934
   140  H   -0.017903
 Sum of Mulliken charges =  -0.00000

 Dipole moment (field-independent basis, Debye):
    X=              1.1968    Y=              1.1602    Z=              3.1084  Tot=              3.5272
 Quadrupole moment (field-independent basis, Debye-Ang):
   XX=           -410.3015   YY=           -418.5509   ZZ=           -386.0790
   XY=             43.0351   XZ=              4.5787   YZ=             18.7442

 Normal termination of Gaussian 16 at Thu Apr 28 02:43:26 2022.
