 Gaussian 16, Revision A.03,
 Gaussian 16:  ES64L-G16RevA.03 25-Dec-2016

 -----------------------------------
 #p cam-b3lyp/Def2SVP td=(nstates=5)
 -----------------------------------

 --------------------------------------------------------
 step_1401_chromophore_17 TDDFT with cam-b3lyp functional
 --------------------------------------------------------
 Symbolic Z-matrix:
 Charge =  0 Multiplicity = 1

                         Standard orientation:
 ---------------------------------------------------------------------
 Center     Atomic      Atomic             Coordinates (Angstroms)
 Number     Number       Type             X           Y           Z
 ---------------------------------------------------------------------
      1         12           0        4.007660    1.255507   -0.627907
      2          6           0        3.940716   -2.161336   -0.746780
      3          6           0        1.099236    1.262768   -2.599694
      4          6           0        3.657967    4.559438    0.069514
      5          6           0        6.371681    1.047860    1.887067
      6          7           0        2.758267   -0.288044   -1.517222
      7          6           0        2.885712   -1.640960   -1.458451
      8          6           0        1.781349   -2.445299   -2.266024
      9          6           0        1.132582   -1.286684   -3.051484
     10          6           0        1.624059   -0.030608   -2.298712
     11          6           0        1.558142   -1.346908   -4.598404
     12          6           0        0.807267   -3.014336   -1.158463
     13          6           0        0.175708   -4.395475   -1.355826
     14          6           0       -1.191206   -4.671763   -0.803285
     15          8           0       -2.237739   -4.412449   -1.412894
     16          8           0       -1.135810   -5.189192    0.464462
     17          7           0        2.681194    2.736056   -1.355636
     18          6           0        1.596283    2.556358   -2.125717
     19          6           0        0.986139    3.870345   -2.343696
     20          6           0        1.694810    4.756099   -1.581202
     21          6           0        2.749302    4.044299   -0.890374
     22          6           0       -0.111620    3.998826   -3.367058
     23          6           0        1.322575    6.295068   -1.600244
     24          8           0        0.291410    6.735556   -2.211817
     25          6           0        2.221328    7.346422   -0.905161
     26          7           0        4.785533    2.543575    0.956277
     27          6           0        4.579198    3.905180    0.849580
     28          6           0        5.308922    4.591781    2.070297
     29          6           0        6.113408    3.411410    2.734284
     30          6           0        5.727293    2.302987    1.805426
     31          6           0        6.228127    5.813423    1.645572
     32          6           0        5.952088    2.943766    4.279653
     33          6           0        7.063931    3.348612    5.282293
     34          7           0        5.010161   -0.161003    0.416268
     35          6           0        6.032867   -0.115106    1.317109
     36          6           0        6.484199   -1.439879    1.672194
     37          6           0        5.763280   -2.269723    0.802411
     38          6           0        4.833468   -1.456814    0.095402
     39          6           0        7.612791   -1.916994    2.610182
     40          6           0        5.645859   -3.612664    0.212767
     41          8           0        6.406343   -4.580271    0.314469
     42          6           0        4.418185   -3.519901   -0.677002
     43          6           0        4.786150   -4.138571   -1.937327
     44          8           0        5.585237   -3.667110   -2.696487
     45          8           0        3.949891   -5.266376   -2.262055
     46          6           0        4.071878   -5.841895   -3.610056
     47          6           0       -2.466163   -5.454106    1.053988
     48          6           0       -3.031776   -4.233494    1.783381
     49          6           0       -3.807420   -4.122038    2.866027
     50          6           0       -4.377114   -5.306844    3.593537
     51          6           0       -4.142799   -2.764560    3.498022
     52          6           0       -5.241659   -1.930570    2.782569
     53          6           0       -6.664636   -2.578545    2.565825
     54          6           0       -7.123680   -2.594690    1.086993
     55          6           0       -8.037268   -3.737213    0.732190
     56          6           0       -7.981086   -1.307808    0.749600
     57          6           0       -7.006443   -0.274705    0.175026
     58          6           0       -6.682303    0.857568    1.127638
     59          6           0       -7.277637    2.220792    0.627670
     60          6           0       -6.146069    3.320987    0.763091
     61          6           0       -8.492510    2.695748    1.487872
     62          6           0       -9.895509    2.164859    1.022647
     63          6           0      -10.591980    3.189523    0.133599
     64          6           0      -10.506811    2.788645   -1.371852
     65          6           0      -10.259007    4.149621   -2.145795
     66          6           0      -11.808744    2.151932   -1.807210
     67          1           0        0.283665    1.368310   -3.318318
     68          1           0        3.673949    5.648171    0.163972
     69          1           0        7.103725    0.916596    2.687274
     70          1           0        2.233333   -3.153051   -2.960439
     71          1           0        0.053292   -1.435007   -3.048598
     72          1           0        2.123879   -0.479445   -4.938590
     73          1           0        0.712227   -1.504324   -5.266887
     74          1           0        2.194491   -2.163865   -4.940555
     75          1           0       -0.004690   -2.320567   -0.941101
     76          1           0        1.366945   -3.229356   -0.248875
     77          1           0        0.793487   -5.147789   -0.865094
     78          1           0        0.163767   -4.723172   -2.396042
     79          1           0       -1.046682    3.957617   -2.806968
     80          1           0       -0.005561    3.217624   -4.120151
     81          1           0        0.143576    4.970188   -3.791012
     82          1           0        2.032201    7.440453    0.164474
     83          1           0        1.984919    8.294658   -1.388503
     84          1           0        3.274934    7.172521   -1.119446
     85          1           0        4.536027    5.087540    2.658186
     86          1           0        7.187143    3.594632    2.761684
     87          1           0        7.218604    5.467184    1.352265
     88          1           0        6.542853    6.425946    2.490363
     89          1           0        5.841628    6.387333    0.803637
     90          1           0        5.910725    1.855287    4.301133
     91          1           0        4.992625    3.420527    4.480179
     92          1           0        7.559566    2.405590    5.509137
     93          1           0        6.756303    3.732252    6.255465
     94          1           0        7.740856    4.063522    4.813847
     95          1           0        8.399462   -1.302990    2.172811
     96          1           0        7.724020   -2.997967    2.516179
     97          1           0        7.600013   -1.578047    3.646471
     98          1           0        3.705309   -4.224764   -0.249378
     99          1           0        5.093401   -6.181937   -3.783330
    100          1           0        3.799425   -5.191557   -4.441120
    101          1           0        3.409674   -6.693875   -3.757148
    102          1           0       -2.277289   -6.156202    1.866895
    103          1           0       -3.168902   -5.913622    0.358839
    104          1           0       -2.703920   -3.239609    1.478183
    105          1           0       -5.362133   -5.045773    3.978264
    106          1           0       -3.786632   -5.594969    4.462658
    107          1           0       -4.359074   -6.173754    2.932775
    108          1           0       -3.251393   -2.136767    3.455453
    109          1           0       -4.285044   -2.900137    4.569460
    110          1           0       -4.710417   -1.659393    1.869506
    111          1           0       -5.363803   -0.994837    3.326834
    112          1           0       -7.399928   -2.056691    3.177924
    113          1           0       -6.590966   -3.639390    2.805418
    114          1           0       -6.231709   -2.795378    0.493511
    115          1           0       -7.613146   -4.593538    1.256510
    116          1           0       -8.132919   -3.903175   -0.341721
    117          1           0       -9.033233   -3.698681    1.172708
    118          1           0       -8.662788   -1.094649    1.573485
    119          1           0       -8.721992   -1.509595   -0.024288
    120          1           0       -7.595689    0.057987   -0.679120
    121          1           0       -6.065290   -0.700543   -0.174877
    122          1           0       -5.605577    0.865559    1.298874
    123          1           0       -7.087605    0.674851    2.123229
    124          1           0       -7.547991    2.174589   -0.426691
    125          1           0       -6.502319    4.219095    0.259730
    126          1           0       -5.291028    2.930939    0.210006
    127          1           0       -6.026001    3.719593    1.769922
    128          1           0       -8.617803    3.766507    1.650831
    129          1           0       -8.304097    2.248883    2.463699
    130          1           0      -10.371441    2.050250    1.996866
    131          1           0       -9.733104    1.215074    0.514474
    132          1           0      -10.205009    4.189709    0.332330
    133          1           0      -11.641395    3.292942    0.413464
    134          1           0       -9.674434    2.119669   -1.593501
    135          1           0      -10.362950    4.973158   -1.440339
    136          1           0      -11.018381    4.335313   -2.905794
    137          1           0       -9.242642    4.088844   -2.534748
    138          1           0      -11.941040    2.232093   -2.886307
    139          1           0      -12.668716    2.676168   -1.390775
    140          1           0      -11.852326    1.126811   -1.439204
 ---------------------------------------------------------------------

 SCF Done:  E(RCAM-B3LYP) =  -3007.12977424     A.U. after   19 cycles

 Excitation energies and oscillator strengths:

 Excited State   1:      Singlet-A      1.7105 eV  724.82 nm  f=0.3546  <S**2>=0.000
     245 -> 248        0.16972
     246 -> 247        0.68615
     245 <- 248        0.10424
 This state for optimization and/or second-order correction.
 Total Energy, E(TD-HF/TD-DFT) =  -3007.06691306
 Copying the excited state density for this state as the 1-particle RhoCI density.

 Excited State   2:      Singlet-A      2.2865 eV  542.25 nm  f=0.0617  <S**2>=0.000
     245 -> 247        0.61337
     246 -> 248       -0.33898

 Excited State   3:      Singlet-A      3.4297 eV  361.50 nm  f=0.5893  <S**2>=0.000
     241 -> 247       -0.10044
     242 -> 247        0.24287
     245 -> 247        0.29689
     246 -> 248        0.57597
     245 <- 247       -0.10094

 Excited State   4:      Singlet-A      3.5178 eV  352.45 nm  f=0.0225  <S**2>=0.000
     241 -> 247        0.12497
     242 -> 247       -0.31668
     244 -> 247        0.57237
     246 -> 248        0.10098

 Excited State   5:      Singlet-A      3.5869 eV  345.65 nm  f=0.0172  <S**2>=0.000
     238 -> 247        0.46952
     238 -> 249        0.25866
     238 -> 250       -0.16097
     240 -> 247        0.22525
     242 -> 247       -0.17040
     244 -> 247       -0.21589

 The electronic state is 1-A.
 Alpha  occ. eigenvalues --  -46.89211 -19.25881 -19.24775 -19.20690 -19.19829
 Alpha  occ. eigenvalues --  -19.19585 -19.19154 -14.42770 -14.42422 -14.39840
 Alpha  occ. eigenvalues --  -14.39395 -10.39576 -10.39380 -10.36141 -10.35726
 Alpha  occ. eigenvalues --  -10.32776 -10.31833 -10.31821 -10.31588 -10.31138
 Alpha  occ. eigenvalues --  -10.30863 -10.30189 -10.29794 -10.29652 -10.29395
 Alpha  occ. eigenvalues --  -10.29359 -10.29286 -10.29153 -10.28808 -10.28606
 Alpha  occ. eigenvalues --  -10.28008 -10.27941 -10.27573 -10.27536 -10.27490
 Alpha  occ. eigenvalues --  -10.27400 -10.27345 -10.27118 -10.26769 -10.26686
 Alpha  occ. eigenvalues --  -10.26585 -10.26569 -10.26548 -10.26535 -10.26513
 Alpha  occ. eigenvalues --  -10.26349 -10.25918 -10.25813 -10.25679 -10.25645
 Alpha  occ. eigenvalues --  -10.25578 -10.25329 -10.25231 -10.24976 -10.24912
 Alpha  occ. eigenvalues --  -10.24696 -10.24156 -10.24075 -10.24048 -10.24043
 Alpha  occ. eigenvalues --  -10.23935 -10.23846 -10.23809 -10.23749 -10.23703
 Alpha  occ. eigenvalues --  -10.23417  -3.17782  -1.92664  -1.92258  -1.92069
 Alpha  occ. eigenvalues --   -1.16250  -1.15719  -1.09949  -1.07950  -1.07183
 Alpha  occ. eigenvalues --   -1.07156  -1.05961  -1.04749  -1.03488  -1.02699
 Alpha  occ. eigenvalues --   -0.94791  -0.90450  -0.89797  -0.89448  -0.89330
 Alpha  occ. eigenvalues --   -0.88612  -0.88490  -0.87649  -0.86925  -0.86734
 Alpha  occ. eigenvalues --   -0.86015  -0.85941  -0.84649  -0.83939  -0.83424
 Alpha  occ. eigenvalues --   -0.82403  -0.82078  -0.81168  -0.80823  -0.80500
 Alpha  occ. eigenvalues --   -0.79889  -0.78546  -0.78143  -0.77373  -0.76667
 Alpha  occ. eigenvalues --   -0.76007  -0.75530  -0.75011  -0.73810  -0.73699
 Alpha  occ. eigenvalues --   -0.73337  -0.73314  -0.72326  -0.70929  -0.69788
 Alpha  occ. eigenvalues --   -0.69105  -0.67344  -0.66765  -0.66482  -0.66215
 Alpha  occ. eigenvalues --   -0.65770  -0.65373  -0.64963  -0.64808  -0.63621
 Alpha  occ. eigenvalues --   -0.63191  -0.63038  -0.62441  -0.62358  -0.60473
 Alpha  occ. eigenvalues --   -0.60194  -0.59509  -0.59339  -0.59203  -0.59068
 Alpha  occ. eigenvalues --   -0.57756  -0.57606  -0.56647  -0.55952  -0.55669
 Alpha  occ. eigenvalues --   -0.55502  -0.55027  -0.54667  -0.54239  -0.54042
 Alpha  occ. eigenvalues --   -0.53598  -0.53367  -0.53246  -0.52940  -0.52677
 Alpha  occ. eigenvalues --   -0.52263  -0.52071  -0.51934  -0.51806  -0.51675
 Alpha  occ. eigenvalues --   -0.51347  -0.51294  -0.50866  -0.50700  -0.50286
 Alpha  occ. eigenvalues --   -0.50126  -0.50064  -0.49914  -0.49679  -0.49559
 Alpha  occ. eigenvalues --   -0.49358  -0.49176  -0.48826  -0.48712  -0.48506
 Alpha  occ. eigenvalues --   -0.48440  -0.48263  -0.48133  -0.47984  -0.47682
 Alpha  occ. eigenvalues --   -0.47500  -0.47254  -0.46957  -0.46934  -0.46730
 Alpha  occ. eigenvalues --   -0.46650  -0.46444  -0.46187  -0.45941  -0.45874
 Alpha  occ. eigenvalues --   -0.45792  -0.45617  -0.45453  -0.45277  -0.45120
 Alpha  occ. eigenvalues --   -0.44931  -0.44680  -0.44463  -0.44405  -0.44048
 Alpha  occ. eigenvalues --   -0.43859  -0.43754  -0.43695  -0.43543  -0.42909
 Alpha  occ. eigenvalues --   -0.42842  -0.42784  -0.42619  -0.42367  -0.42153
 Alpha  occ. eigenvalues --   -0.42020  -0.41760  -0.41514  -0.41395  -0.41117
 Alpha  occ. eigenvalues --   -0.40813  -0.40741  -0.40551  -0.40513  -0.40148
 Alpha  occ. eigenvalues --   -0.39977  -0.39576  -0.39334  -0.39232  -0.39179
 Alpha  occ. eigenvalues --   -0.38648  -0.38159  -0.38109  -0.37695  -0.37539
 Alpha  occ. eigenvalues --   -0.37153  -0.37093  -0.37061  -0.36682  -0.36449
 Alpha  occ. eigenvalues --   -0.35639  -0.34984  -0.34928  -0.34902  -0.33881
 Alpha  occ. eigenvalues --   -0.33689  -0.33432  -0.31933  -0.31697  -0.31676
 Alpha  occ. eigenvalues --   -0.30932  -0.30727  -0.30028  -0.29859  -0.24614
 Alpha  occ. eigenvalues --   -0.21108
 Alpha virt. eigenvalues --   -0.08626  -0.02234   0.00233   0.01665   0.01794
 Alpha virt. eigenvalues --    0.04098   0.04592   0.05166   0.05683   0.06596
 Alpha virt. eigenvalues --    0.07546   0.07847   0.08227   0.08480   0.08613

 Mulliken charges:
               1
     1  Mg   0.845336
     2  C    0.046356
     3  C   -0.049763
     4  C   -0.073419
     5  C   -0.098152
     6  N   -0.307341
     7  C   -0.070513
     8  C   -0.002782
     9  C   -0.028643
    10  C    0.086231
    11  C    0.036494
    12  C    0.070621
    13  C    0.086164
    14  C    0.134365
    15  O   -0.256393
    16  O   -0.330179
    17  N   -0.356778
    18  C    0.054857
    19  C   -0.167264
    20  C   -0.046781
    21  C    0.141111
    22  C    0.145774
    23  C    0.034249
    24  O   -0.247540
    25  C    0.040007
    26  N   -0.237208
    27  C    0.060606
    28  C   -0.035429
    29  C    0.003698
    30  C    0.005814
    31  C    0.036735
    32  C    0.001186
    33  C    0.002558
    34  N   -0.359259
    35  C    0.143313
    36  C   -0.177043
    37  C   -0.002429
    38  C    0.092041
    39  C    0.118242
    40  C    0.056586
    41  O   -0.175075
    42  C    0.040686
    43  C    0.164923
    44  O   -0.179241
    45  O   -0.384276
    46  C    0.183476
    47  C    0.307002
    48  C   -0.105196
    49  C   -0.211658
    50  C    0.074580
    51  C    0.078907
    52  C    0.011099
    53  C    0.087151
    54  C   -0.144563
    55  C    0.054876
    56  C    0.020679
    57  C    0.040329
    58  C    0.067413
    59  C   -0.121224
    60  C    0.039391
    61  C    0.024269
    62  C    0.025997
    63  C    0.066924
    64  C   -0.177948
    65  C    0.041699
    66  C    0.063511
    67  H   -0.023015
    68  H   -0.047776
    69  H   -0.039447
    70  H    0.023046
    71  H    0.018748
    72  H    0.022137
    73  H    0.016922
    74  H    0.008537
    75  H    0.029226
    76  H    0.024851
    77  H    0.020426
    78  H    0.018220
    79  H    0.037939
    80  H    0.015787
    81  H    0.038899
    82  H    0.051637
    83  H    0.029044
    84  H    0.036527
    85  H    0.022134
    86  H    0.000538
    87  H   -0.000287
    88  H    0.014173
    89  H    0.022905
    90  H    0.024558
    91  H    0.011573
    92  H    0.013944
    93  H    0.025841
    94  H    0.018968
    95  H    0.029824
    96  H    0.056140
    97  H    0.021922
    98  H    0.033837
    99  H    0.040490
   100  H    0.022093
   101  H    0.031786
   102  H    0.021143
   103  H    0.050368
   104  H   -0.010429
   105  H    0.020522
   106  H    0.023030
   107  H    0.009891
   108  H   -0.003130
   109  H   -0.009167
   110  H    0.002952
   111  H    0.003971
   112  H   -0.004156
   113  H   -0.014601
   114  H    0.006407
   115  H   -0.020863
   116  H    0.018954
   117  H   -0.007702
   118  H   -0.001898
   119  H   -0.016057
   120  H   -0.007706
   121  H    0.006015
   122  H   -0.009390
   123  H   -0.010929
   124  H   -0.000875
   125  H   -0.008505
   126  H    0.014592
   127  H    0.008415
   128  H   -0.009953
   129  H   -0.020568
   130  H   -0.011757
   131  H    0.002578
   132  H   -0.008469
   133  H   -0.012211
   134  H    0.005952
   135  H    0.002895
   136  H   -0.000309
   137  H    0.017363
   138  H    0.007733
   139  H   -0.001475
   140  H    0.006064
 Sum of Mulliken charges =  -0.00000

 Dipole moment (field-independent basis, Debye):
    X=              1.7755    Y=              0.8903    Z=              3.5001  Tot=              4.0244
 Quadrupole moment (field-independent basis, Debye-Ang):
   XX=           -406.0598   YY=           -415.2503   ZZ=           -384.5128
   XY=             43.5658   XZ=              6.4345   YZ=             20.6502

 Normal termination of Gaussian 16 at Thu Apr 28 01:35:56 2022.
