 Gaussian 16, Revision A.03,
 Gaussian 16:  ES64L-G16RevA.03 25-Dec-2016

 ---------------------------------
 #p PBE1PBE/Def2SVP td=(nstates=5)
 ---------------------------------

 ------------------------------------------------------
 step_1401_chromophore_17 TDDFT with PBE1PBE functional
 ------------------------------------------------------
 Symbolic Z-matrix:
 Charge =  0 Multiplicity = 1

                         Standard orientation:
 ---------------------------------------------------------------------
 Center     Atomic      Atomic             Coordinates (Angstroms)
 Number     Number       Type             X           Y           Z
 ---------------------------------------------------------------------
      1         12           0        4.007660    1.255507   -0.627907
      2          6           0        3.940716   -2.161336   -0.746780
      3          6           0        1.099236    1.262768   -2.599694
      4          6           0        3.657967    4.559438    0.069514
      5          6           0        6.371681    1.047860    1.887067
      6          7           0        2.758267   -0.288044   -1.517222
      7          6           0        2.885712   -1.640960   -1.458451
      8          6           0        1.781349   -2.445299   -2.266024
      9          6           0        1.132582   -1.286684   -3.051484
     10          6           0        1.624059   -0.030608   -2.298712
     11          6           0        1.558142   -1.346908   -4.598404
     12          6           0        0.807267   -3.014336   -1.158463
     13          6           0        0.175708   -4.395475   -1.355826
     14          6           0       -1.191206   -4.671763   -0.803285
     15          8           0       -2.237739   -4.412449   -1.412894
     16          8           0       -1.135810   -5.189192    0.464462
     17          7           0        2.681194    2.736056   -1.355636
     18          6           0        1.596283    2.556358   -2.125717
     19          6           0        0.986139    3.870345   -2.343696
     20          6           0        1.694810    4.756099   -1.581202
     21          6           0        2.749302    4.044299   -0.890374
     22          6           0       -0.111620    3.998826   -3.367058
     23          6           0        1.322575    6.295068   -1.600244
     24          8           0        0.291410    6.735556   -2.211817
     25          6           0        2.221328    7.346422   -0.905161
     26          7           0        4.785533    2.543575    0.956277
     27          6           0        4.579198    3.905180    0.849580
     28          6           0        5.308922    4.591781    2.070297
     29          6           0        6.113408    3.411410    2.734284
     30          6           0        5.727293    2.302987    1.805426
     31          6           0        6.228127    5.813423    1.645572
     32          6           0        5.952088    2.943766    4.279653
     33          6           0        7.063931    3.348612    5.282293
     34          7           0        5.010161   -0.161003    0.416268
     35          6           0        6.032867   -0.115106    1.317109
     36          6           0        6.484199   -1.439879    1.672194
     37          6           0        5.763280   -2.269723    0.802411
     38          6           0        4.833468   -1.456814    0.095402
     39          6           0        7.612791   -1.916994    2.610182
     40          6           0        5.645859   -3.612664    0.212767
     41          8           0        6.406343   -4.580271    0.314469
     42          6           0        4.418185   -3.519901   -0.677002
     43          6           0        4.786150   -4.138571   -1.937327
     44          8           0        5.585237   -3.667110   -2.696487
     45          8           0        3.949891   -5.266376   -2.262055
     46          6           0        4.071878   -5.841895   -3.610056
     47          6           0       -2.466163   -5.454106    1.053988
     48          6           0       -3.031776   -4.233494    1.783381
     49          6           0       -3.807420   -4.122038    2.866027
     50          6           0       -4.377114   -5.306844    3.593537
     51          6           0       -4.142799   -2.764560    3.498022
     52          6           0       -5.241659   -1.930570    2.782569
     53          6           0       -6.664636   -2.578545    2.565825
     54          6           0       -7.123680   -2.594690    1.086993
     55          6           0       -8.037268   -3.737213    0.732190
     56          6           0       -7.981086   -1.307808    0.749600
     57          6           0       -7.006443   -0.274705    0.175026
     58          6           0       -6.682303    0.857568    1.127638
     59          6           0       -7.277637    2.220792    0.627670
     60          6           0       -6.146069    3.320987    0.763091
     61          6           0       -8.492510    2.695748    1.487872
     62          6           0       -9.895509    2.164859    1.022647
     63          6           0      -10.591980    3.189523    0.133599
     64          6           0      -10.506811    2.788645   -1.371852
     65          6           0      -10.259007    4.149621   -2.145795
     66          6           0      -11.808744    2.151932   -1.807210
     67          1           0        0.283665    1.368310   -3.318318
     68          1           0        3.673949    5.648171    0.163972
     69          1           0        7.103725    0.916596    2.687274
     70          1           0        2.233333   -3.153051   -2.960439
     71          1           0        0.053292   -1.435007   -3.048598
     72          1           0        2.123879   -0.479445   -4.938590
     73          1           0        0.712227   -1.504324   -5.266887
     74          1           0        2.194491   -2.163865   -4.940555
     75          1           0       -0.004690   -2.320567   -0.941101
     76          1           0        1.366945   -3.229356   -0.248875
     77          1           0        0.793487   -5.147789   -0.865094
     78          1           0        0.163767   -4.723172   -2.396042
     79          1           0       -1.046682    3.957617   -2.806968
     80          1           0       -0.005561    3.217624   -4.120151
     81          1           0        0.143576    4.970188   -3.791012
     82          1           0        2.032201    7.440453    0.164474
     83          1           0        1.984919    8.294658   -1.388503
     84          1           0        3.274934    7.172521   -1.119446
     85          1           0        4.536027    5.087540    2.658186
     86          1           0        7.187143    3.594632    2.761684
     87          1           0        7.218604    5.467184    1.352265
     88          1           0        6.542853    6.425946    2.490363
     89          1           0        5.841628    6.387333    0.803637
     90          1           0        5.910725    1.855287    4.301133
     91          1           0        4.992625    3.420527    4.480179
     92          1           0        7.559566    2.405590    5.509137
     93          1           0        6.756303    3.732252    6.255465
     94          1           0        7.740856    4.063522    4.813847
     95          1           0        8.399462   -1.302990    2.172811
     96          1           0        7.724020   -2.997967    2.516179
     97          1           0        7.600013   -1.578047    3.646471
     98          1           0        3.705309   -4.224764   -0.249378
     99          1           0        5.093401   -6.181937   -3.783330
    100          1           0        3.799425   -5.191557   -4.441120
    101          1           0        3.409674   -6.693875   -3.757148
    102          1           0       -2.277289   -6.156202    1.866895
    103          1           0       -3.168902   -5.913622    0.358839
    104          1           0       -2.703920   -3.239609    1.478183
    105          1           0       -5.362133   -5.045773    3.978264
    106          1           0       -3.786632   -5.594969    4.462658
    107          1           0       -4.359074   -6.173754    2.932775
    108          1           0       -3.251393   -2.136767    3.455453
    109          1           0       -4.285044   -2.900137    4.569460
    110          1           0       -4.710417   -1.659393    1.869506
    111          1           0       -5.363803   -0.994837    3.326834
    112          1           0       -7.399928   -2.056691    3.177924
    113          1           0       -6.590966   -3.639390    2.805418
    114          1           0       -6.231709   -2.795378    0.493511
    115          1           0       -7.613146   -4.593538    1.256510
    116          1           0       -8.132919   -3.903175   -0.341721
    117          1           0       -9.033233   -3.698681    1.172708
    118          1           0       -8.662788   -1.094649    1.573485
    119          1           0       -8.721992   -1.509595   -0.024288
    120          1           0       -7.595689    0.057987   -0.679120
    121          1           0       -6.065290   -0.700543   -0.174877
    122          1           0       -5.605577    0.865559    1.298874
    123          1           0       -7.087605    0.674851    2.123229
    124          1           0       -7.547991    2.174589   -0.426691
    125          1           0       -6.502319    4.219095    0.259730
    126          1           0       -5.291028    2.930939    0.210006
    127          1           0       -6.026001    3.719593    1.769922
    128          1           0       -8.617803    3.766507    1.650831
    129          1           0       -8.304097    2.248883    2.463699
    130          1           0      -10.371441    2.050250    1.996866
    131          1           0       -9.733104    1.215074    0.514474
    132          1           0      -10.205009    4.189709    0.332330
    133          1           0      -11.641395    3.292942    0.413464
    134          1           0       -9.674434    2.119669   -1.593501
    135          1           0      -10.362950    4.973158   -1.440339
    136          1           0      -11.018381    4.335313   -2.905794
    137          1           0       -9.242642    4.088844   -2.534748
    138          1           0      -11.941040    2.232093   -2.886307
    139          1           0      -12.668716    2.676168   -1.390775
    140          1           0      -11.852326    1.126811   -1.439204
 ---------------------------------------------------------------------

 SCF Done:  E(RPBE1PBE) =  -3005.31746708     A.U. after   15 cycles

 Excitation energies and oscillator strengths:

 Excited State   1:      Singlet-A      1.8497 eV  670.30 nm  f=0.3434  <S**2>=0.000
     245 -> 248       -0.16392
     246 -> 247        0.69380
     246 <- 247       -0.10919
 This state for optimization and/or second-order correction.
 Total Energy, E(TD-HF/TD-DFT) =  -3005.24949276
 Copying the excited state density for this state as the 1-particle RhoCI density.

 Excited State   2:      Singlet-A      2.2869 eV  542.14 nm  f=0.0689  <S**2>=0.000
     245 -> 247        0.63053
     246 -> 248        0.30536

 Excited State   3:      Singlet-A      3.1102 eV  398.64 nm  f=0.0037  <S**2>=0.000
     243 -> 247        0.67455
     246 -> 248       -0.11806

 Excited State   4:      Singlet-A      3.1512 eV  393.45 nm  f=0.0005  <S**2>=0.000
     240 -> 247        0.57575
     240 -> 249       -0.15282
     240 -> 250       -0.11534
     241 -> 247        0.31957
     242 -> 247       -0.13524

 Excited State   5:      Singlet-A      3.2129 eV  385.89 nm  f=0.1737  <S**2>=0.000
     240 -> 247       -0.20946
     241 -> 247        0.23184
     242 -> 247       -0.36880
     245 -> 247       -0.17258
     246 -> 248        0.44033

 The electronic state is 1-A.
 Alpha  occ. eigenvalues --  -46.92621 -19.26575 -19.25378 -19.20789 -19.19880
 Alpha  occ. eigenvalues --  -19.19840 -19.19585 -14.42432 -14.41790 -14.39592
 Alpha  occ. eigenvalues --  -14.38946 -10.36525 -10.36418 -10.33541 -10.32681
 Alpha  occ. eigenvalues --  -10.30170 -10.29522 -10.29435 -10.29003 -10.28799
 Alpha  occ. eigenvalues --  -10.28661 -10.28221 -10.27280 -10.27207 -10.27153
 Alpha  occ. eigenvalues --  -10.27084 -10.27023 -10.26735 -10.26681 -10.26404
 Alpha  occ. eigenvalues --  -10.25602 -10.25422 -10.25350 -10.25184 -10.25166
 Alpha  occ. eigenvalues --  -10.25161 -10.24633 -10.24591 -10.24585 -10.24509
 Alpha  occ. eigenvalues --  -10.24402 -10.24216 -10.23976 -10.23949 -10.23920
 Alpha  occ. eigenvalues --  -10.23910 -10.23405 -10.23358 -10.23167 -10.23134
 Alpha  occ. eigenvalues --  -10.23047 -10.23022 -10.22955 -10.22579 -10.22536
 Alpha  occ. eigenvalues --  -10.22398 -10.21692 -10.21660 -10.21637 -10.21630
 Alpha  occ. eigenvalues --  -10.21367 -10.21319 -10.21276 -10.21250 -10.21165
 Alpha  occ. eigenvalues --  -10.20798  -3.14769  -1.87591  -1.87165  -1.86979
 Alpha  occ. eigenvalues --   -1.11064  -1.10358  -1.04479  -1.02719  -1.02043
 Alpha  occ. eigenvalues --   -1.02033  -1.00512  -0.99289  -0.98216  -0.97511
 Alpha  occ. eigenvalues --   -0.89062  -0.84558  -0.83994  -0.83744  -0.83430
 Alpha  occ. eigenvalues --   -0.82876  -0.82597  -0.81852  -0.81248  -0.80857
 Alpha  occ. eigenvalues --   -0.80552  -0.80230  -0.78926  -0.78182  -0.77626
 Alpha  occ. eigenvalues --   -0.76585  -0.76299  -0.75452  -0.75104  -0.74729
 Alpha  occ. eigenvalues --   -0.74013  -0.72801  -0.72396  -0.71735  -0.70955
 Alpha  occ. eigenvalues --   -0.70150  -0.69888  -0.69107  -0.68142  -0.67841
 Alpha  occ. eigenvalues --   -0.67717  -0.67493  -0.66789  -0.65263  -0.64122
 Alpha  occ. eigenvalues --   -0.63537  -0.61602  -0.61259  -0.60721  -0.60606
 Alpha  occ. eigenvalues --   -0.60294  -0.59900  -0.59550  -0.58969  -0.57719
 Alpha  occ. eigenvalues --   -0.57655  -0.57246  -0.56844  -0.56637  -0.55007
 Alpha  occ. eigenvalues --   -0.54731  -0.54180  -0.53978  -0.53512  -0.53399
 Alpha  occ. eigenvalues --   -0.52271  -0.52145  -0.51301  -0.50455  -0.50222
 Alpha  occ. eigenvalues --   -0.50147  -0.49488  -0.49123  -0.48661  -0.48553
 Alpha  occ. eigenvalues --   -0.48124  -0.47901  -0.47718  -0.47480  -0.47146
 Alpha  occ. eigenvalues --   -0.46769  -0.46520  -0.46492  -0.46378  -0.46231
 Alpha  occ. eigenvalues --   -0.45909  -0.45804  -0.45487  -0.45191  -0.44784
 Alpha  occ. eigenvalues --   -0.44674  -0.44610  -0.44554  -0.44185  -0.44089
 Alpha  occ. eigenvalues --   -0.43938  -0.43790  -0.43451  -0.43347  -0.43104
 Alpha  occ. eigenvalues --   -0.42985  -0.42885  -0.42771  -0.42681  -0.42297
 Alpha  occ. eigenvalues --   -0.42187  -0.41960  -0.41583  -0.41555  -0.41428
 Alpha  occ. eigenvalues --   -0.41348  -0.41194  -0.40811  -0.40595  -0.40447
 Alpha  occ. eigenvalues --   -0.40407  -0.40300  -0.40163  -0.40110  -0.39767
 Alpha  occ. eigenvalues --   -0.39757  -0.39459  -0.39278  -0.39061  -0.38845
 Alpha  occ. eigenvalues --   -0.38685  -0.38534  -0.38419  -0.38285  -0.37742
 Alpha  occ. eigenvalues --   -0.37581  -0.37554  -0.37451  -0.37279  -0.37011
 Alpha  occ. eigenvalues --   -0.36769  -0.36552  -0.36273  -0.36120  -0.36036
 Alpha  occ. eigenvalues --   -0.35735  -0.35672  -0.35418  -0.35325  -0.34893
 Alpha  occ. eigenvalues --   -0.34750  -0.34492  -0.34207  -0.34089  -0.33928
 Alpha  occ. eigenvalues --   -0.33437  -0.33136  -0.32901  -0.32520  -0.32393
 Alpha  occ. eigenvalues --   -0.32143  -0.32098  -0.32013  -0.31567  -0.31419
 Alpha  occ. eigenvalues --   -0.30483  -0.30225  -0.29850  -0.29762  -0.28982
 Alpha  occ. eigenvalues --   -0.28796  -0.28413  -0.27348  -0.26651  -0.26549
 Alpha  occ. eigenvalues --   -0.26229  -0.25904  -0.25516  -0.25281  -0.21475
 Alpha  occ. eigenvalues --   -0.18781
 Alpha virt. eigenvalues --   -0.11188  -0.05744  -0.04014  -0.02732  -0.01190
 Alpha virt. eigenvalues --   -0.00338  -0.00052   0.00779   0.01292   0.02648
 Alpha virt. eigenvalues --    0.03681   0.04199   0.04751   0.05081   0.05219

 Mulliken charges:
               1
     1  Mg   0.988919
     2  C    0.021118
     3  C   -0.041596
     4  C   -0.071138
     5  C   -0.090070
     6  N   -0.404306
     7  C    0.007356
     8  C   -0.081920
     9  C   -0.097640
    10  C    0.114614
    11  C   -0.015256
    12  C    0.025484
    13  C    0.012603
    14  C    0.200674
    15  O   -0.287333
    16  O   -0.359475
    17  N   -0.477570
    18  C    0.091936
    19  C   -0.192902
    20  C   -0.090572
    21  C    0.170820
    22  C    0.080459
    23  C    0.085596
    24  O   -0.278895
    25  C   -0.037894
    26  N   -0.344777
    27  C    0.097074
    28  C   -0.120322
    29  C   -0.052265
    30  C    0.041847
    31  C   -0.020040
    32  C   -0.058097
    33  C   -0.070603
    34  N   -0.487822
    35  C    0.154354
    36  C   -0.186449
    37  C   -0.048405
    38  C    0.146018
    39  C    0.062831
    40  C    0.150545
    41  O   -0.223303
    42  C   -0.075896
    43  C    0.261321
    44  O   -0.214048
    45  O   -0.417021
    46  C    0.127712
    47  C    0.259485
    48  C   -0.110769
    49  C   -0.254898
    50  C    0.011230
    51  C    0.015257
    52  C   -0.051364
    53  C    0.031180
    54  C   -0.230724
    55  C   -0.007097
    56  C   -0.029419
    57  C   -0.028591
    58  C    0.023597
    59  C   -0.212417
    60  C   -0.022883
    61  C   -0.025986
    62  C   -0.044412
    63  C    0.016839
    64  C   -0.276131
    65  C   -0.016902
    66  C    0.004782
    67  H    0.008555
    68  H   -0.012186
    69  H   -0.007852
    70  H    0.062608
    71  H    0.054327
    72  H    0.049119
    73  H    0.043856
    74  H    0.035247
    75  H    0.059150
    76  H    0.060003
    77  H    0.052942
    78  H    0.049890
    79  H    0.068110
    80  H    0.043556
    81  H    0.068105
    82  H    0.078470
    83  H    0.057712
    84  H    0.062249
    85  H    0.058552
    86  H    0.038714
    87  H    0.028155
    88  H    0.042607
    89  H    0.049650
    90  H    0.057976
    91  H    0.045304
    92  H    0.041524
    93  H    0.053270
    94  H    0.045196
    95  H    0.057250
    96  H    0.081721
    97  H    0.047739
    98  H    0.073081
    99  H    0.062620
   100  H    0.042973
   101  H    0.053702
   102  H    0.048791
   103  H    0.076274
   104  H    0.019190
   105  H    0.046153
   106  H    0.051677
   107  H    0.037634
   108  H    0.030474
   109  H    0.023151
   110  H    0.034684
   111  H    0.036390
   112  H    0.027422
   113  H    0.022736
   114  H    0.043377
   115  H    0.007893
   116  H    0.047191
   117  H    0.020871
   118  H    0.027743
   119  H    0.016376
   120  H    0.024660
   121  H    0.037360
   122  H    0.021855
   123  H    0.020698
   124  H    0.039019
   125  H    0.020875
   126  H    0.042592
   127  H    0.035888
   128  H    0.021229
   129  H    0.012625
   130  H    0.022101
   131  H    0.040631
   132  H    0.021726
   133  H    0.020113
   134  H    0.042907
   135  H    0.030108
   136  H    0.026774
   137  H    0.044518
   138  H    0.035532
   139  H    0.025868
   140  H    0.034556
 Sum of Mulliken charges =  -0.00000

 Dipole moment (field-independent basis, Debye):
    X=              1.4942    Y=              1.2706    Z=              3.2970  Tot=              3.8363
 Quadrupole moment (field-independent basis, Debye-Ang):
   XX=           -404.5089   YY=           -411.3796   ZZ=           -380.4693
   XY=             45.2615   XZ=              6.7477   YZ=             20.7775

 Normal termination of Gaussian 16 at Thu Apr 28 02:01:23 2022.
