 Gaussian 16, Revision A.03,
 Gaussian 16:  ES64L-G16RevA.03 25-Dec-2016

 --------------------------------
 #p wB97XD/Def2SVP td=(nstates=5)
 --------------------------------

 -----------------------------------------------------
 step_1401_chromophore_17 TDDFT with wB97XD functional
 -----------------------------------------------------
 Symbolic Z-matrix:
 Charge =  0 Multiplicity = 1

                         Standard orientation:
 ---------------------------------------------------------------------
 Center     Atomic      Atomic             Coordinates (Angstroms)
 Number     Number       Type             X           Y           Z
 ---------------------------------------------------------------------
      1         12           0        4.007660    1.255507   -0.627907
      2          6           0        3.940716   -2.161336   -0.746780
      3          6           0        1.099236    1.262768   -2.599694
      4          6           0        3.657967    4.559438    0.069514
      5          6           0        6.371681    1.047860    1.887067
      6          7           0        2.758267   -0.288044   -1.517222
      7          6           0        2.885712   -1.640960   -1.458451
      8          6           0        1.781349   -2.445299   -2.266024
      9          6           0        1.132582   -1.286684   -3.051484
     10          6           0        1.624059   -0.030608   -2.298712
     11          6           0        1.558142   -1.346908   -4.598404
     12          6           0        0.807267   -3.014336   -1.158463
     13          6           0        0.175708   -4.395475   -1.355826
     14          6           0       -1.191206   -4.671763   -0.803285
     15          8           0       -2.237739   -4.412449   -1.412894
     16          8           0       -1.135810   -5.189192    0.464462
     17          7           0        2.681194    2.736056   -1.355636
     18          6           0        1.596283    2.556358   -2.125717
     19          6           0        0.986139    3.870345   -2.343696
     20          6           0        1.694810    4.756099   -1.581202
     21          6           0        2.749302    4.044299   -0.890374
     22          6           0       -0.111620    3.998826   -3.367058
     23          6           0        1.322575    6.295068   -1.600244
     24          8           0        0.291410    6.735556   -2.211817
     25          6           0        2.221328    7.346422   -0.905161
     26          7           0        4.785533    2.543575    0.956277
     27          6           0        4.579198    3.905180    0.849580
     28          6           0        5.308922    4.591781    2.070297
     29          6           0        6.113408    3.411410    2.734284
     30          6           0        5.727293    2.302987    1.805426
     31          6           0        6.228127    5.813423    1.645572
     32          6           0        5.952088    2.943766    4.279653
     33          6           0        7.063931    3.348612    5.282293
     34          7           0        5.010161   -0.161003    0.416268
     35          6           0        6.032867   -0.115106    1.317109
     36          6           0        6.484199   -1.439879    1.672194
     37          6           0        5.763280   -2.269723    0.802411
     38          6           0        4.833468   -1.456814    0.095402
     39          6           0        7.612791   -1.916994    2.610182
     40          6           0        5.645859   -3.612664    0.212767
     41          8           0        6.406343   -4.580271    0.314469
     42          6           0        4.418185   -3.519901   -0.677002
     43          6           0        4.786150   -4.138571   -1.937327
     44          8           0        5.585237   -3.667110   -2.696487
     45          8           0        3.949891   -5.266376   -2.262055
     46          6           0        4.071878   -5.841895   -3.610056
     47          6           0       -2.466163   -5.454106    1.053988
     48          6           0       -3.031776   -4.233494    1.783381
     49          6           0       -3.807420   -4.122038    2.866027
     50          6           0       -4.377114   -5.306844    3.593537
     51          6           0       -4.142799   -2.764560    3.498022
     52          6           0       -5.241659   -1.930570    2.782569
     53          6           0       -6.664636   -2.578545    2.565825
     54          6           0       -7.123680   -2.594690    1.086993
     55          6           0       -8.037268   -3.737213    0.732190
     56          6           0       -7.981086   -1.307808    0.749600
     57          6           0       -7.006443   -0.274705    0.175026
     58          6           0       -6.682303    0.857568    1.127638
     59          6           0       -7.277637    2.220792    0.627670
     60          6           0       -6.146069    3.320987    0.763091
     61          6           0       -8.492510    2.695748    1.487872
     62          6           0       -9.895509    2.164859    1.022647
     63          6           0      -10.591980    3.189523    0.133599
     64          6           0      -10.506811    2.788645   -1.371852
     65          6           0      -10.259007    4.149621   -2.145795
     66          6           0      -11.808744    2.151932   -1.807210
     67          1           0        0.283665    1.368310   -3.318318
     68          1           0        3.673949    5.648171    0.163972
     69          1           0        7.103725    0.916596    2.687274
     70          1           0        2.233333   -3.153051   -2.960439
     71          1           0        0.053292   -1.435007   -3.048598
     72          1           0        2.123879   -0.479445   -4.938590
     73          1           0        0.712227   -1.504324   -5.266887
     74          1           0        2.194491   -2.163865   -4.940555
     75          1           0       -0.004690   -2.320567   -0.941101
     76          1           0        1.366945   -3.229356   -0.248875
     77          1           0        0.793487   -5.147789   -0.865094
     78          1           0        0.163767   -4.723172   -2.396042
     79          1           0       -1.046682    3.957617   -2.806968
     80          1           0       -0.005561    3.217624   -4.120151
     81          1           0        0.143576    4.970188   -3.791012
     82          1           0        2.032201    7.440453    0.164474
     83          1           0        1.984919    8.294658   -1.388503
     84          1           0        3.274934    7.172521   -1.119446
     85          1           0        4.536027    5.087540    2.658186
     86          1           0        7.187143    3.594632    2.761684
     87          1           0        7.218604    5.467184    1.352265
     88          1           0        6.542853    6.425946    2.490363
     89          1           0        5.841628    6.387333    0.803637
     90          1           0        5.910725    1.855287    4.301133
     91          1           0        4.992625    3.420527    4.480179
     92          1           0        7.559566    2.405590    5.509137
     93          1           0        6.756303    3.732252    6.255465
     94          1           0        7.740856    4.063522    4.813847
     95          1           0        8.399462   -1.302990    2.172811
     96          1           0        7.724020   -2.997967    2.516179
     97          1           0        7.600013   -1.578047    3.646471
     98          1           0        3.705309   -4.224764   -0.249378
     99          1           0        5.093401   -6.181937   -3.783330
    100          1           0        3.799425   -5.191557   -4.441120
    101          1           0        3.409674   -6.693875   -3.757148
    102          1           0       -2.277289   -6.156202    1.866895
    103          1           0       -3.168902   -5.913622    0.358839
    104          1           0       -2.703920   -3.239609    1.478183
    105          1           0       -5.362133   -5.045773    3.978264
    106          1           0       -3.786632   -5.594969    4.462658
    107          1           0       -4.359074   -6.173754    2.932775
    108          1           0       -3.251393   -2.136767    3.455453
    109          1           0       -4.285044   -2.900137    4.569460
    110          1           0       -4.710417   -1.659393    1.869506
    111          1           0       -5.363803   -0.994837    3.326834
    112          1           0       -7.399928   -2.056691    3.177924
    113          1           0       -6.590966   -3.639390    2.805418
    114          1           0       -6.231709   -2.795378    0.493511
    115          1           0       -7.613146   -4.593538    1.256510
    116          1           0       -8.132919   -3.903175   -0.341721
    117          1           0       -9.033233   -3.698681    1.172708
    118          1           0       -8.662788   -1.094649    1.573485
    119          1           0       -8.721992   -1.509595   -0.024288
    120          1           0       -7.595689    0.057987   -0.679120
    121          1           0       -6.065290   -0.700543   -0.174877
    122          1           0       -5.605577    0.865559    1.298874
    123          1           0       -7.087605    0.674851    2.123229
    124          1           0       -7.547991    2.174589   -0.426691
    125          1           0       -6.502319    4.219095    0.259730
    126          1           0       -5.291028    2.930939    0.210006
    127          1           0       -6.026001    3.719593    1.769922
    128          1           0       -8.617803    3.766507    1.650831
    129          1           0       -8.304097    2.248883    2.463699
    130          1           0      -10.371441    2.050250    1.996866
    131          1           0       -9.733104    1.215074    0.514474
    132          1           0      -10.205009    4.189709    0.332330
    133          1           0      -11.641395    3.292942    0.413464
    134          1           0       -9.674434    2.119669   -1.593501
    135          1           0      -10.362950    4.973158   -1.440339
    136          1           0      -11.018381    4.335313   -2.905794
    137          1           0       -9.242642    4.088844   -2.534748
    138          1           0      -11.941040    2.232093   -2.886307
    139          1           0      -12.668716    2.676168   -1.390775
    140          1           0      -11.852326    1.126811   -1.439204
 ---------------------------------------------------------------------

 SCF Done:  E(RwB97XD) =  -3007.83046265     A.U. after   19 cycles

 Excitation energies and oscillator strengths:

 Excited State   1:      Singlet-A      1.6620 eV  746.00 nm  f=0.3539  <S**2>=0.000
     245 -> 248        0.17493
     246 -> 247        0.68374
     245 <- 248        0.11315
 This state for optimization and/or second-order correction.
 Total Energy, E(TD-HF/TD-DFT) =  -3007.76938537
 Copying the excited state density for this state as the 1-particle RhoCI density.

 Excited State   2:      Singlet-A      2.2344 eV  554.90 nm  f=0.0609  <S**2>=0.000
     245 -> 247        0.61256
     246 -> 248       -0.33943

 Excited State   3:      Singlet-A      3.4391 eV  360.51 nm  f=0.5434  <S**2>=0.000
     241 -> 247        0.30554
     242 -> 247        0.12857
     245 -> 247        0.27692
     246 -> 248        0.54989
     245 <- 247       -0.10205

 Excited State   4:      Singlet-A      3.5474 eV  349.50 nm  f=0.1062  <S**2>=0.000
     238 -> 247        0.11547
     239 -> 247        0.11751
     241 -> 247       -0.33190
     242 -> 247       -0.16474
     244 -> 247        0.48137
     245 -> 247        0.13212
     246 -> 248        0.19840

 Excited State   5:      Singlet-A      3.6023 eV  344.18 nm  f=0.0026  <S**2>=0.000
     238 -> 247        0.32613
     238 -> 249       -0.20999
     238 -> 250       -0.12500
     239 -> 247        0.38365
     239 -> 249       -0.19956
     239 -> 250       -0.12194
     244 -> 247       -0.28920

 The electronic state is 1-A.
 Alpha  occ. eigenvalues --  -46.95556 -19.31141 -19.30041 -19.25639 -19.24949
 Alpha  occ. eigenvalues --  -19.24553 -19.24151 -14.47368 -14.47020 -14.44394
 Alpha  occ. eigenvalues --  -14.44027 -10.43465 -10.43204 -10.40110 -10.39812
 Alpha  occ. eigenvalues --  -10.36672 -10.35923 -10.35614 -10.35590 -10.35144
 Alpha  occ. eigenvalues --  -10.34862 -10.34156 -10.33864 -10.33740 -10.33635
 Alpha  occ. eigenvalues --  -10.33460 -10.33245 -10.33205 -10.32856 -10.32677
 Alpha  occ. eigenvalues --  -10.32002 -10.32001 -10.31581 -10.31542 -10.31521
 Alpha  occ. eigenvalues --  -10.31453 -10.31359 -10.31026 -10.30745 -10.30633
 Alpha  occ. eigenvalues --  -10.30603 -10.30561 -10.30547 -10.30387 -10.30353
 Alpha  occ. eigenvalues --  -10.30214 -10.30050 -10.29730 -10.29561 -10.29507
 Alpha  occ. eigenvalues --  -10.29505 -10.29263 -10.29205 -10.28900 -10.28766
 Alpha  occ. eigenvalues --  -10.28645 -10.28034 -10.27989 -10.27959 -10.27956
 Alpha  occ. eigenvalues --  -10.27734 -10.27717 -10.27648 -10.27591 -10.27560
 Alpha  occ. eigenvalues --  -10.27214  -3.21568  -1.95140  -1.94711  -1.94523
 Alpha  occ. eigenvalues --   -1.18451  -1.17886  -1.12242  -1.10193  -1.09395
 Alpha  occ. eigenvalues --   -1.09319  -1.07993  -1.06822  -1.05489  -1.04703
 Alpha  occ. eigenvalues --   -0.96835  -0.92233  -0.91640  -0.91369  -0.91079
 Alpha  occ. eigenvalues --   -0.90479  -0.90235  -0.89644  -0.88869  -0.88493
 Alpha  occ. eigenvalues --   -0.87920  -0.87843  -0.86592  -0.85806  -0.85260
 Alpha  occ. eigenvalues --   -0.84230  -0.83973  -0.83124  -0.82712  -0.82396
 Alpha  occ. eigenvalues --   -0.81671  -0.80498  -0.80045  -0.79283  -0.78611
 Alpha  occ. eigenvalues --   -0.77827  -0.77477  -0.76779  -0.75728  -0.75487
 Alpha  occ. eigenvalues --   -0.75307  -0.75133  -0.74291  -0.72853  -0.71723
 Alpha  occ. eigenvalues --   -0.71143  -0.69206  -0.68718  -0.68326  -0.68149
 Alpha  occ. eigenvalues --   -0.67774  -0.67374  -0.66948  -0.66610  -0.65388
 Alpha  occ. eigenvalues --   -0.65134  -0.64879  -0.64393  -0.64251  -0.62465
 Alpha  occ. eigenvalues --   -0.62199  -0.61495  -0.61340  -0.61175  -0.60958
 Alpha  occ. eigenvalues --   -0.59647  -0.59623  -0.58627  -0.57916  -0.57637
 Alpha  occ. eigenvalues --   -0.57485  -0.56957  -0.56613  -0.56095  -0.55958
 Alpha  occ. eigenvalues --   -0.55535  -0.55294  -0.55107  -0.54869  -0.54588
 Alpha  occ. eigenvalues --   -0.54212  -0.53904  -0.53850  -0.53734  -0.53572
 Alpha  occ. eigenvalues --   -0.53246  -0.53157  -0.52787  -0.52632  -0.52135
 Alpha  occ. eigenvalues --   -0.52076  -0.51931  -0.51798  -0.51674  -0.51433
 Alpha  occ. eigenvalues --   -0.51236  -0.51076  -0.50724  -0.50636  -0.50360
 Alpha  occ. eigenvalues --   -0.50302  -0.50198  -0.50039  -0.49907  -0.49559
 Alpha  occ. eigenvalues --   -0.49416  -0.49178  -0.48923  -0.48803  -0.48609
 Alpha  occ. eigenvalues --   -0.48543  -0.48362  -0.48106  -0.47826  -0.47722
 Alpha  occ. eigenvalues --   -0.47684  -0.47529  -0.47340  -0.47219  -0.46951
 Alpha  occ. eigenvalues --   -0.46834  -0.46619  -0.46386  -0.46249  -0.45984
 Alpha  occ. eigenvalues --   -0.45802  -0.45709  -0.45599  -0.45444  -0.44894
 Alpha  occ. eigenvalues --   -0.44699  -0.44677  -0.44547  -0.44279  -0.44102
 Alpha  occ. eigenvalues --   -0.43954  -0.43627  -0.43360  -0.43228  -0.43084
 Alpha  occ. eigenvalues --   -0.42725  -0.42659  -0.42431  -0.42383  -0.41972
 Alpha  occ. eigenvalues --   -0.41819  -0.41523  -0.41231  -0.41131  -0.41006
 Alpha  occ. eigenvalues --   -0.40486  -0.40060  -0.39917  -0.39523  -0.39392
 Alpha  occ. eigenvalues --   -0.39196  -0.39012  -0.38978  -0.38709  -0.38376
 Alpha  occ. eigenvalues --   -0.37454  -0.36984  -0.36898  -0.36741  -0.35766
 Alpha  occ. eigenvalues --   -0.35700  -0.35509  -0.34007  -0.33841  -0.33498
 Alpha  occ. eigenvalues --   -0.33009  -0.32763  -0.32037  -0.31969  -0.26558
 Alpha  occ. eigenvalues --   -0.22927
 Alpha virt. eigenvalues --   -0.06961  -0.00311   0.02308   0.03832   0.04907
 Alpha virt. eigenvalues --    0.06354   0.06684   0.07505   0.07990   0.09320
 Alpha virt. eigenvalues --    0.10180   0.10861   0.11403   0.11781   0.11880

 Mulliken charges:
               1
     1  Mg   0.980542
     2  C    0.020524
     3  C   -0.057319
     4  C   -0.075155
     5  C   -0.104572
     6  N   -0.375763
     7  C   -0.022214
     8  C   -0.052131
     9  C   -0.075427
    10  C    0.100985
    11  C   -0.007225
    12  C    0.034598
    13  C    0.027441
    14  C    0.190280
    15  O   -0.284844
    16  O   -0.360059
    17  N   -0.440512
    18  C    0.076731
    19  C   -0.184585
    20  C   -0.087539
    21  C    0.159844
    22  C    0.095543
    23  C    0.077900
    24  O   -0.275401
    25  C   -0.023529
    26  N   -0.307027
    27  C    0.078915
    28  C   -0.092049
    29  C   -0.035501
    30  C    0.032776
    31  C   -0.008655
    32  C   -0.043554
    33  C   -0.052951
    34  N   -0.450698
    35  C    0.151362
    36  C   -0.182569
    37  C   -0.046381
    38  C    0.129863
    39  C    0.074033
    40  C    0.133080
    41  O   -0.210813
    42  C   -0.032360
    43  C    0.235856
    44  O   -0.208733
    45  O   -0.414844
    46  C    0.142391
    47  C    0.278571
    48  C   -0.124372
    49  C   -0.241158
    50  C    0.022819
    51  C    0.033972
    52  C   -0.032764
    53  C    0.050095
    54  C   -0.197752
    55  C    0.007800
    56  C   -0.018935
    57  C   -0.005850
    58  C    0.034303
    59  C   -0.177362
    60  C   -0.008158
    61  C   -0.011623
    62  C   -0.020125
    63  C    0.031108
    64  C   -0.244677
    65  C   -0.004029
    66  C    0.016594
    67  H    0.002473
    68  H   -0.028333
    69  H   -0.014039
    70  H    0.046175
    71  H    0.046355
    72  H    0.043312
    73  H    0.038720
    74  H    0.028743
    75  H    0.053371
    76  H    0.048812
    77  H    0.047161
    78  H    0.044684
    79  H    0.062727
    80  H    0.036699
    81  H    0.061285
    82  H    0.074254
    83  H    0.055313
    84  H    0.055837
    85  H    0.049359
    86  H    0.024198
    87  H    0.020574
    88  H    0.036622
    89  H    0.044254
    90  H    0.047520
    91  H    0.037419
    92  H    0.034806
    93  H    0.048712
    94  H    0.038746
    95  H    0.051249
    96  H    0.080590
    97  H    0.044959
    98  H    0.064755
    99  H    0.058743
   100  H    0.039094
   101  H    0.050598
   102  H    0.043235
   103  H    0.072673
   104  H    0.014483
   105  H    0.041577
   106  H    0.046800
   107  H    0.031695
   108  H    0.023351
   109  H    0.016742
   110  H    0.021222
   111  H    0.029085
   112  H    0.020199
   113  H    0.001750
   114  H    0.030054
   115  H    0.000263
   116  H    0.042048
   117  H    0.013774
   118  H    0.018270
   119  H    0.008063
   120  H    0.014528
   121  H    0.029812
   122  H    0.013572
   123  H    0.005748
   124  H    0.021654
   125  H    0.013622
   126  H    0.037046
   127  H    0.029768
   128  H    0.012196
   129  H    0.002629
   130  H    0.015683
   131  H    0.022111
   132  H    0.010097
   133  H    0.011761
   134  H    0.029927
   135  H    0.023090
   136  H    0.021046
   137  H    0.039320
   138  H    0.029470
   139  H    0.018497
   140  H    0.028679
 Sum of Mulliken charges =  -0.00000

 Dipole moment (field-independent basis, Debye):
    X=              1.9276    Y=              0.8195    Z=              3.5671  Tot=              4.1366
 Quadrupole moment (field-independent basis, Debye-Ang):
   XX=           -401.2183   YY=           -410.9369   ZZ=           -380.4848
   XY=             43.6601   XZ=              7.5145   YZ=             21.0960

 Normal termination of Gaussian 16 at Thu Apr 28 02:31:04 2022.
