 Gaussian 16, Revision A.03,
 Gaussian 16:  ES64L-G16RevA.03 25-Dec-2016

 --------------------
 #p ZINDO=(nstates=5)
 --------------------

 ------------------------------
 step_1401_chromophore_17 ZINDO
 ------------------------------
 Symbolic Z-matrix:
 Charge =  0 Multiplicity = 1

                         Standard orientation:
 ---------------------------------------------------------------------
 Center     Atomic      Atomic             Coordinates (Angstroms)
 Number     Number       Type             X           Y           Z
 ---------------------------------------------------------------------
      1         12           0        4.007660    1.255507   -0.627907
      2          6           0        3.940716   -2.161336   -0.746780
      3          6           0        1.099236    1.262768   -2.599694
      4          6           0        3.657967    4.559438    0.069514
      5          6           0        6.371681    1.047860    1.887067
      6          7           0        2.758267   -0.288044   -1.517222
      7          6           0        2.885712   -1.640960   -1.458451
      8          6           0        1.781349   -2.445299   -2.266024
      9          6           0        1.132582   -1.286684   -3.051484
     10          6           0        1.624059   -0.030608   -2.298712
     11          6           0        1.558142   -1.346908   -4.598404
     12          6           0        0.807267   -3.014336   -1.158463
     13          6           0        0.175708   -4.395475   -1.355826
     14          6           0       -1.191206   -4.671763   -0.803285
     15          8           0       -2.237739   -4.412449   -1.412894
     16          8           0       -1.135810   -5.189192    0.464462
     17          7           0        2.681194    2.736056   -1.355636
     18          6           0        1.596283    2.556358   -2.125717
     19          6           0        0.986139    3.870345   -2.343696
     20          6           0        1.694810    4.756099   -1.581202
     21          6           0        2.749302    4.044299   -0.890374
     22          6           0       -0.111620    3.998826   -3.367058
     23          6           0        1.322575    6.295068   -1.600244
     24          8           0        0.291410    6.735556   -2.211817
     25          6           0        2.221328    7.346422   -0.905161
     26          7           0        4.785533    2.543575    0.956277
     27          6           0        4.579198    3.905180    0.849580
     28          6           0        5.308922    4.591781    2.070297
     29          6           0        6.113408    3.411410    2.734284
     30          6           0        5.727293    2.302987    1.805426
     31          6           0        6.228127    5.813423    1.645572
     32          6           0        5.952088    2.943766    4.279653
     33          6           0        7.063931    3.348612    5.282293
     34          7           0        5.010161   -0.161003    0.416268
     35          6           0        6.032867   -0.115106    1.317109
     36          6           0        6.484199   -1.439879    1.672194
     37          6           0        5.763280   -2.269723    0.802411
     38          6           0        4.833468   -1.456814    0.095402
     39          6           0        7.612791   -1.916994    2.610182
     40          6           0        5.645859   -3.612664    0.212767
     41          8           0        6.406343   -4.580271    0.314469
     42          6           0        4.418185   -3.519901   -0.677002
     43          6           0        4.786150   -4.138571   -1.937327
     44          8           0        5.585237   -3.667110   -2.696487
     45          8           0        3.949891   -5.266376   -2.262055
     46          6           0        4.071878   -5.841895   -3.610056
     47          6           0       -2.466163   -5.454106    1.053988
     48          6           0       -3.031776   -4.233494    1.783381
     49          6           0       -3.807420   -4.122038    2.866027
     50          6           0       -4.377114   -5.306844    3.593537
     51          6           0       -4.142799   -2.764560    3.498022
     52          6           0       -5.241659   -1.930570    2.782569
     53          6           0       -6.664636   -2.578545    2.565825
     54          6           0       -7.123680   -2.594690    1.086993
     55          6           0       -8.037268   -3.737213    0.732190
     56          6           0       -7.981086   -1.307808    0.749600
     57          6           0       -7.006443   -0.274705    0.175026
     58          6           0       -6.682303    0.857568    1.127638
     59          6           0       -7.277637    2.220792    0.627670
     60          6           0       -6.146069    3.320987    0.763091
     61          6           0       -8.492510    2.695748    1.487872
     62          6           0       -9.895509    2.164859    1.022647
     63          6           0      -10.591980    3.189523    0.133599
     64          6           0      -10.506811    2.788645   -1.371852
     65          6           0      -10.259007    4.149621   -2.145795
     66          6           0      -11.808744    2.151932   -1.807210
     67          1           0        0.283665    1.368310   -3.318318
     68          1           0        3.673949    5.648171    0.163972
     69          1           0        7.103725    0.916596    2.687274
     70          1           0        2.233333   -3.153051   -2.960439
     71          1           0        0.053292   -1.435007   -3.048598
     72          1           0        2.123879   -0.479445   -4.938590
     73          1           0        0.712227   -1.504324   -5.266887
     74          1           0        2.194491   -2.163865   -4.940555
     75          1           0       -0.004690   -2.320567   -0.941101
     76          1           0        1.366945   -3.229356   -0.248875
     77          1           0        0.793487   -5.147789   -0.865094
     78          1           0        0.163767   -4.723172   -2.396042
     79          1           0       -1.046682    3.957617   -2.806968
     80          1           0       -0.005561    3.217624   -4.120151
     81          1           0        0.143576    4.970188   -3.791012
     82          1           0        2.032201    7.440453    0.164474
     83          1           0        1.984919    8.294658   -1.388503
     84          1           0        3.274934    7.172521   -1.119446
     85          1           0        4.536027    5.087540    2.658186
     86          1           0        7.187143    3.594632    2.761684
     87          1           0        7.218604    5.467184    1.352265
     88          1           0        6.542853    6.425946    2.490363
     89          1           0        5.841628    6.387333    0.803637
     90          1           0        5.910725    1.855287    4.301133
     91          1           0        4.992625    3.420527    4.480179
     92          1           0        7.559566    2.405590    5.509137
     93          1           0        6.756303    3.732252    6.255465
     94          1           0        7.740856    4.063522    4.813847
     95          1           0        8.399462   -1.302990    2.172811
     96          1           0        7.724020   -2.997967    2.516179
     97          1           0        7.600013   -1.578047    3.646471
     98          1           0        3.705309   -4.224764   -0.249378
     99          1           0        5.093401   -6.181937   -3.783330
    100          1           0        3.799425   -5.191557   -4.441120
    101          1           0        3.409674   -6.693875   -3.757148
    102          1           0       -2.277289   -6.156202    1.866895
    103          1           0       -3.168902   -5.913622    0.358839
    104          1           0       -2.703920   -3.239609    1.478183
    105          1           0       -5.362133   -5.045773    3.978264
    106          1           0       -3.786632   -5.594969    4.462658
    107          1           0       -4.359074   -6.173754    2.932775
    108          1           0       -3.251393   -2.136767    3.455453
    109          1           0       -4.285044   -2.900137    4.569460
    110          1           0       -4.710417   -1.659393    1.869506
    111          1           0       -5.363803   -0.994837    3.326834
    112          1           0       -7.399928   -2.056691    3.177924
    113          1           0       -6.590966   -3.639390    2.805418
    114          1           0       -6.231709   -2.795378    0.493511
    115          1           0       -7.613146   -4.593538    1.256510
    116          1           0       -8.132919   -3.903175   -0.341721
    117          1           0       -9.033233   -3.698681    1.172708
    118          1           0       -8.662788   -1.094649    1.573485
    119          1           0       -8.721992   -1.509595   -0.024288
    120          1           0       -7.595689    0.057987   -0.679120
    121          1           0       -6.065290   -0.700543   -0.174877
    122          1           0       -5.605577    0.865559    1.298874
    123          1           0       -7.087605    0.674851    2.123229
    124          1           0       -7.547991    2.174589   -0.426691
    125          1           0       -6.502319    4.219095    0.259730
    126          1           0       -5.291028    2.930939    0.210006
    127          1           0       -6.026001    3.719593    1.769922
    128          1           0       -8.617803    3.766507    1.650831
    129          1           0       -8.304097    2.248883    2.463699
    130          1           0      -10.371441    2.050250    1.996866
    131          1           0       -9.733104    1.215074    0.514474
    132          1           0      -10.205009    4.189709    0.332330
    133          1           0      -11.641395    3.292942    0.413464
    134          1           0       -9.674434    2.119669   -1.593501
    135          1           0      -10.362950    4.973158   -1.440339
    136          1           0      -11.018381    4.335313   -2.905794
    137          1           0       -9.242642    4.088844   -2.534748
    138          1           0      -11.941040    2.232093   -2.886307
    139          1           0      -12.668716    2.676168   -1.390775
    140          1           0      -11.852326    1.126811   -1.439204
 ---------------------------------------------------------------------

 SCF Done:  E(RZINDO/S) =  -474.202105591     A.U. after   20 cycles

 Excitation energies and oscillator strengths:

 Excited State   1:      Singlet-A      1.2654 eV  979.83 nm  f=0.5401  <S**2>=0.000
     175 ->178        -0.17453
     176 ->177         0.66609
 This state for optimization and/or second-order correction.
 Total Energy, E(CIS/TDA) =  -474.155604340
 Copying the excited state density for this state as the 1-particle RhoCI density.

 Excited State   2:      Singlet-A      1.9421 eV  638.41 nm  f=0.0054  <S**2>=0.000
     175 ->177         0.49707
     176 ->178         0.47723

 Excited State   3:      Singlet-A      2.9449 eV  421.01 nm  f=0.7317  <S**2>=0.000
     175 ->177        -0.35079
     176 ->178         0.38539
     176 ->179        -0.16670
     176 ->180        -0.38166

 Excited State   4:      Singlet-A      2.9824 eV  415.72 nm  f=0.0532  <S**2>=0.000
     168 ->177        -0.31426
     168 ->179        -0.37260
     168 ->181         0.14204
     168 ->185        -0.16865
     176 ->179         0.15208
     176 ->180         0.31907

 Excited State   5:      Singlet-A      3.0000 eV  413.27 nm  f=0.4554  <S**2>=0.000
     168 ->177         0.18131
     168 ->179         0.21346
     168 ->185         0.10383
     171 ->177        -0.12254
     175 ->177        -0.26263
     176 ->178         0.26493
     176 ->180         0.42729
     176 ->181        -0.11384

 The electronic state is 1-A.
 Alpha  occ. eigenvalues --   -1.88188  -1.81646  -1.79795  -1.73212  -1.72272
 Alpha  occ. eigenvalues --   -1.71058  -1.66246  -1.61046  -1.59627  -1.54391
 Alpha  occ. eigenvalues --   -1.53814  -1.50765  -1.49298  -1.47957  -1.46980
 Alpha  occ. eigenvalues --   -1.45865  -1.43597  -1.41221  -1.37446  -1.36562
 Alpha  occ. eigenvalues --   -1.36184  -1.34236  -1.33108  -1.30923  -1.29377
 Alpha  occ. eigenvalues --   -1.28888  -1.27239  -1.22528  -1.20279  -1.18748
 Alpha  occ. eigenvalues --   -1.17839  -1.16110  -1.15175  -1.14742  -1.14095
 Alpha  occ. eigenvalues --   -1.10790  -1.09232  -1.09107  -1.06053  -1.04572
 Alpha  occ. eigenvalues --   -1.03052  -1.02048  -0.99091  -0.97931  -0.95573
 Alpha  occ. eigenvalues --   -0.95303  -0.94460  -0.94297  -0.93084  -0.92420
 Alpha  occ. eigenvalues --   -0.92007  -0.91813  -0.89601  -0.88924  -0.86409
 Alpha  occ. eigenvalues --   -0.86220  -0.84267  -0.83299  -0.81561  -0.79806
 Alpha  occ. eigenvalues --   -0.79633  -0.78898  -0.77890  -0.77665  -0.76324
 Alpha  occ. eigenvalues --   -0.75596  -0.75303  -0.74266  -0.73853  -0.73600
 Alpha  occ. eigenvalues --   -0.73019  -0.72764  -0.72361  -0.71235  -0.70853
 Alpha  occ. eigenvalues --   -0.69713  -0.69075  -0.68968  -0.68523  -0.67967
 Alpha  occ. eigenvalues --   -0.67419  -0.67107  -0.66007  -0.65695  -0.65300
 Alpha  occ. eigenvalues --   -0.64678  -0.64314  -0.64018  -0.63898  -0.63644
 Alpha  occ. eigenvalues --   -0.63241  -0.62946  -0.62662  -0.62330  -0.62201
 Alpha  occ. eigenvalues --   -0.61356  -0.61237  -0.60986  -0.60737  -0.59555
 Alpha  occ. eigenvalues --   -0.59254  -0.58872  -0.58845  -0.58638  -0.57889
 Alpha  occ. eigenvalues --   -0.57685  -0.57544  -0.57256  -0.57025  -0.56696
 Alpha  occ. eigenvalues --   -0.56341  -0.55572  -0.55340  -0.55215  -0.54861
 Alpha  occ. eigenvalues --   -0.54822  -0.54217  -0.53827  -0.53341  -0.52958
 Alpha  occ. eigenvalues --   -0.52622  -0.52404  -0.51679  -0.51338  -0.51266
 Alpha  occ. eigenvalues --   -0.51121  -0.50891  -0.50626  -0.50417  -0.50179
 Alpha  occ. eigenvalues --   -0.49791  -0.49714  -0.49650  -0.49349  -0.49112
 Alpha  occ. eigenvalues --   -0.48880  -0.48749  -0.48368  -0.48062  -0.47830
 Alpha  occ. eigenvalues --   -0.47539  -0.47286  -0.46999  -0.46896  -0.46551
 Alpha  occ. eigenvalues --   -0.46238  -0.46184  -0.46063  -0.45877  -0.45869
 Alpha  occ. eigenvalues --   -0.45722  -0.45195  -0.44753  -0.44687  -0.43906
 Alpha  occ. eigenvalues --   -0.43282  -0.42847  -0.42641  -0.42436  -0.42189
 Alpha  occ. eigenvalues --   -0.41732  -0.41673  -0.39510  -0.38949  -0.38729
 Alpha  occ. eigenvalues --   -0.38597  -0.37660  -0.36135  -0.35265  -0.35060
 Alpha  occ. eigenvalues --   -0.34220  -0.32969  -0.32379  -0.32288  -0.27301
 Alpha  occ. eigenvalues --   -0.21742
 Alpha virt. eigenvalues --   -0.08338  -0.02470  -0.00691   0.00916   0.01243
 Alpha virt. eigenvalues --    0.01356   0.01998   0.02483   0.04157   0.05173
 Alpha virt. eigenvalues --    0.05559   0.06767   0.07207   0.07672   0.07711

 Mulliken charges:
               1
     1  Mg   0.437135
     2  C   -0.060883
     3  C   -0.082918
     4  C   -0.046527
     5  C   -0.061749
     6  N   -0.295849
     7  C    0.156639
     8  C    0.004512
     9  C    0.009497
    10  C    0.097353
    11  C   -0.060640
    12  C   -0.014766
    13  C    0.005523
    14  C    0.473647
    15  O   -0.526387
    16  O   -0.262434
    17  N   -0.298125
    18  C    0.082655
    19  C    0.015081
    20  C   -0.040563
    21  C    0.073381
    22  C   -0.044232
    23  C    0.311926
    24  O   -0.533181
    25  C   -0.030611
    26  N   -0.245068
    27  C    0.062076
    28  C    0.001841
    29  C   -0.006212
    30  C    0.174504
    31  C   -0.061932
    32  C   -0.035086
    33  C   -0.057833
    34  N   -0.335903
    35  C    0.129497
    36  C    0.051897
    37  C   -0.058296
    38  C    0.138818
    39  C   -0.040120
    40  C    0.340944
    41  O   -0.517629
    42  C    0.075221
    43  C    0.492743
    44  O   -0.501371
    45  O   -0.297488
    46  C    0.075345
    47  C    0.112968
    48  C   -0.083921
    49  C   -0.006182
    50  C   -0.046293
    51  C   -0.018850
    52  C   -0.032795
    53  C   -0.034722
    54  C   -0.015510
    55  C   -0.058572
    56  C   -0.037079
    57  C   -0.033360
    58  C   -0.031900
    59  C   -0.015264
    60  C   -0.069548
    61  C   -0.044044
    62  C   -0.044400
    63  C   -0.030872
    64  C   -0.013507
    65  C   -0.068092
    66  C   -0.051015
    67  H    0.035234
    68  H    0.031003
    69  H    0.015218
    70  H    0.050552
    71  H    0.033098
    72  H    0.025265
    73  H    0.018685
    74  H    0.019243
    75  H    0.039497
    76  H    0.022011
    77  H    0.024500
    78  H    0.036663
    79  H    0.043309
    80  H    0.025611
    81  H    0.044276
    82  H    0.045019
    83  H    0.033314
    84  H    0.030650
    85  H    0.034556
    86  H    0.033482
    87  H    0.011198
    88  H    0.019531
    89  H    0.029483
    90  H    0.030294
    91  H    0.024482
    92  H    0.017199
    93  H    0.026501
    94  H    0.024262
    95  H    0.035869
    96  H    0.048884
    97  H    0.035010
    98  H    0.044928
    99  H    0.045633
   100  H    0.038102
   101  H    0.030217
   102  H    0.029671
   103  H    0.063865
   104  H    0.026466
   105  H    0.027308
   106  H    0.026649
   107  H    0.020599
   108  H    0.011574
   109  H    0.017897
   110  H    0.024735
   111  H    0.013590
   112  H    0.026166
   113  H    0.021222
   114  H    0.031346
   115  H    0.001887
   116  H    0.023377
   117  H    0.012892
   118  H    0.030539
   119  H    0.005845
   120  H    0.015162
   121  H    0.026497
   122  H    0.017521
   123  H    0.017143
   124  H    0.028548
   125  H    0.004807
   126  H    0.024679
   127  H    0.029490
   128  H    0.024153
   129  H    0.008420
   130  H    0.014653
   131  H    0.026780
   132  H    0.021457
   133  H    0.012923
   134  H    0.028456
   135  H    0.020122
   136  H    0.019933
   137  H    0.021882
   138  H    0.015884
   139  H    0.015952
   140  H    0.015650
 Sum of Mulliken charges =  -0.00000

 Dipole moment (field-independent basis, Debye):
    X=              3.8825    Y=             -0.6845    Z=              6.5256  Tot=              7.6240
 N-N= 4.501325987021D+03 E-N= 0.000000000000D+00  KE=-9.676579754625D+03
 Leave Link  601 at Thu Apr 28 02:43:33 2022, MaxMem=  6710886400 cpu:               0.8 elap:               0.0
 (Enter /sw/apps/gaussian-16.0/g16/l9999.exe)
 1\1\GINC-BP1-COMPUTE070\SP\RZINDO CIS\STO-3G\C55H74Mg1N4O6\OF15641\28-
 Apr-2022\0\\#p ZINDO=(nstates=5)\\step_1401_chromophore_17 ZINDO\\0,1\
 Mg,0,29.349,58.902,41.052\C,0,26.327,57.491,40.297\C,0,30.887,56.176,3
 9.455\C,0,32.278,60.615,41.158\C,0,27.694,61.821,41.887\N,0,28.628,57.
 113,40.045\C,0,27.35,56.7,39.83\C,0,27.222,55.311,39.073\C,0,28.691,54
 .843,39.13\C,0,29.46,56.135,39.484\C,0,28.862,53.652,40.193\C,0,26.79,
 55.693,37.601\C,0,25.823,54.778,36.844\C,0,25.932,54.655,35.353\O,0,26

 Normal termination of Gaussian 16 at Thu Apr 28 02:43:34 2022.
