 Gaussian 16, Revision A.03,
 Gaussian 16:  ES64L-G16RevA.03 25-Dec-2016

 ------------------------------
 #p blyp/Def2SVP td=(nstates=5)
 ------------------------------

 -------------------------------------------------
 step_601_chromophore_4 TDDFT with blyp functional
 -------------------------------------------------
 Symbolic Z-matrix:
 Charge =  0 Multiplicity = 1

                         Standard orientation:
 ---------------------------------------------------------------------
 Center     Atomic      Atomic             Coordinates (Angstroms)
 Number     Number       Type             X           Y           Z
 ---------------------------------------------------------------------
      1         12           0        5.876649    0.556710    0.309827
      2          6           0        3.491477   -2.009441    0.119790
      3          6           0        3.311138    2.678191   -0.341297
      4          6           0        8.153883    2.752818   -0.347483
      5          6           0        8.398396   -1.933912    0.482097
      6          7           0        3.724383    0.306965   -0.353120
      7          6           0        2.910076   -0.813477   -0.207958
      8          6           0        1.387461   -0.493667   -0.227011
      9          6           0        1.422512    1.034312   -0.617524
     10          6           0        2.935244    1.341674   -0.390290
     11          6           0        0.983617    1.345773   -2.099104
     12          6           0        0.651301   -0.744378    1.100685
     13          6           0       -0.919580   -0.529183    0.994229
     14          6           0       -1.853004   -1.814330    1.125922
     15          8           0       -1.668183   -2.791840    1.867873
     16          8           0       -2.924546   -1.763849    0.244372
     17          7           0        5.766140    2.480394   -0.057060
     18          6           0        4.652525    3.235631   -0.279479
     19          6           0        5.025745    4.665001   -0.335024
     20          6           0        6.426249    4.668065   -0.416065
     21          6           0        6.849914    3.258208   -0.293009
     22          6           0        3.982757    5.759624   -0.263602
     23          6           0        7.347046    5.904617   -0.581405
     24          8           0        8.552406    5.806490   -0.553483
     25          6           0        6.708061    7.360209   -0.622841
     26          7           0        8.043499    0.455347    0.267956
     27          6           0        8.744795    1.553392   -0.242544
     28          6           0       10.250114    1.191086   -0.532296
     29          6           0       10.352039   -0.158217    0.192322
     30          6           0        8.892597   -0.549941    0.294523
     31          6           0       10.460658    1.148188   -2.082960
     32          6           0       10.996992   -0.163494    1.585258
     33          6           0       12.496165   -0.619110    1.647775
     34          7           0        5.958757   -1.501180    0.488536
     35          6           0        7.039879   -2.362243    0.580835
     36          6           0        6.519613   -3.639774    0.677369
     37          6           0        5.159926   -3.576502    0.599026
     38          6           0        4.844339   -2.238542    0.455970
     39          6           0        7.254949   -4.879481    0.935867
     40          6           0        3.993949   -4.403332    0.601015
     41          8           0        3.849938   -5.621757    0.634034
     42          6           0        2.828130   -3.350197    0.387305
     43          6           0        2.029615   -3.811964   -0.772042
     44          8           0        2.470546   -4.149357   -1.890467
     45          8           0        0.699210   -3.804710   -0.460178
     46          6           0       -0.245239   -4.167583   -1.532801
     47          6           0       -3.841049   -2.933955    0.250557
     48          6           0       -5.266105   -2.512527    0.113161
     49          6           0       -6.340081   -3.278378   -0.118238
     50          6           0       -6.256649   -4.800523   -0.116123
     51          6           0       -7.747896   -2.738304   -0.227676
     52          6           0       -8.090317   -1.764811   -1.333245
     53          6           0       -8.053941   -0.321242   -0.763117
     54          6           0       -9.427711    0.356076   -0.880939
     55          6           0       -9.825814    0.524572   -2.345959
     56          6           0       -9.406697    1.821948   -0.174153
     57          6           0       -9.955456    1.744790    1.279853
     58          6           0      -10.327019    3.089680    1.858043
     59          6           0      -11.752580    3.011393    2.366541
     60          6           0      -11.995664    4.139952    3.417284
     61          6           0      -12.867986    3.097296    1.306569
     62          6           0      -13.712485    1.849351    0.984478
     63          6           0      -13.133011    1.024491   -0.222877
     64          6           0      -14.262829    0.645922   -1.193191
     65          6           0      -15.349239   -0.399382   -0.758512
     66          6           0      -13.756671    0.298367   -2.653302
     67          1           0        2.550547    3.386209   -0.677602
     68          1           0        8.810829    3.541976   -0.719810
     69          1           0        9.259110   -2.606432    0.469602
     70          1           0        0.946436   -1.112963   -1.006980
     71          1           0        0.773742    1.587419    0.061311
     72          1           0        0.125381    2.016052   -2.144366
     73          1           0        0.655111    0.428469   -2.588153
     74          1           0        1.842812    1.709916   -2.661650
     75          1           0        1.018990   -0.030066    1.836839
     76          1           0        0.839876   -1.727070    1.532610
     77          1           0       -1.176556    0.043893    0.104013
     78          1           0       -1.313579    0.195283    1.707121
     79          1           0        3.951759    6.238876   -1.241166
     80          1           0        4.326830    6.477846    0.481326
     81          1           0        3.051888    5.336204    0.115560
     82          1           0        7.533383    8.031836   -0.861477
     83          1           0        6.385855    7.644507    0.378578
     84          1           0        5.896325    7.394773   -1.349045
     85          1           0       10.886346    1.953828   -0.084997
     86          1           0       10.926758   -0.853934   -0.419521
     87          1           0       11.396800    1.694745   -2.197684
     88          1           0        9.766230    1.777914   -2.640082
     89          1           0       10.670441    0.139059   -2.436091
     90          1           0       10.460130   -0.804939    2.285208
     91          1           0       11.087975    0.865207    1.932747
     92          1           0       13.112508    0.181782    2.057247
     93          1           0       12.912377   -0.918943    0.686000
     94          1           0       12.625963   -1.474584    2.310448
     95          1           0        6.956432   -5.347384    1.873615
     96          1           0        8.334600   -4.726294    0.949045
     97          1           0        7.079331   -5.461117    0.031065
     98          1           0        2.155664   -3.373298    1.244538
     99          1           0       -1.079533   -3.493508   -1.725825
    100          1           0       -0.739342   -5.030496   -1.087398
    101          1           0        0.197009   -4.626027   -2.417755
    102          1           0       -3.747700   -3.451966    1.204649
    103          1           0       -3.605361   -3.575433   -0.598564
    104          1           0       -5.327955   -1.436358   -0.049282
    105          1           0       -6.600502   -5.253508   -1.046586
    106          1           0       -6.939274   -5.197212    0.635532
    107          1           0       -5.320617   -5.182248    0.290343
    108          1           0       -7.903083   -2.163854    0.685068
    109          1           0       -8.493889   -3.532782   -0.262724
    110          1           0       -9.040306   -2.052195   -1.782978
    111          1           0       -7.321723   -1.809470   -2.105778
    112          1           0       -7.335931    0.214279   -1.385082
    113          1           0       -7.610670   -0.245265    0.229109
    114          1           0      -10.197734   -0.269656   -0.431156
    115          1           0      -10.188568    1.533369   -2.544975
    116          1           0      -10.513152   -0.242955   -2.701872
    117          1           0       -9.000820    0.388777   -3.044147
    118          1           0       -9.965833    2.488881   -0.830817
    119          1           0       -8.379789    2.174268   -0.076534
    120          1           0       -9.172799    1.419388    1.964726
    121          1           0      -10.790015    1.045154    1.343460
    122          1           0      -10.274021    3.803173    1.035129
    123          1           0       -9.602215    3.444007    2.590689
    124          1           0      -11.890073    2.129144    2.992992
    125          1           0      -11.351917    4.271663    4.286714
    126          1           0      -12.942790    3.901941    3.903033
    127          1           0      -12.210389    5.080235    2.910048
    128          1           0      -12.298409    3.348619    0.413074
    129          1           0      -13.530056    3.921490    1.571781
    130          1           0      -14.761511    2.005297    0.731675
    131          1           0      -13.734612    1.146373    1.817415
    132          1           0      -12.702976    0.108766    0.184497
    133          1           0      -12.411651    1.618670   -0.784799
    134          1           0      -14.832362    1.543037   -1.434348
    135          1           0      -16.169688    0.078466   -0.222632
    136          1           0      -14.921881   -1.067027   -0.009908
    137          1           0      -15.709927   -1.109770   -1.502188
    138          1           0      -13.009418   -0.458574   -2.415555
    139          1           0      -13.441531    1.204855   -3.168896
    140          1           0      -14.466309   -0.107761   -3.374129
 ---------------------------------------------------------------------

 SCF Done:  E(RB-LYP) =  -3007.36711918     A.U. after   21 cycles

 Excitation energies and oscillator strengths:

 Excited State   1:      Singlet-A      1.8012 eV  688.34 nm  f=0.2408  <S**2>=0.000
     244 -> 247        0.18608
     245 -> 248       -0.16316
     246 -> 247        0.66640
     246 <- 247       -0.15068
 This state for optimization and/or second-order correction.
 Total Energy, E(TD-HF/TD-DFT) =  -3007.30092648
 Copying the excited state density for this state as the 1-particle RhoCI density.

 Excited State   2:      Singlet-A      1.9175 eV  646.59 nm  f=0.0561  <S**2>=0.000
     244 -> 247        0.61663
     245 -> 247        0.28009
     246 -> 247       -0.18231

 Excited State   3:      Singlet-A      2.0945 eV  591.94 nm  f=0.0891  <S**2>=0.000
     244 -> 247       -0.28261
     245 -> 247        0.57787
     246 -> 248        0.22476
     246 -> 249       -0.10354

 Excited State   4:      Singlet-A      2.1965 eV  564.47 nm  f=0.0025  <S**2>=0.000
     243 -> 247        0.70215

 Excited State   5:      Singlet-A      2.3451 eV  528.71 nm  f=0.0000  <S**2>=0.000
     242 -> 247        0.70704

 The electronic state is 1-A.
 Alpha  occ. eigenvalues --  -46.26843 -18.82515 -18.82112 -18.77233 -18.76611
 Alpha  occ. eigenvalues --  -18.75405 -18.75277 -14.03127 -14.02858 -14.01395
 Alpha  occ. eigenvalues --  -14.00344 -10.05066 -10.03069 -10.00885  -9.98867
 Alpha  occ. eigenvalues --   -9.97944  -9.97112  -9.96498  -9.96287  -9.96074
 Alpha  occ. eigenvalues --   -9.96027  -9.96005  -9.95742  -9.94987  -9.94888
 Alpha  occ. eigenvalues --   -9.94405  -9.94332  -9.94307  -9.94022  -9.93939
 Alpha  occ. eigenvalues --   -9.93842  -9.93787  -9.93568  -9.93280  -9.93168
 Alpha  occ. eigenvalues --   -9.93106  -9.93057  -9.92934  -9.92861  -9.92676
 Alpha  occ. eigenvalues --   -9.92665  -9.92492  -9.92484  -9.92250  -9.92199
 Alpha  occ. eigenvalues --   -9.92084  -9.91998  -9.91839  -9.91692  -9.91581
 Alpha  occ. eigenvalues --   -9.91529  -9.91497  -9.91489  -9.91486  -9.91449
 Alpha  occ. eigenvalues --   -9.91308  -9.91263  -9.91098  -9.91091  -9.91074
 Alpha  occ. eigenvalues --   -9.90792  -9.90791  -9.90563  -9.90497  -9.90450
 Alpha  occ. eigenvalues --   -9.89394  -2.91666  -1.72078  -1.71590  -1.71351
 Alpha  occ. eigenvalues --   -0.97054  -0.96785  -0.92934  -0.90465  -0.89063
 Alpha  occ. eigenvalues --   -0.87713  -0.87324  -0.86651  -0.86409  -0.85723
 Alpha  occ. eigenvalues --   -0.75531  -0.73968  -0.73462  -0.72683  -0.72626
 Alpha  occ. eigenvalues --   -0.71777  -0.71744  -0.71052  -0.70821  -0.70517
 Alpha  occ. eigenvalues --   -0.69930  -0.68798  -0.67977  -0.67430  -0.67211
 Alpha  occ. eigenvalues --   -0.66612  -0.65638  -0.65113  -0.64831  -0.64415
 Alpha  occ. eigenvalues --   -0.64166  -0.62791  -0.62394  -0.62116  -0.60563
 Alpha  occ. eigenvalues --   -0.60165  -0.60058  -0.59929  -0.59292  -0.59194
 Alpha  occ. eigenvalues --   -0.58433  -0.57690  -0.56597  -0.55863  -0.54486
 Alpha  occ. eigenvalues --   -0.53859  -0.53719  -0.52895  -0.52615  -0.51545
 Alpha  occ. eigenvalues --   -0.51371  -0.51139  -0.50900  -0.50117  -0.50034
 Alpha  occ. eigenvalues --   -0.49437  -0.49027  -0.48866  -0.48214  -0.46815
 Alpha  occ. eigenvalues --   -0.46590  -0.46221  -0.45867  -0.45233  -0.44450
 Alpha  occ. eigenvalues --   -0.44118  -0.43542  -0.43057  -0.42406  -0.42134
 Alpha  occ. eigenvalues --   -0.41998  -0.41707  -0.41519  -0.41223  -0.41076
 Alpha  occ. eigenvalues --   -0.40802  -0.40671  -0.40561  -0.40373  -0.40131
 Alpha  occ. eigenvalues --   -0.39772  -0.39687  -0.39482  -0.39389  -0.39123
 Alpha  occ. eigenvalues --   -0.38812  -0.38665  -0.38543  -0.38465  -0.38236
 Alpha  occ. eigenvalues --   -0.38177  -0.37950  -0.37866  -0.37697  -0.37123
 Alpha  occ. eigenvalues --   -0.36974  -0.36720  -0.36664  -0.36409  -0.36277
 Alpha  occ. eigenvalues --   -0.36255  -0.36139  -0.35950  -0.35789  -0.35403
 Alpha  occ. eigenvalues --   -0.35364  -0.35134  -0.35012  -0.34831  -0.34754
 Alpha  occ. eigenvalues --   -0.34389  -0.34319  -0.34201  -0.34055  -0.33995
 Alpha  occ. eigenvalues --   -0.33803  -0.33610  -0.33358  -0.33343  -0.33058
 Alpha  occ. eigenvalues --   -0.32886  -0.32617  -0.32427  -0.32360  -0.32228
 Alpha  occ. eigenvalues --   -0.32113  -0.31961  -0.31751  -0.31388  -0.31378
 Alpha  occ. eigenvalues --   -0.31255  -0.31145  -0.30997  -0.30810  -0.30614
 Alpha  occ. eigenvalues --   -0.30223  -0.30146  -0.30096  -0.29847  -0.29722
 Alpha  occ. eigenvalues --   -0.29634  -0.29605  -0.29514  -0.29378  -0.29046
 Alpha  occ. eigenvalues --   -0.28790  -0.28758  -0.28626  -0.28460  -0.28309
 Alpha  occ. eigenvalues --   -0.28004  -0.27368  -0.26987  -0.26899  -0.26689
 Alpha  occ. eigenvalues --   -0.26535  -0.26339  -0.25995  -0.25899  -0.25513
 Alpha  occ. eigenvalues --   -0.25285  -0.24627  -0.24188  -0.23839  -0.23499
 Alpha  occ. eigenvalues --   -0.23367  -0.22334  -0.22246  -0.21265  -0.20685
 Alpha  occ. eigenvalues --   -0.20191  -0.19986  -0.19357  -0.18366  -0.17274
 Alpha  occ. eigenvalues --   -0.15547
 Alpha virt. eigenvalues --   -0.11369  -0.06770  -0.05777  -0.04297  -0.03386
 Alpha virt. eigenvalues --   -0.02315  -0.02055  -0.01950  -0.01531   0.00627
 Alpha virt. eigenvalues --    0.01102   0.01520   0.02531   0.02557   0.02838

 Mulliken charges:
               1
     1  Mg   0.723960
     2  C    0.022286
     3  C   -0.084369
     4  C   -0.029422
     5  C   -0.078987
     6  N   -0.169929
     7  C   -0.103075
     8  C    0.058230
     9  C   -0.032241
    10  C    0.027827
    11  C    0.129313
    12  C    0.154528
    13  C    0.087383
    14  C    0.113861
    15  O   -0.197922
    16  O   -0.288115
    17  N   -0.324648
    18  C    0.100345
    19  C   -0.168843
    20  C    0.048536
    21  C    0.078021
    22  C    0.189347
    23  C   -0.076737
    24  O   -0.143099
    25  C    0.103645
    26  N   -0.198664
    27  C    0.015642
    28  C    0.013159
    29  C    0.056469
    30  C   -0.059817
    31  C    0.148314
    32  C    0.102476
    33  C    0.043691
    34  N   -0.261994
    35  C    0.171608
    36  C   -0.190280
    37  C    0.082238
    38  C    0.087808
    39  C    0.196486
    40  C   -0.029734
    41  O   -0.125362
    42  C    0.056935
    43  C    0.088397
    44  O   -0.203095
    45  O   -0.266879
    46  C    0.202989
    47  C    0.301688
    48  C   -0.147823
    49  C   -0.115699
    50  C    0.131150
    51  C    0.148826
    52  C    0.087008
    53  C    0.070633
    54  C   -0.071078
    55  C    0.112316
    56  C    0.094291
    57  C    0.055845
    58  C    0.147948
    59  C   -0.087581
    60  C    0.079678
    61  C    0.137938
    62  C    0.084622
    63  C    0.070043
    64  C   -0.101864
    65  C    0.095010
    66  C    0.061041
    67  H   -0.049556
    68  H   -0.051091
    69  H   -0.066138
    70  H   -0.020694
    71  H   -0.027428
    72  H   -0.004011
    73  H   -0.012628
    74  H    0.004461
    75  H   -0.034811
    76  H    0.003369
    77  H   -0.022049
    78  H    0.000969
    79  H    0.014473
    80  H   -0.003053
    81  H   -0.001094
    82  H   -0.005293
    83  H    0.018717
    84  H    0.004601
    85  H   -0.020299
    86  H   -0.041193
    87  H   -0.018531
    88  H    0.005882
    89  H    0.001836
    90  H   -0.007839
    91  H   -0.013973
    92  H   -0.007243
    93  H   -0.011579
    94  H   -0.007376
    95  H    0.017096
    96  H   -0.039972
    97  H    0.007872
    98  H    0.009748
    99  H    0.023138
   100  H    0.002401
   101  H    0.028035
   102  H    0.024085
   103  H    0.010585
   104  H   -0.026824
   105  H    0.004182
   106  H   -0.013099
   107  H   -0.016930
   108  H   -0.013368
   109  H   -0.050876
   110  H   -0.028306
   111  H   -0.032845
   112  H   -0.040142
   113  H   -0.022461
   114  H   -0.036121
   115  H   -0.017704
   116  H   -0.011343
   117  H   -0.034474
   118  H   -0.027049
   119  H   -0.033534
   120  H   -0.032785
   121  H   -0.018512
   122  H   -0.044850
   123  H   -0.040156
   124  H   -0.037029
   125  H   -0.018067
   126  H   -0.035153
   127  H   -0.020118
   128  H   -0.041449
   129  H   -0.032040
   130  H   -0.031057
   131  H   -0.034469
   132  H   -0.006893
   133  H   -0.014701
   134  H   -0.036166
   135  H   -0.009548
   136  H   -0.035376
   137  H   -0.010690
   138  H   -0.002043
   139  H   -0.012126
   140  H   -0.021567
 Sum of Mulliken charges =  -0.00000

 Dipole moment (field-independent basis, Debye):
    X=             -2.5253    Y=              5.0483    Z=              0.1602  Tot=              5.6470
 Quadrupole moment (field-independent basis, Debye-Ang):
   XX=           -362.5106   YY=           -431.3323   ZZ=           -408.8850
   XY=             11.4095   XZ=             11.9115   YZ=              2.5042

 Normal termination of Gaussian 16 at Sat Apr 30 06:56:30 2022.
