 Gaussian 16, Revision A.03,
 Gaussian 16:  ES64L-G16RevA.03 25-Dec-2016

 -----------------------------------
 #p cam-b3lyp/Def2SVP td=(nstates=5)
 -----------------------------------

 ------------------------------------------------------
 step_601_chromophore_4 TDDFT with cam-b3lyp functional
 ------------------------------------------------------
 Symbolic Z-matrix:
 Charge =  0 Multiplicity = 1

                         Standard orientation:
 ---------------------------------------------------------------------
 Center     Atomic      Atomic             Coordinates (Angstroms)
 Number     Number       Type             X           Y           Z
 ---------------------------------------------------------------------
      1         12           0        5.876649    0.556710    0.309827
      2          6           0        3.491477   -2.009441    0.119790
      3          6           0        3.311138    2.678191   -0.341297
      4          6           0        8.153883    2.752818   -0.347483
      5          6           0        8.398396   -1.933912    0.482097
      6          7           0        3.724383    0.306965   -0.353120
      7          6           0        2.910076   -0.813477   -0.207958
      8          6           0        1.387461   -0.493667   -0.227011
      9          6           0        1.422512    1.034312   -0.617524
     10          6           0        2.935244    1.341674   -0.390290
     11          6           0        0.983617    1.345773   -2.099104
     12          6           0        0.651301   -0.744378    1.100685
     13          6           0       -0.919580   -0.529183    0.994229
     14          6           0       -1.853004   -1.814330    1.125922
     15          8           0       -1.668183   -2.791840    1.867873
     16          8           0       -2.924546   -1.763849    0.244372
     17          7           0        5.766140    2.480394   -0.057060
     18          6           0        4.652525    3.235631   -0.279479
     19          6           0        5.025745    4.665001   -0.335024
     20          6           0        6.426249    4.668065   -0.416065
     21          6           0        6.849914    3.258208   -0.293009
     22          6           0        3.982757    5.759624   -0.263602
     23          6           0        7.347046    5.904617   -0.581405
     24          8           0        8.552406    5.806490   -0.553483
     25          6           0        6.708061    7.360209   -0.622841
     26          7           0        8.043499    0.455347    0.267956
     27          6           0        8.744795    1.553392   -0.242544
     28          6           0       10.250114    1.191086   -0.532296
     29          6           0       10.352039   -0.158217    0.192322
     30          6           0        8.892597   -0.549941    0.294523
     31          6           0       10.460658    1.148188   -2.082960
     32          6           0       10.996992   -0.163494    1.585258
     33          6           0       12.496165   -0.619110    1.647775
     34          7           0        5.958757   -1.501180    0.488536
     35          6           0        7.039879   -2.362243    0.580835
     36          6           0        6.519613   -3.639774    0.677369
     37          6           0        5.159926   -3.576502    0.599026
     38          6           0        4.844339   -2.238542    0.455970
     39          6           0        7.254949   -4.879481    0.935867
     40          6           0        3.993949   -4.403332    0.601015
     41          8           0        3.849938   -5.621757    0.634034
     42          6           0        2.828130   -3.350197    0.387305
     43          6           0        2.029615   -3.811964   -0.772042
     44          8           0        2.470546   -4.149357   -1.890467
     45          8           0        0.699210   -3.804710   -0.460178
     46          6           0       -0.245239   -4.167583   -1.532801
     47          6           0       -3.841049   -2.933955    0.250557
     48          6           0       -5.266105   -2.512527    0.113161
     49          6           0       -6.340081   -3.278378   -0.118238
     50          6           0       -6.256649   -4.800523   -0.116123
     51          6           0       -7.747896   -2.738304   -0.227676
     52          6           0       -8.090317   -1.764811   -1.333245
     53          6           0       -8.053941   -0.321242   -0.763117
     54          6           0       -9.427711    0.356076   -0.880939
     55          6           0       -9.825814    0.524572   -2.345959
     56          6           0       -9.406697    1.821948   -0.174153
     57          6           0       -9.955456    1.744790    1.279853
     58          6           0      -10.327019    3.089680    1.858043
     59          6           0      -11.752580    3.011393    2.366541
     60          6           0      -11.995664    4.139952    3.417284
     61          6           0      -12.867986    3.097296    1.306569
     62          6           0      -13.712485    1.849351    0.984478
     63          6           0      -13.133011    1.024491   -0.222877
     64          6           0      -14.262829    0.645922   -1.193191
     65          6           0      -15.349239   -0.399382   -0.758512
     66          6           0      -13.756671    0.298367   -2.653302
     67          1           0        2.550547    3.386209   -0.677602
     68          1           0        8.810829    3.541976   -0.719810
     69          1           0        9.259110   -2.606432    0.469602
     70          1           0        0.946436   -1.112963   -1.006980
     71          1           0        0.773742    1.587419    0.061311
     72          1           0        0.125381    2.016052   -2.144366
     73          1           0        0.655111    0.428469   -2.588153
     74          1           0        1.842812    1.709916   -2.661650
     75          1           0        1.018990   -0.030066    1.836839
     76          1           0        0.839876   -1.727070    1.532610
     77          1           0       -1.176556    0.043893    0.104013
     78          1           0       -1.313579    0.195283    1.707121
     79          1           0        3.951759    6.238876   -1.241166
     80          1           0        4.326830    6.477846    0.481326
     81          1           0        3.051888    5.336204    0.115560
     82          1           0        7.533383    8.031836   -0.861477
     83          1           0        6.385855    7.644507    0.378578
     84          1           0        5.896325    7.394773   -1.349045
     85          1           0       10.886346    1.953828   -0.084997
     86          1           0       10.926758   -0.853934   -0.419521
     87          1           0       11.396800    1.694745   -2.197684
     88          1           0        9.766230    1.777914   -2.640082
     89          1           0       10.670441    0.139059   -2.436091
     90          1           0       10.460130   -0.804939    2.285208
     91          1           0       11.087975    0.865207    1.932747
     92          1           0       13.112508    0.181782    2.057247
     93          1           0       12.912377   -0.918943    0.686000
     94          1           0       12.625963   -1.474584    2.310448
     95          1           0        6.956432   -5.347384    1.873615
     96          1           0        8.334600   -4.726294    0.949045
     97          1           0        7.079331   -5.461117    0.031065
     98          1           0        2.155664   -3.373298    1.244538
     99          1           0       -1.079533   -3.493508   -1.725825
    100          1           0       -0.739342   -5.030496   -1.087398
    101          1           0        0.197009   -4.626027   -2.417755
    102          1           0       -3.747700   -3.451966    1.204649
    103          1           0       -3.605361   -3.575433   -0.598564
    104          1           0       -5.327955   -1.436358   -0.049282
    105          1           0       -6.600502   -5.253508   -1.046586
    106          1           0       -6.939274   -5.197212    0.635532
    107          1           0       -5.320617   -5.182248    0.290343
    108          1           0       -7.903083   -2.163854    0.685068
    109          1           0       -8.493889   -3.532782   -0.262724
    110          1           0       -9.040306   -2.052195   -1.782978
    111          1           0       -7.321723   -1.809470   -2.105778
    112          1           0       -7.335931    0.214279   -1.385082
    113          1           0       -7.610670   -0.245265    0.229109
    114          1           0      -10.197734   -0.269656   -0.431156
    115          1           0      -10.188568    1.533369   -2.544975
    116          1           0      -10.513152   -0.242955   -2.701872
    117          1           0       -9.000820    0.388777   -3.044147
    118          1           0       -9.965833    2.488881   -0.830817
    119          1           0       -8.379789    2.174268   -0.076534
    120          1           0       -9.172799    1.419388    1.964726
    121          1           0      -10.790015    1.045154    1.343460
    122          1           0      -10.274021    3.803173    1.035129
    123          1           0       -9.602215    3.444007    2.590689
    124          1           0      -11.890073    2.129144    2.992992
    125          1           0      -11.351917    4.271663    4.286714
    126          1           0      -12.942790    3.901941    3.903033
    127          1           0      -12.210389    5.080235    2.910048
    128          1           0      -12.298409    3.348619    0.413074
    129          1           0      -13.530056    3.921490    1.571781
    130          1           0      -14.761511    2.005297    0.731675
    131          1           0      -13.734612    1.146373    1.817415
    132          1           0      -12.702976    0.108766    0.184497
    133          1           0      -12.411651    1.618670   -0.784799
    134          1           0      -14.832362    1.543037   -1.434348
    135          1           0      -16.169688    0.078466   -0.222632
    136          1           0      -14.921881   -1.067027   -0.009908
    137          1           0      -15.709927   -1.109770   -1.502188
    138          1           0      -13.009418   -0.458574   -2.415555
    139          1           0      -13.441531    1.204855   -3.168896
    140          1           0      -14.466309   -0.107761   -3.374129
 ---------------------------------------------------------------------

 SCF Done:  E(RCAM-B3LYP) =  -3007.16564752     A.U. after   19 cycles

 Excitation energies and oscillator strengths:

 Excited State   1:      Singlet-A      1.6955 eV  731.24 nm  f=0.3670  <S**2>=0.000
     245 -> 248       -0.16441
     246 -> 247        0.68609
     245 <- 248       -0.10287
 This state for optimization and/or second-order correction.
 Total Energy, E(TD-HF/TD-DFT) =  -3007.10333757
 Copying the excited state density for this state as the 1-particle RhoCI density.

 Excited State   2:      Singlet-A      2.2876 eV  541.98 nm  f=0.1234  <S**2>=0.000
     245 -> 247        0.63051
     246 -> 248        0.29840

 Excited State   3:      Singlet-A      3.3967 eV  365.01 nm  f=0.0156  <S**2>=0.000
     244 -> 247        0.66615
     246 -> 248       -0.17286

 Excited State   4:      Singlet-A      3.5269 eV  351.54 nm  f=0.5947  <S**2>=0.000
     241 -> 247       -0.19216
     242 -> 247       -0.12956
     244 -> 247        0.16921
     245 -> 247       -0.26989
     246 -> 248        0.56956

 Excited State   5:      Singlet-A      3.5787 eV  346.45 nm  f=0.0394  <S**2>=0.000
     242 -> 247        0.55823
     242 -> 249        0.27629
     242 -> 250        0.12114
     242 -> 251       -0.18417
     246 -> 248        0.16200

 The electronic state is 1-A.
 Alpha  occ. eigenvalues --  -46.88314 -19.25346 -19.25066 -19.20161 -19.19952
 Alpha  occ. eigenvalues --  -19.18428 -19.18385 -14.41859 -14.41821 -14.39902
 Alpha  occ. eigenvalues --  -14.38641 -10.40465 -10.38514 -10.36238 -10.34155
 Alpha  occ. eigenvalues --  -10.31977 -10.31115 -10.30868 -10.30769 -10.30521
 Alpha  occ. eigenvalues --  -10.30508 -10.30395 -10.30159 -10.29041 -10.28990
 Alpha  occ. eigenvalues --  -10.28654 -10.28394 -10.28377 -10.28356 -10.28081
 Alpha  occ. eigenvalues --  -10.27805 -10.27744 -10.27618 -10.27567 -10.27532
 Alpha  occ. eigenvalues --  -10.27390 -10.27291 -10.27009 -10.26928 -10.26604
 Alpha  occ. eigenvalues --  -10.26473 -10.26402 -10.26122 -10.25945 -10.25919
 Alpha  occ. eigenvalues --  -10.25912 -10.25860 -10.25615 -10.25528 -10.25452
 Alpha  occ. eigenvalues --  -10.25334 -10.25278 -10.25241 -10.25197 -10.25167
 Alpha  occ. eigenvalues --  -10.25099 -10.24970 -10.24782 -10.24706 -10.24683
 Alpha  occ. eigenvalues --  -10.24430 -10.24423 -10.24166 -10.24114 -10.24060
 Alpha  occ. eigenvalues --  -10.23264  -3.17050  -1.91935  -1.91527  -1.91348
 Alpha  occ. eigenvalues --   -1.15418  -1.15244  -1.11490  -1.08780  -1.06831
 Alpha  occ. eigenvalues --   -1.05597  -1.05063  -1.04342  -1.04019  -1.03277
 Alpha  occ. eigenvalues --   -0.92644  -0.90876  -0.90294  -0.89460  -0.89285
 Alpha  occ. eigenvalues --   -0.88498  -0.88416  -0.87645  -0.87451  -0.87172
 Alpha  occ. eigenvalues --   -0.86394  -0.85070  -0.84237  -0.83562  -0.83344
 Alpha  occ. eigenvalues --   -0.82665  -0.81688  -0.81034  -0.80667  -0.80273
 Alpha  occ. eigenvalues --   -0.80151  -0.78572  -0.78002  -0.77607  -0.75992
 Alpha  occ. eigenvalues --   -0.75452  -0.75391  -0.75233  -0.74575  -0.74426
 Alpha  occ. eigenvalues --   -0.73478  -0.72688  -0.71473  -0.70666  -0.69034
 Alpha  occ. eigenvalues --   -0.68445  -0.68291  -0.67366  -0.67119  -0.65736
 Alpha  occ. eigenvalues --   -0.65468  -0.65366  -0.65029  -0.64142  -0.63903
 Alpha  occ. eigenvalues --   -0.63236  -0.62895  -0.62763  -0.61901  -0.60477
 Alpha  occ. eigenvalues --   -0.60200  -0.59704  -0.59284  -0.58676  -0.57795
 Alpha  occ. eigenvalues --   -0.57545  -0.57049  -0.56324  -0.55483  -0.55257
 Alpha  occ. eigenvalues --   -0.55003  -0.54880  -0.54387  -0.54149  -0.53887
 Alpha  occ. eigenvalues --   -0.53609  -0.53299  -0.53266  -0.53146  -0.52922
 Alpha  occ. eigenvalues --   -0.52636  -0.52455  -0.52232  -0.52091  -0.51672
 Alpha  occ. eigenvalues --   -0.51384  -0.51160  -0.50981  -0.50872  -0.50613
 Alpha  occ. eigenvalues --   -0.50478  -0.50441  -0.50303  -0.50075  -0.49542
 Alpha  occ. eigenvalues --   -0.49349  -0.49157  -0.49050  -0.48863  -0.48737
 Alpha  occ. eigenvalues --   -0.48467  -0.48265  -0.48191  -0.47963  -0.47906
 Alpha  occ. eigenvalues --   -0.47326  -0.47302  -0.46937  -0.46921  -0.46710
 Alpha  occ. eigenvalues --   -0.46359  -0.46174  -0.46040  -0.45969  -0.45715
 Alpha  occ. eigenvalues --   -0.45659  -0.45294  -0.45082  -0.44950  -0.44697
 Alpha  occ. eigenvalues --   -0.44552  -0.44332  -0.44248  -0.44125  -0.43992
 Alpha  occ. eigenvalues --   -0.43720  -0.43658  -0.43356  -0.43055  -0.42773
 Alpha  occ. eigenvalues --   -0.42745  -0.42565  -0.42510  -0.42294  -0.41936
 Alpha  occ. eigenvalues --   -0.41629  -0.41560  -0.41402  -0.41337  -0.41131
 Alpha  occ. eigenvalues --   -0.40988  -0.40884  -0.40751  -0.40597  -0.40342
 Alpha  occ. eigenvalues --   -0.39952  -0.39847  -0.39749  -0.39435  -0.39273
 Alpha  occ. eigenvalues --   -0.38922  -0.38194  -0.38140  -0.37787  -0.37466
 Alpha  occ. eigenvalues --   -0.37223  -0.37062  -0.36834  -0.36792  -0.36552
 Alpha  occ. eigenvalues --   -0.35995  -0.35354  -0.35130  -0.34843  -0.34356
 Alpha  occ. eigenvalues --   -0.33656  -0.33570  -0.32589  -0.31576  -0.31441
 Alpha  occ. eigenvalues --   -0.30697  -0.30302  -0.29665  -0.29484  -0.24112
 Alpha  occ. eigenvalues --   -0.20788
 Alpha virt. eigenvalues --   -0.08462  -0.01340   0.00757   0.02477   0.02909
 Alpha virt. eigenvalues --    0.04511   0.05344   0.05684   0.05854   0.06920
 Alpha virt. eigenvalues --    0.07960   0.08498   0.08762   0.09015   0.09120

 Mulliken charges:
               1
     1  Mg   0.858149
     2  C   -0.011446
     3  C   -0.093028
     4  C   -0.049216
     5  C   -0.077534
     6  N   -0.239176
     7  C   -0.055478
     8  C    0.010775
     9  C   -0.085508
    10  C    0.041424
    11  C    0.073200
    12  C    0.099253
    13  C    0.022020
    14  C    0.193623
    15  O   -0.240489
    16  O   -0.353987
    17  N   -0.415010
    18  C    0.108809
    19  C   -0.174771
    20  C   -0.018925
    21  C    0.103573
    22  C    0.130566
    23  C    0.000794
    24  O   -0.183608
    25  C    0.030851
    26  N   -0.263158
    27  C    0.024413
    28  C   -0.036248
    29  C    0.001427
    30  C   -0.046357
    31  C    0.089340
    32  C    0.045229
    33  C   -0.014796
    34  N   -0.354497
    35  C    0.170159
    36  C   -0.189074
    37  C    0.002070
    38  C    0.130051
    39  C    0.141917
    40  C    0.073307
    41  O   -0.164714
    42  C   -0.028383
    43  C    0.182225
    44  O   -0.242428
    45  O   -0.330070
    46  C    0.164855
    47  C    0.271756
    48  C   -0.164989
    49  C   -0.139434
    50  C    0.066988
    51  C    0.089438
    52  C    0.028022
    53  C    0.021055
    54  C   -0.123462
    55  C    0.051757
    56  C    0.044614
    57  C    0.004928
    58  C    0.093666
    59  C   -0.146794
    60  C    0.022967
    61  C    0.079945
    62  C    0.031841
    63  C    0.021271
    64  C   -0.161062
    65  C    0.036044
    66  C    0.008914
    67  H   -0.018597
    68  H   -0.012686
    69  H   -0.029081
    70  H    0.011897
    71  H    0.006869
    72  H    0.019565
    73  H    0.012843
    74  H    0.030623
    75  H   -0.002332
    76  H    0.033795
    77  H    0.011735
    78  H    0.032881
    79  H    0.039819
    80  H    0.023104
    81  H    0.027592
    82  H    0.029296
    83  H    0.045494
    84  H    0.030215
    85  H    0.014987
    86  H   -0.005241
    87  H    0.006519
    88  H    0.032063
    89  H    0.026069
    90  H    0.022578
    91  H    0.013626
    92  H    0.016077
    93  H    0.010783
    94  H    0.016081
    95  H    0.042660
    96  H   -0.013629
    97  H    0.034987
    98  H    0.053287
    99  H    0.040365
   100  H    0.025673
   101  H    0.057315
   102  H    0.055385
   103  H    0.032974
   104  H    0.005526
   105  H    0.028954
   106  H    0.012377
   107  H    0.008276
   108  H    0.017072
   109  H   -0.017189
   110  H    0.001101
   111  H   -0.001620
   112  H   -0.010945
   113  H    0.002417
   114  H   -0.007462
   115  H    0.006119
   116  H    0.010770
   117  H   -0.007816
   118  H   -0.002992
   119  H   -0.004890
   120  H   -0.004162
   121  H    0.005434
   122  H   -0.015689
   123  H   -0.008768
   124  H   -0.005212
   125  H    0.007768
   126  H   -0.009551
   127  H    0.003120
   128  H   -0.013841
   129  H   -0.000528
   130  H   -0.001183
   131  H   -0.006352
   132  H    0.016041
   133  H    0.007507
   134  H   -0.004646
   135  H    0.013183
   136  H   -0.011573
   137  H    0.014605
   138  H    0.016454
   139  H    0.010509
   140  H    0.003999
 Sum of Mulliken charges =  -0.00000

 Dipole moment (field-independent basis, Debye):
    X=             -2.5877    Y=              5.7780    Z=              0.0912  Tot=              6.3317
 Quadrupole moment (field-independent basis, Debye-Ang):
   XX=           -359.7280   YY=           -426.7946   ZZ=           -409.0339
   XY=             15.0092   XZ=             12.0094   YZ=              2.1626

 Normal termination of Gaussian 16 at Sat Apr 30 05:59:51 2022.
