 Gaussian 16, Revision A.03,
 Gaussian 16:  ES64L-G16RevA.03 25-Dec-2016

 ---------------------------------
 #p PBE1PBE/Def2SVP td=(nstates=5)
 ---------------------------------

 ----------------------------------------------------
 step_601_chromophore_4 TDDFT with PBE1PBE functional
 ----------------------------------------------------
 Symbolic Z-matrix:
 Charge =  0 Multiplicity = 1

                         Standard orientation:
 ---------------------------------------------------------------------
 Center     Atomic      Atomic             Coordinates (Angstroms)
 Number     Number       Type             X           Y           Z
 ---------------------------------------------------------------------
      1         12           0        5.876649    0.556710    0.309827
      2          6           0        3.491477   -2.009441    0.119790
      3          6           0        3.311138    2.678191   -0.341297
      4          6           0        8.153883    2.752818   -0.347483
      5          6           0        8.398396   -1.933912    0.482097
      6          7           0        3.724383    0.306965   -0.353120
      7          6           0        2.910076   -0.813477   -0.207958
      8          6           0        1.387461   -0.493667   -0.227011
      9          6           0        1.422512    1.034312   -0.617524
     10          6           0        2.935244    1.341674   -0.390290
     11          6           0        0.983617    1.345773   -2.099104
     12          6           0        0.651301   -0.744378    1.100685
     13          6           0       -0.919580   -0.529183    0.994229
     14          6           0       -1.853004   -1.814330    1.125922
     15          8           0       -1.668183   -2.791840    1.867873
     16          8           0       -2.924546   -1.763849    0.244372
     17          7           0        5.766140    2.480394   -0.057060
     18          6           0        4.652525    3.235631   -0.279479
     19          6           0        5.025745    4.665001   -0.335024
     20          6           0        6.426249    4.668065   -0.416065
     21          6           0        6.849914    3.258208   -0.293009
     22          6           0        3.982757    5.759624   -0.263602
     23          6           0        7.347046    5.904617   -0.581405
     24          8           0        8.552406    5.806490   -0.553483
     25          6           0        6.708061    7.360209   -0.622841
     26          7           0        8.043499    0.455347    0.267956
     27          6           0        8.744795    1.553392   -0.242544
     28          6           0       10.250114    1.191086   -0.532296
     29          6           0       10.352039   -0.158217    0.192322
     30          6           0        8.892597   -0.549941    0.294523
     31          6           0       10.460658    1.148188   -2.082960
     32          6           0       10.996992   -0.163494    1.585258
     33          6           0       12.496165   -0.619110    1.647775
     34          7           0        5.958757   -1.501180    0.488536
     35          6           0        7.039879   -2.362243    0.580835
     36          6           0        6.519613   -3.639774    0.677369
     37          6           0        5.159926   -3.576502    0.599026
     38          6           0        4.844339   -2.238542    0.455970
     39          6           0        7.254949   -4.879481    0.935867
     40          6           0        3.993949   -4.403332    0.601015
     41          8           0        3.849938   -5.621757    0.634034
     42          6           0        2.828130   -3.350197    0.387305
     43          6           0        2.029615   -3.811964   -0.772042
     44          8           0        2.470546   -4.149357   -1.890467
     45          8           0        0.699210   -3.804710   -0.460178
     46          6           0       -0.245239   -4.167583   -1.532801
     47          6           0       -3.841049   -2.933955    0.250557
     48          6           0       -5.266105   -2.512527    0.113161
     49          6           0       -6.340081   -3.278378   -0.118238
     50          6           0       -6.256649   -4.800523   -0.116123
     51          6           0       -7.747896   -2.738304   -0.227676
     52          6           0       -8.090317   -1.764811   -1.333245
     53          6           0       -8.053941   -0.321242   -0.763117
     54          6           0       -9.427711    0.356076   -0.880939
     55          6           0       -9.825814    0.524572   -2.345959
     56          6           0       -9.406697    1.821948   -0.174153
     57          6           0       -9.955456    1.744790    1.279853
     58          6           0      -10.327019    3.089680    1.858043
     59          6           0      -11.752580    3.011393    2.366541
     60          6           0      -11.995664    4.139952    3.417284
     61          6           0      -12.867986    3.097296    1.306569
     62          6           0      -13.712485    1.849351    0.984478
     63          6           0      -13.133011    1.024491   -0.222877
     64          6           0      -14.262829    0.645922   -1.193191
     65          6           0      -15.349239   -0.399382   -0.758512
     66          6           0      -13.756671    0.298367   -2.653302
     67          1           0        2.550547    3.386209   -0.677602
     68          1           0        8.810829    3.541976   -0.719810
     69          1           0        9.259110   -2.606432    0.469602
     70          1           0        0.946436   -1.112963   -1.006980
     71          1           0        0.773742    1.587419    0.061311
     72          1           0        0.125381    2.016052   -2.144366
     73          1           0        0.655111    0.428469   -2.588153
     74          1           0        1.842812    1.709916   -2.661650
     75          1           0        1.018990   -0.030066    1.836839
     76          1           0        0.839876   -1.727070    1.532610
     77          1           0       -1.176556    0.043893    0.104013
     78          1           0       -1.313579    0.195283    1.707121
     79          1           0        3.951759    6.238876   -1.241166
     80          1           0        4.326830    6.477846    0.481326
     81          1           0        3.051888    5.336204    0.115560
     82          1           0        7.533383    8.031836   -0.861477
     83          1           0        6.385855    7.644507    0.378578
     84          1           0        5.896325    7.394773   -1.349045
     85          1           0       10.886346    1.953828   -0.084997
     86          1           0       10.926758   -0.853934   -0.419521
     87          1           0       11.396800    1.694745   -2.197684
     88          1           0        9.766230    1.777914   -2.640082
     89          1           0       10.670441    0.139059   -2.436091
     90          1           0       10.460130   -0.804939    2.285208
     91          1           0       11.087975    0.865207    1.932747
     92          1           0       13.112508    0.181782    2.057247
     93          1           0       12.912377   -0.918943    0.686000
     94          1           0       12.625963   -1.474584    2.310448
     95          1           0        6.956432   -5.347384    1.873615
     96          1           0        8.334600   -4.726294    0.949045
     97          1           0        7.079331   -5.461117    0.031065
     98          1           0        2.155664   -3.373298    1.244538
     99          1           0       -1.079533   -3.493508   -1.725825
    100          1           0       -0.739342   -5.030496   -1.087398
    101          1           0        0.197009   -4.626027   -2.417755
    102          1           0       -3.747700   -3.451966    1.204649
    103          1           0       -3.605361   -3.575433   -0.598564
    104          1           0       -5.327955   -1.436358   -0.049282
    105          1           0       -6.600502   -5.253508   -1.046586
    106          1           0       -6.939274   -5.197212    0.635532
    107          1           0       -5.320617   -5.182248    0.290343
    108          1           0       -7.903083   -2.163854    0.685068
    109          1           0       -8.493889   -3.532782   -0.262724
    110          1           0       -9.040306   -2.052195   -1.782978
    111          1           0       -7.321723   -1.809470   -2.105778
    112          1           0       -7.335931    0.214279   -1.385082
    113          1           0       -7.610670   -0.245265    0.229109
    114          1           0      -10.197734   -0.269656   -0.431156
    115          1           0      -10.188568    1.533369   -2.544975
    116          1           0      -10.513152   -0.242955   -2.701872
    117          1           0       -9.000820    0.388777   -3.044147
    118          1           0       -9.965833    2.488881   -0.830817
    119          1           0       -8.379789    2.174268   -0.076534
    120          1           0       -9.172799    1.419388    1.964726
    121          1           0      -10.790015    1.045154    1.343460
    122          1           0      -10.274021    3.803173    1.035129
    123          1           0       -9.602215    3.444007    2.590689
    124          1           0      -11.890073    2.129144    2.992992
    125          1           0      -11.351917    4.271663    4.286714
    126          1           0      -12.942790    3.901941    3.903033
    127          1           0      -12.210389    5.080235    2.910048
    128          1           0      -12.298409    3.348619    0.413074
    129          1           0      -13.530056    3.921490    1.571781
    130          1           0      -14.761511    2.005297    0.731675
    131          1           0      -13.734612    1.146373    1.817415
    132          1           0      -12.702976    0.108766    0.184497
    133          1           0      -12.411651    1.618670   -0.784799
    134          1           0      -14.832362    1.543037   -1.434348
    135          1           0      -16.169688    0.078466   -0.222632
    136          1           0      -14.921881   -1.067027   -0.009908
    137          1           0      -15.709927   -1.109770   -1.502188
    138          1           0      -13.009418   -0.458574   -2.415555
    139          1           0      -13.441531    1.204855   -3.168896
    140          1           0      -14.466309   -0.107761   -3.374129
 ---------------------------------------------------------------------

 SCF Done:  E(RPBE1PBE) =  -3005.35324674     A.U. after   16 cycles

 Excitation energies and oscillator strengths:

 Excited State   1:      Singlet-A      1.8586 eV  667.10 nm  f=0.3492  <S**2>=0.000
     245 -> 248       -0.15826
     246 -> 247        0.69422
     246 <- 247       -0.11707
 This state for optimization and/or second-order correction.
 Total Energy, E(TD-HF/TD-DFT) =  -3005.28494608
 Copying the excited state density for this state as the 1-particle RhoCI density.

 Excited State   2:      Singlet-A      2.2962 eV  539.96 nm  f=0.1273  <S**2>=0.000
     245 -> 247        0.64355
     246 -> 248        0.26800

 Excited State   3:      Singlet-A      3.0055 eV  412.53 nm  f=0.0016  <S**2>=0.000
     242 -> 247        0.34934
     242 -> 249        0.11225
     243 -> 247        0.58136

 Excited State   4:      Singlet-A      3.0889 eV  401.39 nm  f=0.0017  <S**2>=0.000
     242 -> 247        0.58897
     243 -> 247       -0.36706

 Excited State   5:      Singlet-A      3.2759 eV  378.47 nm  f=0.1187  <S**2>=0.000
     240 -> 247        0.12068
     241 -> 247        0.49016
     245 -> 247        0.13842
     246 -> 248       -0.41009
     246 -> 249       -0.11865

 The electronic state is 1-A.
 Alpha  occ. eigenvalues --  -46.91736 -19.26085 -19.25698 -19.20493 -19.20104
 Alpha  occ. eigenvalues --  -19.18684 -19.18672 -14.41412 -14.41250 -14.39527
 Alpha  occ. eigenvalues --  -14.38340 -10.37566 -10.35535 -10.33367 -10.31339
 Alpha  occ. eigenvalues --  -10.29411 -10.28650 -10.28526 -10.28345 -10.28170
 Alpha  occ. eigenvalues --  -10.28163 -10.28082 -10.27901 -10.26800 -10.26532
 Alpha  occ. eigenvalues --  -10.26309 -10.26205 -10.26188 -10.26170 -10.25760
 Alpha  occ. eigenvalues --  -10.25626 -10.25373 -10.25282 -10.25170 -10.25149
 Alpha  occ. eigenvalues --  -10.25039 -10.24928 -10.24657 -10.24256 -10.24209
 Alpha  occ. eigenvalues --  -10.24179 -10.23870 -10.23638 -10.23620 -10.23578
 Alpha  occ. eigenvalues --  -10.23564 -10.23307 -10.23227 -10.23071 -10.22983
 Alpha  occ. eigenvalues --  -10.22905 -10.22844 -10.22824 -10.22736 -10.22714
 Alpha  occ. eigenvalues --  -10.22659 -10.22524 -10.22364 -10.22105 -10.22093
 Alpha  occ. eigenvalues --  -10.21957 -10.21831 -10.21704 -10.21524 -10.21478
 Alpha  occ. eigenvalues --  -10.21026  -3.14046  -1.86872  -1.86443  -1.86268
 Alpha  occ. eigenvalues --   -1.10257  -1.10007  -1.06191  -1.03557  -1.01729
 Alpha  occ. eigenvalues --   -1.00392  -0.99711  -0.98962  -0.98729  -0.97962
 Alpha  occ. eigenvalues --   -0.87036  -0.84996  -0.84384  -0.83676  -0.83575
 Alpha  occ. eigenvalues --   -0.82807  -0.82536  -0.81802  -0.81742  -0.81461
 Alpha  occ. eigenvalues --   -0.80741  -0.79272  -0.78443  -0.77827  -0.77627
 Alpha  occ. eigenvalues --   -0.76862  -0.75946  -0.75206  -0.74933  -0.74453
 Alpha  occ. eigenvalues --   -0.74336  -0.72849  -0.72255  -0.71907  -0.70307
 Alpha  occ. eigenvalues --   -0.69819  -0.69517  -0.69380  -0.68715  -0.68585
 Alpha  occ. eigenvalues --   -0.67824  -0.67111  -0.65854  -0.65027  -0.63388
 Alpha  occ. eigenvalues --   -0.62865  -0.62579  -0.61748  -0.61397  -0.60199
 Alpha  occ. eigenvalues --   -0.59845  -0.59617  -0.59489  -0.58513  -0.58303
 Alpha  occ. eigenvalues --   -0.57683  -0.57157  -0.56927  -0.56465  -0.55005
 Alpha  occ. eigenvalues --   -0.54647  -0.54244  -0.53866  -0.53297  -0.52429
 Alpha  occ. eigenvalues --   -0.51918  -0.51481  -0.50922  -0.49973  -0.49822
 Alpha  occ. eigenvalues --   -0.49433  -0.49393  -0.48879  -0.48610  -0.48417
 Alpha  occ. eigenvalues --   -0.48077  -0.47855  -0.47777  -0.47709  -0.47273
 Alpha  occ. eigenvalues --   -0.47231  -0.46990  -0.46861  -0.46587  -0.46296
 Alpha  occ. eigenvalues --   -0.45878  -0.45729  -0.45557  -0.45407  -0.45180
 Alpha  occ. eigenvalues --   -0.45022  -0.44999  -0.44801  -0.44639  -0.44107
 Alpha  occ. eigenvalues --   -0.43991  -0.43679  -0.43629  -0.43458  -0.43302
 Alpha  occ. eigenvalues --   -0.43083  -0.42921  -0.42804  -0.42607  -0.42489
 Alpha  occ. eigenvalues --   -0.42011  -0.41978  -0.41580  -0.41512  -0.41313
 Alpha  occ. eigenvalues --   -0.41064  -0.40878  -0.40744  -0.40580  -0.40419
 Alpha  occ. eigenvalues --   -0.40331  -0.40009  -0.39888  -0.39743  -0.39464
 Alpha  occ. eigenvalues --   -0.39365  -0.39052  -0.38974  -0.38769  -0.38732
 Alpha  occ. eigenvalues --   -0.38479  -0.38428  -0.38143  -0.37852  -0.37555
 Alpha  occ. eigenvalues --   -0.37511  -0.37312  -0.37286  -0.37174  -0.36781
 Alpha  occ. eigenvalues --   -0.36490  -0.36355  -0.36144  -0.36090  -0.35991
 Alpha  occ. eigenvalues --   -0.35877  -0.35748  -0.35493  -0.35389  -0.35202
 Alpha  occ. eigenvalues --   -0.34818  -0.34719  -0.34641  -0.34373  -0.34058
 Alpha  occ. eigenvalues --   -0.33693  -0.33134  -0.32977  -0.32586  -0.32299
 Alpha  occ. eigenvalues --   -0.32145  -0.32038  -0.31913  -0.31766  -0.31354
 Alpha  occ. eigenvalues --   -0.30866  -0.30326  -0.30027  -0.30022  -0.29238
 Alpha  occ. eigenvalues --   -0.28836  -0.28676  -0.27731  -0.27136  -0.26410
 Alpha  occ. eigenvalues --   -0.26110  -0.25272  -0.25088  -0.24939  -0.21002
 Alpha  occ. eigenvalues --   -0.18452
 Alpha virt. eigenvalues --   -0.10930  -0.04949  -0.03481  -0.01719  -0.00127
 Alpha virt. eigenvalues --   -0.00015   0.00958   0.01141   0.01302   0.03651
 Alpha virt. eigenvalues --    0.03989   0.04234   0.05437   0.05491   0.05745

 Mulliken charges:
               1
     1  Mg   1.010382
     2  C   -0.027161
     3  C   -0.074278
     4  C   -0.050493
     5  C   -0.067871
     6  N   -0.338812
     7  C    0.023196
     8  C   -0.061109
     9  C   -0.157489
    10  C    0.067315
    11  C    0.019296
    12  C    0.044998
    13  C   -0.049056
    14  C    0.257744
    15  O   -0.272679
    16  O   -0.385410
    17  N   -0.533956
    18  C    0.131308
    19  C   -0.200511
    20  C   -0.066661
    21  C    0.131360
    22  C    0.066609
    23  C    0.055635
    24  O   -0.219714
    25  C   -0.043762
    26  N   -0.359597
    27  C    0.052782
    28  C   -0.112638
    29  C   -0.072643
    30  C   -0.003187
    31  C    0.034688
    32  C   -0.011675
    33  C   -0.083137
    34  N   -0.487488
    35  C    0.194350
    36  C   -0.224707
    37  C   -0.043677
    38  C    0.187353
    39  C    0.089347
    40  C    0.173962
    41  O   -0.211828
    42  C   -0.148320
    43  C    0.279051
    44  O   -0.277087
    45  O   -0.362165
    46  C    0.109087
    47  C    0.232906
    48  C   -0.172844
    49  C   -0.188192
    50  C    0.004013
    51  C    0.025397
    52  C   -0.031086
    53  C   -0.034009
    54  C   -0.213158
    55  C   -0.004167
    56  C   -0.010955
    57  C   -0.056980
    58  C    0.041475
    59  C   -0.236891
    60  C   -0.039300
    61  C    0.024905
    62  C   -0.028451
    63  C   -0.039625
    64  C   -0.254882
    65  C   -0.020835
    66  C   -0.053142
    67  H    0.012394
    68  H    0.019946
    69  H    0.003031
    70  H    0.052745
    71  H    0.042647
    72  H    0.046032
    73  H    0.040179
    74  H    0.057927
    75  H    0.031383
    76  H    0.068070
    77  H    0.043875
    78  H    0.064011
    79  H    0.067648
    80  H    0.052360
    81  H    0.053700
    82  H    0.056757
    83  H    0.071567
    84  H    0.056869
    85  H    0.050147
    86  H    0.031570
    87  H    0.035068
    88  H    0.059980
    89  H    0.052600
    90  H    0.055167
    91  H    0.046485
    92  H    0.043526
    93  H    0.037394
    94  H    0.043651
    95  H    0.069236
    96  H    0.015324
    97  H    0.063334
    98  H    0.090440
    99  H    0.062695
   100  H    0.047954
   101  H    0.078057
   102  H    0.081144
   103  H    0.059951
   104  H    0.037284
   105  H    0.056851
   106  H    0.040671
   107  H    0.034875
   108  H    0.051791
   109  H    0.014607
   110  H    0.032650
   111  H    0.031894
   112  H    0.021946
   113  H    0.033136
   114  H    0.031409
   115  H    0.032240
   116  H    0.038269
   117  H    0.020223
   118  H    0.026176
   119  H    0.028099
   120  H    0.029661
   121  H    0.039456
   122  H    0.017641
   123  H    0.022907
   124  H    0.033487
   125  H    0.035317
   126  H    0.020475
   127  H    0.031791
   128  H    0.019931
   129  H    0.031305
   130  H    0.031250
   131  H    0.026186
   132  H    0.046727
   133  H    0.044428
   134  H    0.035406
   135  H    0.039572
   136  H    0.016519
   137  H    0.040829
   138  H    0.045621
   139  H    0.037561
   140  H    0.031414
 Sum of Mulliken charges =  -0.00000

 Dipole moment (field-independent basis, Debye):
    X=             -2.5744    Y=              5.6533    Z=              0.0988  Tot=              6.2127
 Quadrupole moment (field-independent basis, Debye-Ang):
   XX=           -353.5634   YY=           -424.1687   ZZ=           -406.6161
   XY=             13.8150   XZ=             12.3363   YZ=              2.1668

 Normal termination of Gaussian 16 at Sat Apr 30 06:19:29 2022.
