 Gaussian 16, Revision A.03,
 Gaussian 16:  ES64L-G16RevA.03 25-Dec-2016

 --------------------------------
 #p wB97XD/Def2SVP td=(nstates=5)
 --------------------------------

 ---------------------------------------------------
 step_601_chromophore_4 TDDFT with wB97XD functional
 ---------------------------------------------------
 Symbolic Z-matrix:
 Charge =  0 Multiplicity = 1

                         Standard orientation:
 ---------------------------------------------------------------------
 Center     Atomic      Atomic             Coordinates (Angstroms)
 Number     Number       Type             X           Y           Z
 ---------------------------------------------------------------------
      1         12           0        5.876649    0.556710    0.309827
      2          6           0        3.491477   -2.009441    0.119790
      3          6           0        3.311138    2.678191   -0.341297
      4          6           0        8.153883    2.752818   -0.347483
      5          6           0        8.398396   -1.933912    0.482097
      6          7           0        3.724383    0.306965   -0.353120
      7          6           0        2.910076   -0.813477   -0.207958
      8          6           0        1.387461   -0.493667   -0.227011
      9          6           0        1.422512    1.034312   -0.617524
     10          6           0        2.935244    1.341674   -0.390290
     11          6           0        0.983617    1.345773   -2.099104
     12          6           0        0.651301   -0.744378    1.100685
     13          6           0       -0.919580   -0.529183    0.994229
     14          6           0       -1.853004   -1.814330    1.125922
     15          8           0       -1.668183   -2.791840    1.867873
     16          8           0       -2.924546   -1.763849    0.244372
     17          7           0        5.766140    2.480394   -0.057060
     18          6           0        4.652525    3.235631   -0.279479
     19          6           0        5.025745    4.665001   -0.335024
     20          6           0        6.426249    4.668065   -0.416065
     21          6           0        6.849914    3.258208   -0.293009
     22          6           0        3.982757    5.759624   -0.263602
     23          6           0        7.347046    5.904617   -0.581405
     24          8           0        8.552406    5.806490   -0.553483
     25          6           0        6.708061    7.360209   -0.622841
     26          7           0        8.043499    0.455347    0.267956
     27          6           0        8.744795    1.553392   -0.242544
     28          6           0       10.250114    1.191086   -0.532296
     29          6           0       10.352039   -0.158217    0.192322
     30          6           0        8.892597   -0.549941    0.294523
     31          6           0       10.460658    1.148188   -2.082960
     32          6           0       10.996992   -0.163494    1.585258
     33          6           0       12.496165   -0.619110    1.647775
     34          7           0        5.958757   -1.501180    0.488536
     35          6           0        7.039879   -2.362243    0.580835
     36          6           0        6.519613   -3.639774    0.677369
     37          6           0        5.159926   -3.576502    0.599026
     38          6           0        4.844339   -2.238542    0.455970
     39          6           0        7.254949   -4.879481    0.935867
     40          6           0        3.993949   -4.403332    0.601015
     41          8           0        3.849938   -5.621757    0.634034
     42          6           0        2.828130   -3.350197    0.387305
     43          6           0        2.029615   -3.811964   -0.772042
     44          8           0        2.470546   -4.149357   -1.890467
     45          8           0        0.699210   -3.804710   -0.460178
     46          6           0       -0.245239   -4.167583   -1.532801
     47          6           0       -3.841049   -2.933955    0.250557
     48          6           0       -5.266105   -2.512527    0.113161
     49          6           0       -6.340081   -3.278378   -0.118238
     50          6           0       -6.256649   -4.800523   -0.116123
     51          6           0       -7.747896   -2.738304   -0.227676
     52          6           0       -8.090317   -1.764811   -1.333245
     53          6           0       -8.053941   -0.321242   -0.763117
     54          6           0       -9.427711    0.356076   -0.880939
     55          6           0       -9.825814    0.524572   -2.345959
     56          6           0       -9.406697    1.821948   -0.174153
     57          6           0       -9.955456    1.744790    1.279853
     58          6           0      -10.327019    3.089680    1.858043
     59          6           0      -11.752580    3.011393    2.366541
     60          6           0      -11.995664    4.139952    3.417284
     61          6           0      -12.867986    3.097296    1.306569
     62          6           0      -13.712485    1.849351    0.984478
     63          6           0      -13.133011    1.024491   -0.222877
     64          6           0      -14.262829    0.645922   -1.193191
     65          6           0      -15.349239   -0.399382   -0.758512
     66          6           0      -13.756671    0.298367   -2.653302
     67          1           0        2.550547    3.386209   -0.677602
     68          1           0        8.810829    3.541976   -0.719810
     69          1           0        9.259110   -2.606432    0.469602
     70          1           0        0.946436   -1.112963   -1.006980
     71          1           0        0.773742    1.587419    0.061311
     72          1           0        0.125381    2.016052   -2.144366
     73          1           0        0.655111    0.428469   -2.588153
     74          1           0        1.842812    1.709916   -2.661650
     75          1           0        1.018990   -0.030066    1.836839
     76          1           0        0.839876   -1.727070    1.532610
     77          1           0       -1.176556    0.043893    0.104013
     78          1           0       -1.313579    0.195283    1.707121
     79          1           0        3.951759    6.238876   -1.241166
     80          1           0        4.326830    6.477846    0.481326
     81          1           0        3.051888    5.336204    0.115560
     82          1           0        7.533383    8.031836   -0.861477
     83          1           0        6.385855    7.644507    0.378578
     84          1           0        5.896325    7.394773   -1.349045
     85          1           0       10.886346    1.953828   -0.084997
     86          1           0       10.926758   -0.853934   -0.419521
     87          1           0       11.396800    1.694745   -2.197684
     88          1           0        9.766230    1.777914   -2.640082
     89          1           0       10.670441    0.139059   -2.436091
     90          1           0       10.460130   -0.804939    2.285208
     91          1           0       11.087975    0.865207    1.932747
     92          1           0       13.112508    0.181782    2.057247
     93          1           0       12.912377   -0.918943    0.686000
     94          1           0       12.625963   -1.474584    2.310448
     95          1           0        6.956432   -5.347384    1.873615
     96          1           0        8.334600   -4.726294    0.949045
     97          1           0        7.079331   -5.461117    0.031065
     98          1           0        2.155664   -3.373298    1.244538
     99          1           0       -1.079533   -3.493508   -1.725825
    100          1           0       -0.739342   -5.030496   -1.087398
    101          1           0        0.197009   -4.626027   -2.417755
    102          1           0       -3.747700   -3.451966    1.204649
    103          1           0       -3.605361   -3.575433   -0.598564
    104          1           0       -5.327955   -1.436358   -0.049282
    105          1           0       -6.600502   -5.253508   -1.046586
    106          1           0       -6.939274   -5.197212    0.635532
    107          1           0       -5.320617   -5.182248    0.290343
    108          1           0       -7.903083   -2.163854    0.685068
    109          1           0       -8.493889   -3.532782   -0.262724
    110          1           0       -9.040306   -2.052195   -1.782978
    111          1           0       -7.321723   -1.809470   -2.105778
    112          1           0       -7.335931    0.214279   -1.385082
    113          1           0       -7.610670   -0.245265    0.229109
    114          1           0      -10.197734   -0.269656   -0.431156
    115          1           0      -10.188568    1.533369   -2.544975
    116          1           0      -10.513152   -0.242955   -2.701872
    117          1           0       -9.000820    0.388777   -3.044147
    118          1           0       -9.965833    2.488881   -0.830817
    119          1           0       -8.379789    2.174268   -0.076534
    120          1           0       -9.172799    1.419388    1.964726
    121          1           0      -10.790015    1.045154    1.343460
    122          1           0      -10.274021    3.803173    1.035129
    123          1           0       -9.602215    3.444007    2.590689
    124          1           0      -11.890073    2.129144    2.992992
    125          1           0      -11.351917    4.271663    4.286714
    126          1           0      -12.942790    3.901941    3.903033
    127          1           0      -12.210389    5.080235    2.910048
    128          1           0      -12.298409    3.348619    0.413074
    129          1           0      -13.530056    3.921490    1.571781
    130          1           0      -14.761511    2.005297    0.731675
    131          1           0      -13.734612    1.146373    1.817415
    132          1           0      -12.702976    0.108766    0.184497
    133          1           0      -12.411651    1.618670   -0.784799
    134          1           0      -14.832362    1.543037   -1.434348
    135          1           0      -16.169688    0.078466   -0.222632
    136          1           0      -14.921881   -1.067027   -0.009908
    137          1           0      -15.709927   -1.109770   -1.502188
    138          1           0      -13.009418   -0.458574   -2.415555
    139          1           0      -13.441531    1.204855   -3.168896
    140          1           0      -14.466309   -0.107761   -3.374129
 ---------------------------------------------------------------------

 SCF Done:  E(RwB97XD) =  -3007.86753889     A.U. after   19 cycles

 Excitation energies and oscillator strengths:

 Excited State   1:      Singlet-A      1.6399 eV  756.03 nm  f=0.3668  <S**2>=0.000
     245 -> 248       -0.17066
     246 -> 247        0.68383
     245 <- 248       -0.11203
 This state for optimization and/or second-order correction.
 Total Energy, E(TD-HF/TD-DFT) =  -3007.80727259
 Copying the excited state density for this state as the 1-particle RhoCI density.

 Excited State   2:      Singlet-A      2.2333 eV  555.16 nm  f=0.1202  <S**2>=0.000
     245 -> 247        0.62920
     246 -> 248        0.30062

 Excited State   3:      Singlet-A      3.4129 eV  363.28 nm  f=0.0215  <S**2>=0.000
     244 -> 247        0.65730
     246 -> 248       -0.18973

 Excited State   4:      Singlet-A      3.5556 eV  348.70 nm  f=0.6428  <S**2>=0.000
     241 -> 247       -0.22068
     244 -> 247        0.17037
     245 -> 247       -0.27383
     246 -> 248        0.56971
     245 <- 247        0.10433

 Excited State   5:      Singlet-A      3.6200 eV  342.50 nm  f=0.0204  <S**2>=0.000
     242 -> 247        0.55054
     242 -> 249        0.30416
     242 -> 250        0.23206
     246 -> 248        0.11776

 The electronic state is 1-A.
 Alpha  occ. eigenvalues --  -46.94660 -19.30616 -19.30264 -19.25125 -19.24970
 Alpha  occ. eigenvalues --  -19.23440 -19.23383 -14.46441 -14.46433 -14.44501
 Alpha  occ. eigenvalues --  -14.43239 -10.44326 -10.42354 -10.40232 -10.38176
 Alpha  occ. eigenvalues --  -10.35896 -10.34869 -10.34853 -10.34813 -10.34583
 Alpha  occ. eigenvalues --  -10.34525 -10.34433 -10.34201 -10.33055 -10.32946
 Alpha  occ. eigenvalues --  -10.32807 -10.32470 -10.32442 -10.32403 -10.32072
 Alpha  occ. eigenvalues --  -10.31841 -10.31755 -10.31737 -10.31660 -10.31480
 Alpha  occ. eigenvalues --  -10.31430 -10.31384 -10.31020 -10.30814 -10.30533
 Alpha  occ. eigenvalues --  -10.30532 -10.30261 -10.29987 -10.29981 -10.29922
 Alpha  occ. eigenvalues --  -10.29871 -10.29758 -10.29502 -10.29432 -10.29389
 Alpha  occ. eigenvalues --  -10.29368 -10.29224 -10.29209 -10.29115 -10.29098
 Alpha  occ. eigenvalues --  -10.29026 -10.28902 -10.28737 -10.28541 -10.28527
 Alpha  occ. eigenvalues --  -10.28344 -10.28264 -10.28072 -10.27974 -10.27903
 Alpha  occ. eigenvalues --  -10.27275  -3.20816  -1.94395  -1.93966  -1.93787
 Alpha  occ. eigenvalues --   -1.17620  -1.17408  -1.13713  -1.11008  -1.09056
 Alpha  occ. eigenvalues --   -1.07775  -1.07073  -1.06349  -1.06073  -1.05330
 Alpha  occ. eigenvalues --   -0.94622  -0.92675  -0.92056  -0.91312  -0.91150
 Alpha  occ. eigenvalues --   -0.90437  -0.90208  -0.89418  -0.89405  -0.89118
 Alpha  occ. eigenvalues --   -0.88331  -0.86932  -0.86096  -0.85443  -0.85256
 Alpha  occ. eigenvalues --   -0.84515  -0.83611  -0.82891  -0.82589  -0.82188
 Alpha  occ. eigenvalues --   -0.82015  -0.80539  -0.79901  -0.79505  -0.77924
 Alpha  occ. eigenvalues --   -0.77390  -0.77209  -0.77066  -0.76398  -0.76256
 Alpha  occ. eigenvalues --   -0.75414  -0.74660  -0.73422  -0.72618  -0.70947
 Alpha  occ. eigenvalues --   -0.70398  -0.70206  -0.69348  -0.69033  -0.67695
 Alpha  occ. eigenvalues --   -0.67376  -0.67215  -0.67024  -0.65971  -0.65910
 Alpha  occ. eigenvalues --   -0.65183  -0.64772  -0.64582  -0.63878  -0.62465
 Alpha  occ. eigenvalues --   -0.62137  -0.61670  -0.61272  -0.60675  -0.59789
 Alpha  occ. eigenvalues --   -0.59436  -0.59000  -0.58328  -0.57411  -0.57226
 Alpha  occ. eigenvalues --   -0.56874  -0.56834  -0.56298  -0.56039  -0.55797
 Alpha  occ. eigenvalues --   -0.55502  -0.55227  -0.55169  -0.55041  -0.54852
 Alpha  occ. eigenvalues --   -0.54569  -0.54361  -0.54179  -0.53974  -0.53611
 Alpha  occ. eigenvalues --   -0.53322  -0.53066  -0.52880  -0.52772  -0.52507
 Alpha  occ. eigenvalues --   -0.52356  -0.52348  -0.52250  -0.51973  -0.51484
 Alpha  occ. eigenvalues --   -0.51268  -0.51093  -0.50978  -0.50779  -0.50620
 Alpha  occ. eigenvalues --   -0.50404  -0.50214  -0.50101  -0.49908  -0.49784
 Alpha  occ. eigenvalues --   -0.49224  -0.49211  -0.48854  -0.48799  -0.48587
 Alpha  occ. eigenvalues --   -0.48282  -0.48097  -0.47943  -0.47835  -0.47615
 Alpha  occ. eigenvalues --   -0.47544  -0.47185  -0.47005  -0.46863  -0.46616
 Alpha  occ. eigenvalues --   -0.46465  -0.46266  -0.46200  -0.45975  -0.45923
 Alpha  occ. eigenvalues --   -0.45634  -0.45616  -0.45317  -0.44990  -0.44655
 Alpha  occ. eigenvalues --   -0.44631  -0.44453  -0.44403  -0.44226  -0.43869
 Alpha  occ. eigenvalues --   -0.43600  -0.43492  -0.43259  -0.43192  -0.43013
 Alpha  occ. eigenvalues --   -0.42908  -0.42781  -0.42598  -0.42461  -0.42245
 Alpha  occ. eigenvalues --   -0.41845  -0.41735  -0.41626  -0.41335  -0.41129
 Alpha  occ. eigenvalues --   -0.40776  -0.40058  -0.40033  -0.39632  -0.39332
 Alpha  occ. eigenvalues --   -0.39088  -0.39057  -0.38905  -0.38793  -0.38387
 Alpha  occ. eigenvalues --   -0.37841  -0.37374  -0.36973  -0.36839  -0.36295
 Alpha  occ. eigenvalues --   -0.35661  -0.35495  -0.34686  -0.33763  -0.33432
 Alpha  occ. eigenvalues --   -0.32881  -0.32291  -0.31710  -0.31647  -0.26033
 Alpha  occ. eigenvalues --   -0.22613
 Alpha virt. eigenvalues --   -0.06808   0.00585   0.02814   0.04767   0.05857
 Alpha virt. eigenvalues --    0.06753   0.07650   0.07965   0.08051   0.09932
 Alpha virt. eigenvalues --    0.10608   0.11063   0.12155   0.12204   0.12320

 Mulliken charges:
               1
     1  Mg   0.999919
     2  C   -0.027326
     3  C   -0.097253
     4  C   -0.061354
     5  C   -0.084359
     6  N   -0.305832
     7  C   -0.013661
     8  C   -0.029659
     9  C   -0.135878
    10  C    0.059702
    11  C    0.027679
    12  C    0.058710
    13  C   -0.033564
    14  C    0.246590
    15  O   -0.269850
    16  O   -0.384171
    17  N   -0.503378
    18  C    0.126102
    19  C   -0.191679
    20  C   -0.060581
    21  C    0.124266
    22  C    0.081294
    23  C    0.048204
    24  O   -0.214829
    25  C   -0.029623
    26  N   -0.328340
    27  C    0.041414
    28  C   -0.086827
    29  C   -0.045373
    30  C   -0.021576
    31  C    0.042151
    32  C   -0.001410
    33  C   -0.067892
    34  N   -0.448605
    35  C    0.185388
    36  C   -0.210972
    37  C   -0.041288
    38  C    0.168456
    39  C    0.098250
    40  C    0.153714
    41  O   -0.201746
    42  C   -0.105189
    43  C    0.252827
    44  O   -0.272132
    45  O   -0.359272
    46  C    0.124452
    47  C    0.245420
    48  C   -0.181229
    49  C   -0.173065
    50  C    0.017193
    51  C    0.045873
    52  C   -0.019855
    53  C   -0.016009
    54  C   -0.177356
    55  C    0.006928
    56  C    0.007449
    57  C   -0.035888
    58  C    0.054500
    59  C   -0.206371
    60  C   -0.023980
    61  C    0.042731
    62  C   -0.012665
    63  C   -0.016020
    64  C   -0.221006
    65  C   -0.011546
    66  C   -0.037463
    67  H    0.004851
    68  H    0.013805
    69  H   -0.001560
    70  H    0.035670
    71  H    0.032535
    72  H    0.041342
    73  H    0.034722
    74  H    0.052086
    75  H    0.023869
    76  H    0.055754
    77  H    0.036290
    78  H    0.059160
    79  H    0.062838
    80  H    0.045648
    81  H    0.050032
    82  H    0.055355
    83  H    0.067137
    84  H    0.050668
    85  H    0.041969
    86  H    0.019191
    87  H    0.029097
    88  H    0.054148
    89  H    0.047756
    90  H    0.047315
    91  H    0.037818
    92  H    0.037833
    93  H    0.030932
    94  H    0.037883
    95  H    0.065520
    96  H    0.008999
    97  H    0.058551
    98  H    0.083947
    99  H    0.058164
   100  H    0.043458
   101  H    0.075458
   102  H    0.076392
   103  H    0.054003
   104  H    0.031677
   105  H    0.052055
   106  H    0.034326
   107  H    0.029809
   108  H    0.040552
   109  H    0.009276
   110  H    0.025329
   111  H    0.023340
   112  H    0.012125
   113  H    0.021691
   114  H    0.014469
   115  H    0.026572
   116  H    0.030342
   117  H    0.014198
   118  H    0.013866
   119  H    0.020217
   120  H    0.022160
   121  H    0.021393
   122  H    0.006270
   123  H    0.017108
   124  H    0.020355
   125  H    0.030718
   126  H    0.012494
   127  H    0.023754
   128  H    0.006013
   129  H    0.024183
   130  H    0.022432
   131  H    0.017817
   132  H    0.036087
   133  H    0.022557
   134  H    0.022229
   135  H    0.034064
   136  H    0.009311
   137  H    0.036191
   138  H    0.034698
   139  H    0.032078
   140  H    0.026467
 Sum of Mulliken charges =  -0.00000

 Dipole moment (field-independent basis, Debye):
    X=             -2.6151    Y=              5.8742    Z=              0.0867  Tot=              6.4306
 Quadrupole moment (field-independent basis, Debye-Ang):
   XX=           -354.2849   YY=           -422.2710   ZZ=           -406.2693
   XY=             15.3549   XZ=             12.3391   YZ=              2.1293

 Normal termination of Gaussian 16 at Sat Apr 30 06:45:08 2022.
