 Gaussian 16, Revision A.03,
 Gaussian 16:  ES64L-G16RevA.03 25-Dec-2016

 --------------------
 #p ZINDO=(nstates=5)
 --------------------

 ----------------------------
 step_601_chromophore_4 ZINDO
 ----------------------------
 Symbolic Z-matrix:
 Charge =  0 Multiplicity = 1

                         Standard orientation:
 ---------------------------------------------------------------------
 Center     Atomic      Atomic             Coordinates (Angstroms)
 Number     Number       Type             X           Y           Z
 ---------------------------------------------------------------------
      1         12           0        5.876649    0.556710    0.309827
      2          6           0        3.491477   -2.009441    0.119790
      3          6           0        3.311138    2.678191   -0.341297
      4          6           0        8.153883    2.752818   -0.347483
      5          6           0        8.398396   -1.933912    0.482097
      6          7           0        3.724383    0.306965   -0.353120
      7          6           0        2.910076   -0.813477   -0.207958
      8          6           0        1.387461   -0.493667   -0.227011
      9          6           0        1.422512    1.034312   -0.617524
     10          6           0        2.935244    1.341674   -0.390290
     11          6           0        0.983617    1.345773   -2.099104
     12          6           0        0.651301   -0.744378    1.100685
     13          6           0       -0.919580   -0.529183    0.994229
     14          6           0       -1.853004   -1.814330    1.125922
     15          8           0       -1.668183   -2.791840    1.867873
     16          8           0       -2.924546   -1.763849    0.244372
     17          7           0        5.766140    2.480394   -0.057060
     18          6           0        4.652525    3.235631   -0.279479
     19          6           0        5.025745    4.665001   -0.335024
     20          6           0        6.426249    4.668065   -0.416065
     21          6           0        6.849914    3.258208   -0.293009
     22          6           0        3.982757    5.759624   -0.263602
     23          6           0        7.347046    5.904617   -0.581405
     24          8           0        8.552406    5.806490   -0.553483
     25          6           0        6.708061    7.360209   -0.622841
     26          7           0        8.043499    0.455347    0.267956
     27          6           0        8.744795    1.553392   -0.242544
     28          6           0       10.250114    1.191086   -0.532296
     29          6           0       10.352039   -0.158217    0.192322
     30          6           0        8.892597   -0.549941    0.294523
     31          6           0       10.460658    1.148188   -2.082960
     32          6           0       10.996992   -0.163494    1.585258
     33          6           0       12.496165   -0.619110    1.647775
     34          7           0        5.958757   -1.501180    0.488536
     35          6           0        7.039879   -2.362243    0.580835
     36          6           0        6.519613   -3.639774    0.677369
     37          6           0        5.159926   -3.576502    0.599026
     38          6           0        4.844339   -2.238542    0.455970
     39          6           0        7.254949   -4.879481    0.935867
     40          6           0        3.993949   -4.403332    0.601015
     41          8           0        3.849938   -5.621757    0.634034
     42          6           0        2.828130   -3.350197    0.387305
     43          6           0        2.029615   -3.811964   -0.772042
     44          8           0        2.470546   -4.149357   -1.890467
     45          8           0        0.699210   -3.804710   -0.460178
     46          6           0       -0.245239   -4.167583   -1.532801
     47          6           0       -3.841049   -2.933955    0.250557
     48          6           0       -5.266105   -2.512527    0.113161
     49          6           0       -6.340081   -3.278378   -0.118238
     50          6           0       -6.256649   -4.800523   -0.116123
     51          6           0       -7.747896   -2.738304   -0.227676
     52          6           0       -8.090317   -1.764811   -1.333245
     53          6           0       -8.053941   -0.321242   -0.763117
     54          6           0       -9.427711    0.356076   -0.880939
     55          6           0       -9.825814    0.524572   -2.345959
     56          6           0       -9.406697    1.821948   -0.174153
     57          6           0       -9.955456    1.744790    1.279853
     58          6           0      -10.327019    3.089680    1.858043
     59          6           0      -11.752580    3.011393    2.366541
     60          6           0      -11.995664    4.139952    3.417284
     61          6           0      -12.867986    3.097296    1.306569
     62          6           0      -13.712485    1.849351    0.984478
     63          6           0      -13.133011    1.024491   -0.222877
     64          6           0      -14.262829    0.645922   -1.193191
     65          6           0      -15.349239   -0.399382   -0.758512
     66          6           0      -13.756671    0.298367   -2.653302
     67          1           0        2.550547    3.386209   -0.677602
     68          1           0        8.810829    3.541976   -0.719810
     69          1           0        9.259110   -2.606432    0.469602
     70          1           0        0.946436   -1.112963   -1.006980
     71          1           0        0.773742    1.587419    0.061311
     72          1           0        0.125381    2.016052   -2.144366
     73          1           0        0.655111    0.428469   -2.588153
     74          1           0        1.842812    1.709916   -2.661650
     75          1           0        1.018990   -0.030066    1.836839
     76          1           0        0.839876   -1.727070    1.532610
     77          1           0       -1.176556    0.043893    0.104013
     78          1           0       -1.313579    0.195283    1.707121
     79          1           0        3.951759    6.238876   -1.241166
     80          1           0        4.326830    6.477846    0.481326
     81          1           0        3.051888    5.336204    0.115560
     82          1           0        7.533383    8.031836   -0.861477
     83          1           0        6.385855    7.644507    0.378578
     84          1           0        5.896325    7.394773   -1.349045
     85          1           0       10.886346    1.953828   -0.084997
     86          1           0       10.926758   -0.853934   -0.419521
     87          1           0       11.396800    1.694745   -2.197684
     88          1           0        9.766230    1.777914   -2.640082
     89          1           0       10.670441    0.139059   -2.436091
     90          1           0       10.460130   -0.804939    2.285208
     91          1           0       11.087975    0.865207    1.932747
     92          1           0       13.112508    0.181782    2.057247
     93          1           0       12.912377   -0.918943    0.686000
     94          1           0       12.625963   -1.474584    2.310448
     95          1           0        6.956432   -5.347384    1.873615
     96          1           0        8.334600   -4.726294    0.949045
     97          1           0        7.079331   -5.461117    0.031065
     98          1           0        2.155664   -3.373298    1.244538
     99          1           0       -1.079533   -3.493508   -1.725825
    100          1           0       -0.739342   -5.030496   -1.087398
    101          1           0        0.197009   -4.626027   -2.417755
    102          1           0       -3.747700   -3.451966    1.204649
    103          1           0       -3.605361   -3.575433   -0.598564
    104          1           0       -5.327955   -1.436358   -0.049282
    105          1           0       -6.600502   -5.253508   -1.046586
    106          1           0       -6.939274   -5.197212    0.635532
    107          1           0       -5.320617   -5.182248    0.290343
    108          1           0       -7.903083   -2.163854    0.685068
    109          1           0       -8.493889   -3.532782   -0.262724
    110          1           0       -9.040306   -2.052195   -1.782978
    111          1           0       -7.321723   -1.809470   -2.105778
    112          1           0       -7.335931    0.214279   -1.385082
    113          1           0       -7.610670   -0.245265    0.229109
    114          1           0      -10.197734   -0.269656   -0.431156
    115          1           0      -10.188568    1.533369   -2.544975
    116          1           0      -10.513152   -0.242955   -2.701872
    117          1           0       -9.000820    0.388777   -3.044147
    118          1           0       -9.965833    2.488881   -0.830817
    119          1           0       -8.379789    2.174268   -0.076534
    120          1           0       -9.172799    1.419388    1.964726
    121          1           0      -10.790015    1.045154    1.343460
    122          1           0      -10.274021    3.803173    1.035129
    123          1           0       -9.602215    3.444007    2.590689
    124          1           0      -11.890073    2.129144    2.992992
    125          1           0      -11.351917    4.271663    4.286714
    126          1           0      -12.942790    3.901941    3.903033
    127          1           0      -12.210389    5.080235    2.910048
    128          1           0      -12.298409    3.348619    0.413074
    129          1           0      -13.530056    3.921490    1.571781
    130          1           0      -14.761511    2.005297    0.731675
    131          1           0      -13.734612    1.146373    1.817415
    132          1           0      -12.702976    0.108766    0.184497
    133          1           0      -12.411651    1.618670   -0.784799
    134          1           0      -14.832362    1.543037   -1.434348
    135          1           0      -16.169688    0.078466   -0.222632
    136          1           0      -14.921881   -1.067027   -0.009908
    137          1           0      -15.709927   -1.109770   -1.502188
    138          1           0      -13.009418   -0.458574   -2.415555
    139          1           0      -13.441531    1.204855   -3.168896
    140          1           0      -14.466309   -0.107761   -3.374129
 ---------------------------------------------------------------------

 SCF Done:  E(RZINDO/S) =  -474.370176077     A.U. after   19 cycles

 Excitation energies and oscillator strengths:

 Excited State   1:      Singlet-A      1.2169 eV 1018.88 nm  f=0.5905  <S**2>=0.000
     175 ->178         0.18487
     176 ->177         0.66266
 This state for optimization and/or second-order correction.
 Total Energy, E(CIS/TDA) =  -474.325456890
 Copying the excited state density for this state as the 1-particle RhoCI density.

 Excited State   2:      Singlet-A      1.9447 eV  637.56 nm  f=0.0248  <S**2>=0.000
     175 ->177         0.52009
     176 ->178        -0.45428

 Excited State   3:      Singlet-A      2.9679 eV  417.75 nm  f=0.2696  <S**2>=0.000
     168 ->179         0.11392
     175 ->177        -0.20836
     176 ->178        -0.24232
     176 ->179         0.54644
     176 ->182         0.10635

 Excited State   4:      Singlet-A      2.9928 eV  414.27 nm  f=0.8141  <S**2>=0.000
     171 ->177         0.10729
     175 ->177         0.35595
     176 ->178         0.43564
     176 ->179         0.34100

 Excited State   5:      Singlet-A      3.0252 eV  409.83 nm  f=0.0241  <S**2>=0.000
     169 ->177         0.19663
     169 ->178         0.10903
     169 ->179         0.24581
     169 ->181        -0.20186
     169 ->186         0.15453
     170 ->177         0.23629
     170 ->178         0.12802
     170 ->179         0.25916
     170 ->181        -0.23590
     170 ->186         0.16572
     170 ->187         0.10077

 The electronic state is 1-A.
 Alpha  occ. eigenvalues --   -1.87195  -1.82807  -1.81247  -1.72908  -1.71598
 Alpha  occ. eigenvalues --   -1.70174  -1.67241  -1.61466  -1.58566  -1.58406
 Alpha  occ. eigenvalues --   -1.54688  -1.51369  -1.48351  -1.47590  -1.46561
 Alpha  occ. eigenvalues --   -1.43386  -1.42288  -1.40465  -1.38801  -1.38186
 Alpha  occ. eigenvalues --   -1.35732  -1.34881  -1.33136  -1.31652  -1.29968
 Alpha  occ. eigenvalues --   -1.28857  -1.24770  -1.21967  -1.20672  -1.18853
 Alpha  occ. eigenvalues --   -1.17350  -1.15732  -1.15179  -1.13806  -1.13166
 Alpha  occ. eigenvalues --   -1.11324  -1.11082  -1.10721  -1.05342  -1.03467
 Alpha  occ. eigenvalues --   -1.03049  -1.01070  -0.99081  -0.97620  -0.96737
 Alpha  occ. eigenvalues --   -0.95662  -0.95118  -0.94487  -0.93085  -0.92514
 Alpha  occ. eigenvalues --   -0.91111  -0.89527  -0.89126  -0.88216  -0.88003
 Alpha  occ. eigenvalues --   -0.86786  -0.83797  -0.83135  -0.82775  -0.80676
 Alpha  occ. eigenvalues --   -0.80347  -0.79362  -0.78595  -0.77649  -0.76049
 Alpha  occ. eigenvalues --   -0.75438  -0.74637  -0.74234  -0.73810  -0.73076
 Alpha  occ. eigenvalues --   -0.73010  -0.72495  -0.72135  -0.70782  -0.70361
 Alpha  occ. eigenvalues --   -0.69864  -0.69619  -0.68752  -0.68298  -0.67731
 Alpha  occ. eigenvalues --   -0.67157  -0.66958  -0.66656  -0.66439  -0.65693
 Alpha  occ. eigenvalues --   -0.65406  -0.64481  -0.64289  -0.64146  -0.63951
 Alpha  occ. eigenvalues --   -0.62990  -0.62680  -0.62334  -0.61849  -0.61527
 Alpha  occ. eigenvalues --   -0.61471  -0.61103  -0.60834  -0.60666  -0.60295
 Alpha  occ. eigenvalues --   -0.59769  -0.58943  -0.58674  -0.58239  -0.58083
 Alpha  occ. eigenvalues --   -0.58056  -0.57763  -0.57250  -0.57114  -0.56346
 Alpha  occ. eigenvalues --   -0.55902  -0.55587  -0.55425  -0.55267  -0.55143
 Alpha  occ. eigenvalues --   -0.54626  -0.53632  -0.53107  -0.52641  -0.52512
 Alpha  occ. eigenvalues --   -0.52287  -0.52068  -0.51733  -0.51406  -0.51187
 Alpha  occ. eigenvalues --   -0.50967  -0.50860  -0.50670  -0.50440  -0.50029
 Alpha  occ. eigenvalues --   -0.49832  -0.49716  -0.49632  -0.49308  -0.49127
 Alpha  occ. eigenvalues --   -0.48749  -0.48241  -0.48131  -0.47984  -0.47885
 Alpha  occ. eigenvalues --   -0.47753  -0.47510  -0.47322  -0.47174  -0.46541
 Alpha  occ. eigenvalues --   -0.46419  -0.46190  -0.46025  -0.45948  -0.45546
 Alpha  occ. eigenvalues --   -0.45256  -0.45207  -0.45005  -0.44393  -0.43876
 Alpha  occ. eigenvalues --   -0.43637  -0.43280  -0.43213  -0.42920  -0.42192
 Alpha  occ. eigenvalues --   -0.41433  -0.41124  -0.40443  -0.39208  -0.38773
 Alpha  occ. eigenvalues --   -0.37622  -0.37464  -0.35778  -0.34639  -0.34388
 Alpha  occ. eigenvalues --   -0.33357  -0.32710  -0.32445  -0.32107  -0.26761
 Alpha  occ. eigenvalues --   -0.21361
 Alpha virt. eigenvalues --   -0.08293  -0.01864  -0.00193   0.01362   0.01650
 Alpha virt. eigenvalues --    0.02417   0.02767   0.03239   0.04779   0.04963
 Alpha virt. eigenvalues --    0.06015   0.07134   0.07400   0.07635   0.08003

 Mulliken charges:
               1
     1  Mg   0.432433
     2  C   -0.034947
     3  C   -0.121587
     4  C   -0.049122
     5  C   -0.080935
     6  N   -0.283475
     7  C    0.106412
     8  C    0.006145
     9  C   -0.006467
    10  C    0.163154
    11  C   -0.051871
    12  C   -0.014489
    13  C   -0.000964
    14  C    0.459549
    15  O   -0.512838
    16  O   -0.277765
    17  N   -0.305323
    18  C    0.108693
    19  C   -0.000668
    20  C   -0.043824
    21  C    0.133572
    22  C   -0.040190
    23  C    0.316744
    24  O   -0.501466
    25  C   -0.035034
    26  N   -0.265285
    27  C    0.112410
    28  C    0.009267
    29  C    0.019832
    30  C    0.132618
    31  C   -0.055250
    32  C   -0.028160
    33  C   -0.064016
    34  N   -0.328743
    35  C    0.093322
    36  C    0.053321
    37  C   -0.053372
    38  C    0.124347
    39  C   -0.043516
    40  C    0.331456
    41  O   -0.515069
    42  C    0.052512
    43  C    0.487858
    44  O   -0.538534
    45  O   -0.263059
    46  C    0.063334
    47  C    0.106476
    48  C   -0.085590
    49  C   -0.004429
    50  C   -0.050198
    51  C   -0.020181
    52  C   -0.031110
    53  C   -0.029752
    54  C   -0.015445
    55  C   -0.059982
    56  C   -0.045882
    57  C   -0.040394
    58  C   -0.027548
    59  C   -0.002315
    60  C   -0.071308
    61  C   -0.028141
    62  C   -0.040666
    63  C   -0.029626
    64  C   -0.016267
    65  C   -0.058447
    66  C   -0.070748
    67  H    0.018182
    68  H    0.027676
    69  H    0.029344
    70  H    0.038515
    71  H    0.027874
    72  H    0.022409
    73  H    0.020252
    74  H    0.030451
    75  H    0.021118
    76  H    0.039400
    77  H    0.032391
    78  H    0.041130
    79  H    0.038738
    80  H    0.026396
    81  H    0.031828
    82  H    0.037018
    83  H    0.040816
    84  H    0.036252
    85  H    0.036867
    86  H    0.026538
    87  H    0.009541
    88  H    0.038216
    89  H    0.033253
    90  H    0.030845
    91  H    0.024872
    92  H    0.018466
    93  H    0.019890
    94  H    0.016993
    95  H    0.041813
    96  H    0.009624
    97  H    0.040037
    98  H    0.057134
    99  H    0.044930
   100  H    0.023331
   101  H    0.060809
   102  H    0.063532
   103  H    0.048772
   104  H    0.026830
   105  H    0.035959
   106  H    0.016557
   107  H    0.024861
   108  H    0.025367
   109  H    0.014549
   110  H    0.025006
   111  H    0.016250
   112  H    0.009755
   113  H    0.023000
   114  H    0.025213
   115  H    0.019671
   116  H    0.017094
   117  H    0.011618
   118  H    0.027356
   119  H    0.020773
   120  H    0.014927
   121  H    0.025247
   122  H    0.013737
   123  H    0.020960
   124  H    0.018427
   125  H    0.023248
   126  H   -0.000022
   127  H    0.016805
   128  H    0.019144
   129  H    0.021666
   130  H    0.026032
   131  H    0.015883
   132  H    0.023364
   133  H    0.026946
   134  H    0.008391
   135  H    0.018863
   136  H    0.007150
   137  H    0.027278
   138  H    0.021025
   139  H    0.018183
   140  H    0.018180
 Sum of Mulliken charges =  -0.00000

 Dipole moment (field-independent basis, Debye):
    X=             -3.7878    Y=              8.3840    Z=             -0.2506  Tot=              9.2033
 N-N= 4.292582991523D+03 E-N= 0.000000000000D+00  KE=-9.259525455642D+03
 Leave Link  601 at Sat Apr 30 06:56:37 2022, MaxMem=  6710886400 cpu:               0.8 elap:               0.0
 (Enter /sw/apps/gaussian-16.0/g16/l9999.exe)
 1\1\GINC-BP1-COMPUTE161\SP\RZINDO CIS\STO-3G\C55H74Mg1N4O6\OF15641\30-
 Apr-2022\0\\#p ZINDO=(nstates=5)\\step_601_chromophore_4 ZINDO\\0,1\Mg
 ,0,9.135,2.975,28.092\C,0,10.269,1.548,31.09\C,0,7.826,5.436,30.025\C,
 0,7.411,3.798,25.486\C,0,10.179,0.03,26.41\N,0,8.817,3.262,30.317\C,0,
 9.499,2.647,31.364\C,0,9.461,3.447,32.698\C,0,8.442,4.589,32.316\C,0,8
 .394,4.408,30.767\C,0,7.012,4.439,32.962\C,0,10.818,4.002,33.165\C,0,1
 0.751,4.696,34.593\C,0,11.502,3.977,35.801\O,0,12.579,3.363,35.744\O,0

 Normal termination of Gaussian 16 at Sat Apr 30 06:56:37 2022.
