 Gaussian 16, Revision A.03,
 Gaussian 16:  ES64L-G16RevA.03 25-Dec-2016

 ------------------------------
 #p blyp/Def2SVP td=(nstates=5)
 ------------------------------

 --------------------------------------------------
 step_201_chromophore_19 TDDFT with blyp functional
 --------------------------------------------------
 Symbolic Z-matrix:
 Charge =  0 Multiplicity = 1

                         Standard orientation:
 ---------------------------------------------------------------------
 Center     Atomic      Atomic             Coordinates (Angstroms)
 Number     Number       Type             X           Y           Z
 ---------------------------------------------------------------------
      1         12           0       -5.931630    0.413988   -0.317647
      2          6           0       -3.695560   -2.337736   -0.511617
      3          6           0       -3.244168    2.549271   -0.111941
      4          6           0       -8.081894    2.814521    0.639997
      5          6           0       -8.472422   -1.869445   -0.114172
      6          7           0       -3.708242    0.022407   -0.112149
      7          6           0       -2.980122   -1.103871   -0.403482
      8          6           0       -1.464586   -0.801232   -0.437332
      9          6           0       -1.421833    0.741472   -0.208362
     10          6           0       -2.917240    1.116650   -0.189758
     11          6           0       -0.464882    1.211139    0.944755
     12          6           0       -0.794376   -1.274365   -1.744736
     13          6           0        0.762176   -1.107545   -1.927062
     14          6           0        1.724782   -1.266865   -0.713778
     15          8           0        1.420543   -1.675289    0.421393
     16          8           0        2.967158   -0.828922   -1.062204
     17          7           0       -5.711885    2.451491   -0.074934
     18          6           0       -4.568884    3.154232   -0.023377
     19          6           0       -4.911098    4.639521    0.087218
     20          6           0       -6.290105    4.663534    0.432071
     21          6           0       -6.746489    3.267888    0.412835
     22          6           0       -3.840571    5.701455   -0.055566
     23          6           0       -7.163510    5.923408    0.732276
     24          8           0       -8.388204    5.852248    0.908708
     25          6           0       -6.598398    7.278392    0.660953
     26          7           0       -7.965342    0.437297    0.535562
     27          6           0       -8.722933    1.522577    0.692163
     28          6           0      -10.206837    1.184088    0.941884
     29          6           0      -10.260420   -0.218990    0.338010
     30          6           0       -8.775882   -0.580991    0.226013
     31          6           0      -10.532025    1.260666    2.452756
     32          6           0      -10.959787   -0.423513   -1.051184
     33          6           0      -12.574467   -0.405831   -0.976371
     34          7           0       -6.158761   -1.617852   -0.239169
     35          6           0       -7.240242   -2.425553   -0.336808
     36          6           0       -6.988083   -3.737777   -0.718769
     37          6           0       -5.599759   -3.785837   -0.659171
     38          6           0       -5.106859   -2.464690   -0.485411
     39          6           0       -7.932510   -4.879782   -0.929981
     40          6           0       -4.424806   -4.666762   -0.764146
     41          8           0       -4.360631   -5.834680   -1.073588
     42          6           0       -3.181990   -3.727227   -0.572392
     43          6           0       -2.422492   -4.042349    0.638328
     44          8           0       -2.757997   -4.101087    1.817665
     45          8           0       -1.130297   -4.319330    0.240152
     46          6           0       -0.098135   -4.780500    1.209556
     47          6           0        3.946295   -1.094261    0.027230
     48          6           0        5.324614   -1.003909   -0.650898
     49          6           0        6.518834   -0.912943   -0.065407
     50          6           0        6.768026   -0.918052    1.410223
     51          6           0        7.800122   -0.721474   -0.813186
     52          6           0        7.979993    0.668052   -1.406740
     53          6           0        9.258091    1.474483   -0.902279
     54          6           0       10.008792    2.311506   -1.921625
     55          6           0        9.138433    3.410902   -2.626570
     56          6           0       10.848135    1.355448   -2.815443
     57          6           0       12.342948    1.646619   -2.637220
     58          6           0       12.903692    0.567028   -1.666823
     59          6           0       14.009354    0.900238   -0.602690
     60          6           0       15.348608    0.861339   -1.232363
     61          6           0       13.929284   -0.069046    0.573039
     62          6           0       13.380290    0.549826    1.909920
     63          6           0       12.936881   -0.560019    2.950273
     64          6           0       11.540117   -0.290629    3.511647
     65          6           0       11.311142   -1.092840    4.829432
     66          6           0       10.392015   -0.544563    2.452728
     67          1           0       -2.415911    3.259343   -0.163737
     68          1           0       -8.728869    3.691681    0.697696
     69          1           0       -9.306933   -2.572993   -0.160713
     70          1           0       -1.058917   -1.421256    0.361599
     71          1           0       -0.880116    1.096334   -1.085268
     72          1           0       -1.083006    1.446893    1.811203
     73          1           0       -0.122589    2.202938    0.648555
     74          1           0        0.202770    0.420331    1.288063
     75          1           0       -1.186628   -0.496996   -2.400460
     76          1           0       -1.083937   -2.209730   -2.225324
     77          1           0        0.915469   -0.126258   -2.377592
     78          1           0        0.995000   -1.944177   -2.586108
     79          1           0       -2.815110    5.334319   -0.096401
     80          1           0       -3.871263    6.319886    0.842371
     81          1           0       -4.146490    6.331734   -0.890690
     82          1           0       -6.453675    7.287173   -0.419486
     83          1           0       -5.626906    7.422849    1.133285
     84          1           0       -7.322747    8.020981    0.995147
     85          1           0      -10.809385    1.898196    0.381715
     86          1           0      -10.796586   -0.850548    1.045926
     87          1           0       -9.529936    1.218636    2.879346
     88          1           0      -10.994341    0.338770    2.806420
     89          1           0      -10.993427    2.206552    2.738177
     90          1           0      -10.689251   -1.290464   -1.653260
     91          1           0      -10.686919    0.506291   -1.550605
     92          1           0      -13.024841   -0.389564   -1.968776
     93          1           0      -12.986074    0.422712   -0.399455
     94          1           0      -12.830813   -1.331014   -0.460467
     95          1           0       -8.995876   -4.641211   -0.911517
     96          1           0       -7.694251   -5.473089   -0.047771
     97          1           0       -7.694513   -5.470073   -1.814099
     98          1           0       -2.543001   -3.779881   -1.454173
     99          1           0        0.430019   -3.869341    1.492150
    100          1           0        0.543346   -5.501061    0.703079
    101          1           0       -0.550917   -5.340107    2.027704
    102          1           0        3.965904   -2.072502    0.507194
    103          1           0        3.894432   -0.389570    0.857109
    104          1           0        5.148772   -1.079571   -1.723527
    105          1           0        7.302419   -0.006394    1.677138
    106          1           0        7.404381   -1.703971    1.817450
    107          1           0        5.837190   -1.113029    1.941087
    108          1           0        7.679114   -1.484373   -1.582076
    109          1           0        8.607469   -1.034695   -0.149875
    110          1           0        7.131539    1.316449   -1.186808
    111          1           0        7.981849    0.641863   -2.495788
    112          1           0        9.928987    0.979932   -0.199997
    113          1           0        8.806239    2.306961   -0.362751
    114          1           0       10.623553    3.020130   -1.368445
    115          1           0        8.127114    3.157264   -2.308069
    116          1           0        9.140633    3.321252   -3.713038
    117          1           0        9.310174    4.410269   -2.226557
    118          1           0       10.670285    1.432521   -3.888344
    119          1           0       10.603645    0.316348   -2.595290
    120          1           0       12.491216    2.636802   -2.206913
    121          1           0       12.852990    1.606226   -3.600612
    122          1           0       13.260565   -0.226773   -2.323352
    123          1           0       12.081479   -0.026051   -1.268491
    124          1           0       13.865884    1.901129   -0.197332
    125          1           0       15.273709    1.030415   -2.307092
    126          1           0       15.973297   -0.013100   -1.046970
    127          1           0       15.964916    1.647213   -0.797039
    128          1           0       14.901445   -0.527397    0.756454
    129          1           0       13.241235   -0.890693    0.373100
    130          1           0       12.524729    1.181382    1.669424
    131          1           0       14.102640    1.115285    2.499067
    132          1           0       13.650434   -0.471770    3.769986
    133          1           0       13.011978   -1.568163    2.543048
    134          1           0       11.458588    0.765816    3.765985
    135          1           0       11.241780   -0.489715    5.734325
    136          1           0       12.050192   -1.837287    5.127243
    137          1           0       10.411608   -1.708656    4.835130
    138          1           0        9.878487   -1.503592    2.503802
    139          1           0       10.903588   -0.256193    1.534217
    140          1           0        9.581198    0.139667    2.699815
 ---------------------------------------------------------------------

 SCF Done:  E(RB-LYP) =  -3007.33423087     A.U. after   20 cycles

 Excitation energies and oscillator strengths:

 Excited State   1:      Singlet-A      1.7964 eV  690.18 nm  f=0.2748  <S**2>=0.000
     245 -> 248        0.21559
     246 -> 247        0.68113
     246 <- 247       -0.13912
 This state for optimization and/or second-order correction.
 Total Energy, E(TD-HF/TD-DFT) =  -3007.26821426
 Copying the excited state density for this state as the 1-particle RhoCI density.

 Excited State   2:      Singlet-A      1.9664 eV  630.51 nm  f=0.0699  <S**2>=0.000
     245 -> 247        0.64308
     246 -> 248       -0.26572

 Excited State   3:      Singlet-A      2.1053 eV  588.91 nm  f=0.0008  <S**2>=0.000
     244 -> 247        0.70442

 Excited State   4:      Singlet-A      2.2261 eV  556.96 nm  f=0.0012  <S**2>=0.000
     243 -> 247        0.70430

 Excited State   5:      Singlet-A      2.5577 eV  484.75 nm  f=0.0004  <S**2>=0.000
     241 -> 247        0.67789
     242 -> 247        0.19465

 The electronic state is 1-A.
 Alpha  occ. eigenvalues --  -46.27580 -18.84334 -18.80113 -18.78393 -18.75739
 Alpha  occ. eigenvalues --  -18.75476 -18.75357 -14.03163 -14.02396 -14.01197
 Alpha  occ. eigenvalues --  -13.99957 -10.05762 -10.02739 -10.00466  -9.99177
 Alpha  occ. eigenvalues --   -9.98753  -9.97008  -9.96434  -9.96411  -9.96106
 Alpha  occ. eigenvalues --   -9.96087  -9.96076  -9.94924  -9.94903  -9.94554
 Alpha  occ. eigenvalues --   -9.93926  -9.93741  -9.93685  -9.93629  -9.93496
 Alpha  occ. eigenvalues --   -9.93486  -9.93466  -9.93449  -9.93412  -9.93097
 Alpha  occ. eigenvalues --   -9.92982  -9.92909  -9.92779  -9.92700  -9.92615
 Alpha  occ. eigenvalues --   -9.92514  -9.92493  -9.92448  -9.92237  -9.92074
 Alpha  occ. eigenvalues --   -9.91937  -9.91903  -9.91888  -9.91843  -9.91836
 Alpha  occ. eigenvalues --   -9.91805  -9.91756  -9.91633  -9.91630  -9.91592
 Alpha  occ. eigenvalues --   -9.91289  -9.91260  -9.91207  -9.91177  -9.91170
 Alpha  occ. eigenvalues --   -9.90917  -9.90907  -9.90867  -9.90845  -9.90362
 Alpha  occ. eigenvalues --   -9.90346  -2.92158  -1.72536  -1.72093  -1.71853
 Alpha  occ. eigenvalues --   -0.99208  -0.95576  -0.91517  -0.91147  -0.90549
 Alpha  occ. eigenvalues --   -0.87646  -0.87190  -0.86095  -0.85413  -0.84584
 Alpha  occ. eigenvalues --   -0.75466  -0.74284  -0.73299  -0.72694  -0.72272
 Alpha  occ. eigenvalues --   -0.71972  -0.71153  -0.70859  -0.70429  -0.70304
 Alpha  occ. eigenvalues --   -0.69625  -0.69081  -0.67974  -0.67166  -0.66878
 Alpha  occ. eigenvalues --   -0.66418  -0.66094  -0.65291  -0.64949  -0.64474
 Alpha  occ. eigenvalues --   -0.63711  -0.62407  -0.62355  -0.61347  -0.60793
 Alpha  occ. eigenvalues --   -0.60480  -0.60216  -0.59586  -0.59506  -0.59079
 Alpha  occ. eigenvalues --   -0.58435  -0.57223  -0.56263  -0.55718  -0.54423
 Alpha  occ. eigenvalues --   -0.54253  -0.53341  -0.53269  -0.52134  -0.51475
 Alpha  occ. eigenvalues --   -0.51321  -0.50795  -0.50466  -0.50324  -0.50151
 Alpha  occ. eigenvalues --   -0.49515  -0.48988  -0.48004  -0.47395  -0.46467
 Alpha  occ. eigenvalues --   -0.46285  -0.45866  -0.45286  -0.44793  -0.44068
 Alpha  occ. eigenvalues --   -0.43994  -0.43633  -0.42959  -0.42754  -0.42209
 Alpha  occ. eigenvalues --   -0.41991  -0.41873  -0.41754  -0.41370  -0.41212
 Alpha  occ. eigenvalues --   -0.40909  -0.40795  -0.40586  -0.40464  -0.40199
 Alpha  occ. eigenvalues --   -0.40014  -0.39663  -0.39380  -0.39183  -0.39108
 Alpha  occ. eigenvalues --   -0.38962  -0.38633  -0.38546  -0.38246  -0.38189
 Alpha  occ. eigenvalues --   -0.38134  -0.37946  -0.37758  -0.37559  -0.37259
 Alpha  occ. eigenvalues --   -0.37122  -0.37026  -0.36839  -0.36342  -0.36174
 Alpha  occ. eigenvalues --   -0.35873  -0.35805  -0.35761  -0.35655  -0.35420
 Alpha  occ. eigenvalues --   -0.35120  -0.34884  -0.34808  -0.34619  -0.34398
 Alpha  occ. eigenvalues --   -0.34171  -0.34074  -0.33924  -0.33881  -0.33792
 Alpha  occ. eigenvalues --   -0.33723  -0.33408  -0.33214  -0.33133  -0.33033
 Alpha  occ. eigenvalues --   -0.32849  -0.32817  -0.32430  -0.32357  -0.32234
 Alpha  occ. eigenvalues --   -0.32047  -0.31981  -0.31950  -0.31829  -0.31367
 Alpha  occ. eigenvalues --   -0.31346  -0.31226  -0.30857  -0.30800  -0.30489
 Alpha  occ. eigenvalues --   -0.30390  -0.30340  -0.30229  -0.29929  -0.29799
 Alpha  occ. eigenvalues --   -0.29624  -0.29543  -0.28978  -0.28856  -0.28790
 Alpha  occ. eigenvalues --   -0.28732  -0.28369  -0.28264  -0.28085  -0.27772
 Alpha  occ. eigenvalues --   -0.27636  -0.27451  -0.27273  -0.26922  -0.26553
 Alpha  occ. eigenvalues --   -0.26541  -0.26260  -0.25930  -0.25582  -0.25126
 Alpha  occ. eigenvalues --   -0.24988  -0.24469  -0.23593  -0.23460  -0.23248
 Alpha  occ. eigenvalues --   -0.23150  -0.22831  -0.21431  -0.20719  -0.20414
 Alpha  occ. eigenvalues --   -0.20192  -0.20005  -0.18878  -0.18405  -0.16476
 Alpha  occ. eigenvalues --   -0.15148
 Alpha virt. eigenvalues --   -0.10786  -0.06643  -0.05921  -0.04297  -0.04026
 Alpha virt. eigenvalues --   -0.03378  -0.01748  -0.01477  -0.01362   0.00262
 Alpha virt. eigenvalues --    0.01599   0.01867   0.01895   0.02736   0.02797

 Mulliken charges:
               1
     1  Mg   0.695205
     2  C   -0.039187
     3  C   -0.054804
     4  C   -0.043993
     5  C   -0.152315
     6  N   -0.199581
     7  C   -0.106558
     8  C    0.087647
     9  C   -0.030894
    10  C    0.069357
    11  C    0.123286
    12  C    0.061873
    13  C    0.106446
    14  C    0.120627
    15  O   -0.213023
    16  O   -0.256450
    17  N   -0.307737
    18  C    0.104383
    19  C   -0.161264
    20  C    0.027568
    21  C    0.092871
    22  C    0.172155
    23  C   -0.054481
    24  O   -0.177973
    25  C    0.143773
    26  N   -0.169302
    27  C   -0.027609
    28  C    0.029401
    29  C    0.024698
    30  C    0.071594
    31  C    0.166869
    32  C    0.070806
    33  C    0.043056
    34  N   -0.256506
    35  C    0.159775
    36  C   -0.195199
    37  C    0.074223
    38  C    0.078528
    39  C    0.179735
    40  C   -0.038289
    41  O   -0.113232
    42  C    0.099187
    43  C    0.114837
    44  O   -0.178334
    45  O   -0.303677
    46  C    0.203382
    47  C    0.278562
    48  C   -0.130002
    49  C   -0.143942
    50  C    0.133978
    51  C    0.177224
    52  C    0.089038
    53  C    0.073545
    54  C   -0.079674
    55  C    0.110685
    56  C    0.116640
    57  C    0.101774
    58  C    0.038824
    59  C   -0.005102
    60  C    0.119835
    61  C    0.096942
    62  C    0.035757
    63  C    0.088123
    64  C   -0.076111
    65  C    0.093023
    66  C    0.050075
    67  H   -0.070623
    68  H   -0.048047
    69  H   -0.071015
    70  H    0.007799
    71  H   -0.036427
    72  H   -0.022882
    73  H   -0.012254
    74  H    0.022055
    75  H   -0.035711
    76  H   -0.006986
    77  H    0.015857
    78  H    0.014730
    79  H   -0.004221
    80  H    0.002156
    81  H    0.007670
    82  H    0.012636
    83  H   -0.000023
    84  H    0.006902
    85  H   -0.033616
    86  H   -0.041606
    87  H   -0.012139
    88  H   -0.011428
    89  H    0.011762
    90  H   -0.004735
    91  H   -0.025961
    92  H   -0.001234
    93  H   -0.005797
    94  H   -0.009169
    95  H   -0.014816
    96  H    0.016400
    97  H    0.009566
    98  H   -0.011930
    99  H    0.035937
   100  H    0.007272
   101  H    0.018482
   102  H    0.019816
   103  H    0.013117
   104  H   -0.036716
   105  H    0.009631
   106  H   -0.002933
   107  H   -0.030006
   108  H   -0.027828
   109  H   -0.031096
   110  H   -0.017365
   111  H   -0.028206
   112  H   -0.022927
   113  H   -0.055004
   114  H   -0.039107
   115  H   -0.037793
   116  H   -0.012984
   117  H   -0.009790
   118  H   -0.050507
   119  H   -0.027612
   120  H   -0.028302
   121  H   -0.031840
   122  H   -0.048443
   123  H   -0.040238
   124  H   -0.037690
   125  H   -0.018701
   126  H   -0.021346
   127  H   -0.031764
   128  H   -0.037966
   129  H   -0.035071
   130  H   -0.017079
   131  H   -0.026268
   132  H   -0.033976
   133  H   -0.025254
   134  H   -0.031948
   135  H   -0.020900
   136  H   -0.025560
   137  H   -0.032795
   138  H   -0.000843
   139  H    0.027759
   140  H   -0.013136
 Sum of Mulliken charges =  -0.00000

 Dipole moment (field-independent basis, Debye):
    X=              4.6256    Y=              4.1677    Z=             -2.7379  Tot=              6.8017
 Quadrupole moment (field-independent basis, Debye-Ang):
   XX=           -380.1608   YY=           -423.4872   ZZ=           -406.1349
   XY=             -1.7960   XZ=             20.1704   YZ=             -0.6046

 Normal termination of Gaussian 16 at Fri Apr 29 08:46:45 2022.
