 Gaussian 16, Revision A.03,
 Gaussian 16:  ES64L-G16RevA.03 25-Dec-2016

 -----------------------------------
 #p cam-b3lyp/Def2SVP td=(nstates=5)
 -----------------------------------

 -------------------------------------------------------
 step_201_chromophore_19 TDDFT with cam-b3lyp functional
 -------------------------------------------------------
 Symbolic Z-matrix:
 Charge =  0 Multiplicity = 1

                         Standard orientation:
 ---------------------------------------------------------------------
 Center     Atomic      Atomic             Coordinates (Angstroms)
 Number     Number       Type             X           Y           Z
 ---------------------------------------------------------------------
      1         12           0       -5.931630    0.413988   -0.317647
      2          6           0       -3.695560   -2.337736   -0.511617
      3          6           0       -3.244168    2.549271   -0.111941
      4          6           0       -8.081894    2.814521    0.639997
      5          6           0       -8.472422   -1.869445   -0.114172
      6          7           0       -3.708242    0.022407   -0.112149
      7          6           0       -2.980122   -1.103871   -0.403482
      8          6           0       -1.464586   -0.801232   -0.437332
      9          6           0       -1.421833    0.741472   -0.208362
     10          6           0       -2.917240    1.116650   -0.189758
     11          6           0       -0.464882    1.211139    0.944755
     12          6           0       -0.794376   -1.274365   -1.744736
     13          6           0        0.762176   -1.107545   -1.927062
     14          6           0        1.724782   -1.266865   -0.713778
     15          8           0        1.420543   -1.675289    0.421393
     16          8           0        2.967158   -0.828922   -1.062204
     17          7           0       -5.711885    2.451491   -0.074934
     18          6           0       -4.568884    3.154232   -0.023377
     19          6           0       -4.911098    4.639521    0.087218
     20          6           0       -6.290105    4.663534    0.432071
     21          6           0       -6.746489    3.267888    0.412835
     22          6           0       -3.840571    5.701455   -0.055566
     23          6           0       -7.163510    5.923408    0.732276
     24          8           0       -8.388204    5.852248    0.908708
     25          6           0       -6.598398    7.278392    0.660953
     26          7           0       -7.965342    0.437297    0.535562
     27          6           0       -8.722933    1.522577    0.692163
     28          6           0      -10.206837    1.184088    0.941884
     29          6           0      -10.260420   -0.218990    0.338010
     30          6           0       -8.775882   -0.580991    0.226013
     31          6           0      -10.532025    1.260666    2.452756
     32          6           0      -10.959787   -0.423513   -1.051184
     33          6           0      -12.574467   -0.405831   -0.976371
     34          7           0       -6.158761   -1.617852   -0.239169
     35          6           0       -7.240242   -2.425553   -0.336808
     36          6           0       -6.988083   -3.737777   -0.718769
     37          6           0       -5.599759   -3.785837   -0.659171
     38          6           0       -5.106859   -2.464690   -0.485411
     39          6           0       -7.932510   -4.879782   -0.929981
     40          6           0       -4.424806   -4.666762   -0.764146
     41          8           0       -4.360631   -5.834680   -1.073588
     42          6           0       -3.181990   -3.727227   -0.572392
     43          6           0       -2.422492   -4.042349    0.638328
     44          8           0       -2.757997   -4.101087    1.817665
     45          8           0       -1.130297   -4.319330    0.240152
     46          6           0       -0.098135   -4.780500    1.209556
     47          6           0        3.946295   -1.094261    0.027230
     48          6           0        5.324614   -1.003909   -0.650898
     49          6           0        6.518834   -0.912943   -0.065407
     50          6           0        6.768026   -0.918052    1.410223
     51          6           0        7.800122   -0.721474   -0.813186
     52          6           0        7.979993    0.668052   -1.406740
     53          6           0        9.258091    1.474483   -0.902279
     54          6           0       10.008792    2.311506   -1.921625
     55          6           0        9.138433    3.410902   -2.626570
     56          6           0       10.848135    1.355448   -2.815443
     57          6           0       12.342948    1.646619   -2.637220
     58          6           0       12.903692    0.567028   -1.666823
     59          6           0       14.009354    0.900238   -0.602690
     60          6           0       15.348608    0.861339   -1.232363
     61          6           0       13.929284   -0.069046    0.573039
     62          6           0       13.380290    0.549826    1.909920
     63          6           0       12.936881   -0.560019    2.950273
     64          6           0       11.540117   -0.290629    3.511647
     65          6           0       11.311142   -1.092840    4.829432
     66          6           0       10.392015   -0.544563    2.452728
     67          1           0       -2.415911    3.259343   -0.163737
     68          1           0       -8.728869    3.691681    0.697696
     69          1           0       -9.306933   -2.572993   -0.160713
     70          1           0       -1.058917   -1.421256    0.361599
     71          1           0       -0.880116    1.096334   -1.085268
     72          1           0       -1.083006    1.446893    1.811203
     73          1           0       -0.122589    2.202938    0.648555
     74          1           0        0.202770    0.420331    1.288063
     75          1           0       -1.186628   -0.496996   -2.400460
     76          1           0       -1.083937   -2.209730   -2.225324
     77          1           0        0.915469   -0.126258   -2.377592
     78          1           0        0.995000   -1.944177   -2.586108
     79          1           0       -2.815110    5.334319   -0.096401
     80          1           0       -3.871263    6.319886    0.842371
     81          1           0       -4.146490    6.331734   -0.890690
     82          1           0       -6.453675    7.287173   -0.419486
     83          1           0       -5.626906    7.422849    1.133285
     84          1           0       -7.322747    8.020981    0.995147
     85          1           0      -10.809385    1.898196    0.381715
     86          1           0      -10.796586   -0.850548    1.045926
     87          1           0       -9.529936    1.218636    2.879346
     88          1           0      -10.994341    0.338770    2.806420
     89          1           0      -10.993427    2.206552    2.738177
     90          1           0      -10.689251   -1.290464   -1.653260
     91          1           0      -10.686919    0.506291   -1.550605
     92          1           0      -13.024841   -0.389564   -1.968776
     93          1           0      -12.986074    0.422712   -0.399455
     94          1           0      -12.830813   -1.331014   -0.460467
     95          1           0       -8.995876   -4.641211   -0.911517
     96          1           0       -7.694251   -5.473089   -0.047771
     97          1           0       -7.694513   -5.470073   -1.814099
     98          1           0       -2.543001   -3.779881   -1.454173
     99          1           0        0.430019   -3.869341    1.492150
    100          1           0        0.543346   -5.501061    0.703079
    101          1           0       -0.550917   -5.340107    2.027704
    102          1           0        3.965904   -2.072502    0.507194
    103          1           0        3.894432   -0.389570    0.857109
    104          1           0        5.148772   -1.079571   -1.723527
    105          1           0        7.302419   -0.006394    1.677138
    106          1           0        7.404381   -1.703971    1.817450
    107          1           0        5.837190   -1.113029    1.941087
    108          1           0        7.679114   -1.484373   -1.582076
    109          1           0        8.607469   -1.034695   -0.149875
    110          1           0        7.131539    1.316449   -1.186808
    111          1           0        7.981849    0.641863   -2.495788
    112          1           0        9.928987    0.979932   -0.199997
    113          1           0        8.806239    2.306961   -0.362751
    114          1           0       10.623553    3.020130   -1.368445
    115          1           0        8.127114    3.157264   -2.308069
    116          1           0        9.140633    3.321252   -3.713038
    117          1           0        9.310174    4.410269   -2.226557
    118          1           0       10.670285    1.432521   -3.888344
    119          1           0       10.603645    0.316348   -2.595290
    120          1           0       12.491216    2.636802   -2.206913
    121          1           0       12.852990    1.606226   -3.600612
    122          1           0       13.260565   -0.226773   -2.323352
    123          1           0       12.081479   -0.026051   -1.268491
    124          1           0       13.865884    1.901129   -0.197332
    125          1           0       15.273709    1.030415   -2.307092
    126          1           0       15.973297   -0.013100   -1.046970
    127          1           0       15.964916    1.647213   -0.797039
    128          1           0       14.901445   -0.527397    0.756454
    129          1           0       13.241235   -0.890693    0.373100
    130          1           0       12.524729    1.181382    1.669424
    131          1           0       14.102640    1.115285    2.499067
    132          1           0       13.650434   -0.471770    3.769986
    133          1           0       13.011978   -1.568163    2.543048
    134          1           0       11.458588    0.765816    3.765985
    135          1           0       11.241780   -0.489715    5.734325
    136          1           0       12.050192   -1.837287    5.127243
    137          1           0       10.411608   -1.708656    4.835130
    138          1           0        9.878487   -1.503592    2.503802
    139          1           0       10.903588   -0.256193    1.534217
    140          1           0        9.581198    0.139667    2.699815
 ---------------------------------------------------------------------

 SCF Done:  E(RCAM-B3LYP) =  -3007.12660304     A.U. after   19 cycles

 Excitation energies and oscillator strengths:

 Excited State   1:      Singlet-A      1.7228 eV  719.66 nm  f=0.3485  <S**2>=0.000
     245 -> 248        0.19959
     246 -> 247        0.67993
     245 <- 248        0.11055
 This state for optimization and/or second-order correction.
 Total Energy, E(TD-HF/TD-DFT) =  -3007.06329113
 Copying the excited state density for this state as the 1-particle RhoCI density.

 Excited State   2:      Singlet-A      2.2054 eV  562.19 nm  f=0.0810  <S**2>=0.000
     245 -> 247        0.62396
     246 -> 248       -0.32301

 Excited State   3:      Singlet-A      3.4110 eV  363.48 nm  f=0.6939  <S**2>=0.000
     240 -> 247        0.12132
     242 -> 247        0.12133
     245 -> 247        0.30340
     246 -> 248        0.60980
     245 <- 247       -0.11124

 Excited State   4:      Singlet-A      3.5528 eV  348.97 nm  f=0.0022  <S**2>=0.000
     241 -> 251       -0.11072
     242 -> 247       -0.12870
     244 -> 247        0.64543

 Excited State   5:      Singlet-A      3.6290 eV  341.65 nm  f=0.0144  <S**2>=0.000
     246 -> 249       -0.21235
     246 -> 250        0.65599

 The electronic state is 1-A.
 Alpha  occ. eigenvalues --  -46.89164 -19.27234 -19.22937 -19.21300 -19.19210
 Alpha  occ. eigenvalues --  -19.18431 -19.18361 -14.41972 -14.41314 -14.39828
 Alpha  occ. eigenvalues --  -14.38180 -10.41084 -10.38118 -10.35979 -10.34286
 Alpha  occ. eigenvalues --  -10.32822 -10.31797 -10.30904 -10.30833 -10.30779
 Alpha  occ. eigenvalues --  -10.30766 -10.30374 -10.29640 -10.28959 -10.28908
 Alpha  occ. eigenvalues --  -10.28289 -10.27996 -10.27920 -10.27718 -10.27625
 Alpha  occ. eigenvalues --  -10.27447 -10.27416 -10.27390 -10.27342 -10.27207
 Alpha  occ. eigenvalues --  -10.26927 -10.26820 -10.26750 -10.26715 -10.26627
 Alpha  occ. eigenvalues --  -10.26500 -10.26454 -10.26115 -10.26068 -10.25823
 Alpha  occ. eigenvalues --  -10.25777 -10.25718 -10.25649 -10.25572 -10.25565
 Alpha  occ. eigenvalues --  -10.25554 -10.25472 -10.25342 -10.25288 -10.25270
 Alpha  occ. eigenvalues --  -10.24986 -10.24943 -10.24879 -10.24841 -10.24830
 Alpha  occ. eigenvalues --  -10.24808 -10.24545 -10.24539 -10.24457 -10.24144
 Alpha  occ. eigenvalues --  -10.23881  -3.17641  -1.92497  -1.92127  -1.91934
 Alpha  occ. eigenvalues --   -1.17599  -1.14021  -1.09792  -1.09735  -1.08331
 Alpha  occ. eigenvalues --   -1.05442  -1.04938  -1.03651  -1.02986  -1.02294
 Alpha  occ. eigenvalues --   -0.92503  -0.91200  -0.90110  -0.89426  -0.88984
 Alpha  occ. eigenvalues --   -0.88608  -0.87745  -0.87546  -0.87326  -0.86731
 Alpha  occ. eigenvalues --   -0.86092  -0.85401  -0.84250  -0.83322  -0.83061
 Alpha  occ. eigenvalues --   -0.82799  -0.82153  -0.81197  -0.80810  -0.80227
 Alpha  occ. eigenvalues --   -0.79512  -0.78215  -0.77934  -0.76789  -0.76186
 Alpha  occ. eigenvalues --   -0.75828  -0.75493  -0.74876  -0.74750  -0.74299
 Alpha  occ. eigenvalues --   -0.73486  -0.72188  -0.71162  -0.70512  -0.69026
 Alpha  occ. eigenvalues --   -0.68828  -0.67874  -0.67764  -0.66753  -0.65729
 Alpha  occ. eigenvalues --   -0.65383  -0.64846  -0.64451  -0.64391  -0.64192
 Alpha  occ. eigenvalues --   -0.63420  -0.62879  -0.61770  -0.61071  -0.60086
 Alpha  occ. eigenvalues --   -0.59879  -0.59365  -0.58835  -0.58188  -0.57467
 Alpha  occ. eigenvalues --   -0.57401  -0.56869  -0.56428  -0.55959  -0.55250
 Alpha  occ. eigenvalues --   -0.55043  -0.54895  -0.54652  -0.54141  -0.53948
 Alpha  occ. eigenvalues --   -0.53829  -0.53576  -0.53488  -0.53232  -0.53070
 Alpha  occ. eigenvalues --   -0.52613  -0.52489  -0.52033  -0.51815  -0.51535
 Alpha  occ. eigenvalues --   -0.51420  -0.51294  -0.51057  -0.50947  -0.50726
 Alpha  occ. eigenvalues --   -0.50397  -0.50207  -0.50088  -0.49860  -0.49647
 Alpha  occ. eigenvalues --   -0.49380  -0.49194  -0.49116  -0.49069  -0.48619
 Alpha  occ. eigenvalues --   -0.48505  -0.48263  -0.47883  -0.47734  -0.47455
 Alpha  occ. eigenvalues --   -0.47191  -0.47084  -0.46681  -0.46569  -0.46422
 Alpha  occ. eigenvalues --   -0.46078  -0.45933  -0.45864  -0.45601  -0.45492
 Alpha  occ. eigenvalues --   -0.45453  -0.45256  -0.44978  -0.44918  -0.44714
 Alpha  occ. eigenvalues --   -0.44690  -0.44332  -0.44188  -0.43895  -0.43871
 Alpha  occ. eigenvalues --   -0.43720  -0.43645  -0.43615  -0.43404  -0.43076
 Alpha  occ. eigenvalues --   -0.42801  -0.42682  -0.42155  -0.42029  -0.41961
 Alpha  occ. eigenvalues --   -0.41733  -0.41657  -0.41563  -0.41459  -0.40993
 Alpha  occ. eigenvalues --   -0.40916  -0.40798  -0.40236  -0.40010  -0.39982
 Alpha  occ. eigenvalues --   -0.39697  -0.39602  -0.39365  -0.39188  -0.39066
 Alpha  occ. eigenvalues --   -0.38602  -0.38546  -0.38247  -0.37911  -0.37835
 Alpha  occ. eigenvalues --   -0.37260  -0.36964  -0.36565  -0.36385  -0.35916
 Alpha  occ. eigenvalues --   -0.35532  -0.34928  -0.34907  -0.34791  -0.34422
 Alpha  occ. eigenvalues --   -0.33643  -0.33210  -0.32492  -0.31383  -0.30593
 Alpha  occ. eigenvalues --   -0.30229  -0.29939  -0.29855  -0.29116  -0.23217
 Alpha  occ. eigenvalues --   -0.20429
 Alpha virt. eigenvalues --   -0.07711  -0.01612   0.00630   0.01561   0.03078
 Alpha virt. eigenvalues --    0.03770   0.05650   0.05757   0.06439   0.07204
 Alpha virt. eigenvalues --    0.08000   0.08404   0.08534   0.08916   0.09182

 Mulliken charges:
               1
     1  Mg   0.826465
     2  C   -0.065523
     3  C   -0.073585
     4  C   -0.063129
     5  C   -0.144055
     6  N   -0.267707
     7  C   -0.063193
     8  C    0.040730
     9  C   -0.087921
    10  C    0.090777
    11  C    0.066815
    12  C    0.018592
    13  C    0.038112
    14  C    0.196498
    15  O   -0.257613
    16  O   -0.320699
    17  N   -0.393994
    18  C    0.117194
    19  C   -0.162822
    20  C   -0.037679
    21  C    0.116023
    22  C    0.114713
    23  C    0.026894
    24  O   -0.218898
    25  C    0.062394
    26  N   -0.233235
    27  C   -0.011055
    28  C   -0.022979
    29  C   -0.030034
    30  C    0.074207
    31  C    0.106841
    32  C    0.018128
    33  C   -0.012374
    34  N   -0.345905
    35  C    0.154802
    36  C   -0.193537
    37  C   -0.002342
    38  C    0.110365
    39  C    0.129639
    40  C    0.060409
    41  O   -0.153785
    42  C    0.014968
    43  C    0.207621
    44  O   -0.216459
    45  O   -0.368889
    46  C    0.170494
    47  C    0.247966
    48  C   -0.147612
    49  C   -0.166277
    50  C    0.074080
    51  C    0.117660
    52  C    0.031152
    53  C    0.024851
    54  C   -0.130900
    55  C    0.051776
    56  C    0.057974
    57  C    0.048078
    58  C   -0.010896
    59  C   -0.065929
    60  C    0.059736
    61  C    0.047573
    62  C   -0.016788
    63  C    0.033249
    64  C   -0.133246
    65  C    0.031321
    66  C    0.005606
    67  H   -0.037734
    68  H   -0.006325
    69  H   -0.035419
    70  H    0.040425
    71  H   -0.002694
    72  H    0.005014
    73  H    0.010528
    74  H    0.047043
    75  H   -0.005525
    76  H    0.021178
    77  H    0.045559
    78  H    0.047229
    79  H    0.025202
    80  H    0.027632
    81  H    0.034540
    82  H    0.037663
    83  H    0.028000
    84  H    0.042634
    85  H    0.001976
    86  H   -0.007270
    87  H    0.014760
    88  H    0.014616
    89  H    0.036182
    90  H    0.023990
    91  H   -0.000317
    92  H    0.022549
    93  H    0.014829
    94  H    0.012086
    95  H    0.008836
    96  H    0.041251
    97  H    0.035115
    98  H    0.033733
    99  H    0.056175
   100  H    0.029040
   101  H    0.043122
   102  H    0.047288
   103  H    0.038455
   104  H    0.000259
   105  H    0.030222
   106  H    0.021352
   107  H   -0.005341
   108  H    0.004384
   109  H   -0.003254
   110  H    0.011625
   111  H    0.000367
   112  H   -0.001147
   113  H   -0.024039
   114  H   -0.006192
   115  H   -0.014425
   116  H    0.011824
   117  H    0.015109
   118  H   -0.019528
   119  H   -0.000475
   120  H   -0.001390
   121  H   -0.002831
   122  H   -0.017841
   123  H   -0.015027
   124  H   -0.005754
   125  H    0.005403
   126  H    0.003648
   127  H   -0.005637
   128  H   -0.008267
   129  H   -0.007711
   130  H    0.006359
   131  H    0.002134
   132  H   -0.003611
   133  H    0.002692
   134  H    0.000468
   135  H    0.003975
   136  H   -0.000009
   137  H   -0.007847
   138  H    0.019194
   139  H    0.036693
   140  H    0.008615
 Sum of Mulliken charges =  -0.00000

 Dipole moment (field-independent basis, Debye):
    X=              4.7052    Y=              5.2307    Z=             -2.7475  Tot=              7.5530
 Quadrupole moment (field-independent basis, Debye-Ang):
   XX=           -379.1830   YY=           -418.6475   ZZ=           -405.9239
   XY=             -8.0138   XZ=             20.6710   YZ=             -0.2821

 Normal termination of Gaussian 16 at Fri Apr 29 07:38:45 2022.
