 Gaussian 16, Revision A.03,
 Gaussian 16:  ES64L-G16RevA.03 25-Dec-2016

 ---------------------------------
 #p PBE1PBE/Def2SVP td=(nstates=5)
 ---------------------------------

 -----------------------------------------------------
 step_201_chromophore_19 TDDFT with PBE1PBE functional
 -----------------------------------------------------
 Symbolic Z-matrix:
 Charge =  0 Multiplicity = 1

                         Standard orientation:
 ---------------------------------------------------------------------
 Center     Atomic      Atomic             Coordinates (Angstroms)
 Number     Number       Type             X           Y           Z
 ---------------------------------------------------------------------
      1         12           0       -5.931630    0.413988   -0.317647
      2          6           0       -3.695560   -2.337736   -0.511617
      3          6           0       -3.244168    2.549271   -0.111941
      4          6           0       -8.081894    2.814521    0.639997
      5          6           0       -8.472422   -1.869445   -0.114172
      6          7           0       -3.708242    0.022407   -0.112149
      7          6           0       -2.980122   -1.103871   -0.403482
      8          6           0       -1.464586   -0.801232   -0.437332
      9          6           0       -1.421833    0.741472   -0.208362
     10          6           0       -2.917240    1.116650   -0.189758
     11          6           0       -0.464882    1.211139    0.944755
     12          6           0       -0.794376   -1.274365   -1.744736
     13          6           0        0.762176   -1.107545   -1.927062
     14          6           0        1.724782   -1.266865   -0.713778
     15          8           0        1.420543   -1.675289    0.421393
     16          8           0        2.967158   -0.828922   -1.062204
     17          7           0       -5.711885    2.451491   -0.074934
     18          6           0       -4.568884    3.154232   -0.023377
     19          6           0       -4.911098    4.639521    0.087218
     20          6           0       -6.290105    4.663534    0.432071
     21          6           0       -6.746489    3.267888    0.412835
     22          6           0       -3.840571    5.701455   -0.055566
     23          6           0       -7.163510    5.923408    0.732276
     24          8           0       -8.388204    5.852248    0.908708
     25          6           0       -6.598398    7.278392    0.660953
     26          7           0       -7.965342    0.437297    0.535562
     27          6           0       -8.722933    1.522577    0.692163
     28          6           0      -10.206837    1.184088    0.941884
     29          6           0      -10.260420   -0.218990    0.338010
     30          6           0       -8.775882   -0.580991    0.226013
     31          6           0      -10.532025    1.260666    2.452756
     32          6           0      -10.959787   -0.423513   -1.051184
     33          6           0      -12.574467   -0.405831   -0.976371
     34          7           0       -6.158761   -1.617852   -0.239169
     35          6           0       -7.240242   -2.425553   -0.336808
     36          6           0       -6.988083   -3.737777   -0.718769
     37          6           0       -5.599759   -3.785837   -0.659171
     38          6           0       -5.106859   -2.464690   -0.485411
     39          6           0       -7.932510   -4.879782   -0.929981
     40          6           0       -4.424806   -4.666762   -0.764146
     41          8           0       -4.360631   -5.834680   -1.073588
     42          6           0       -3.181990   -3.727227   -0.572392
     43          6           0       -2.422492   -4.042349    0.638328
     44          8           0       -2.757997   -4.101087    1.817665
     45          8           0       -1.130297   -4.319330    0.240152
     46          6           0       -0.098135   -4.780500    1.209556
     47          6           0        3.946295   -1.094261    0.027230
     48          6           0        5.324614   -1.003909   -0.650898
     49          6           0        6.518834   -0.912943   -0.065407
     50          6           0        6.768026   -0.918052    1.410223
     51          6           0        7.800122   -0.721474   -0.813186
     52          6           0        7.979993    0.668052   -1.406740
     53          6           0        9.258091    1.474483   -0.902279
     54          6           0       10.008792    2.311506   -1.921625
     55          6           0        9.138433    3.410902   -2.626570
     56          6           0       10.848135    1.355448   -2.815443
     57          6           0       12.342948    1.646619   -2.637220
     58          6           0       12.903692    0.567028   -1.666823
     59          6           0       14.009354    0.900238   -0.602690
     60          6           0       15.348608    0.861339   -1.232363
     61          6           0       13.929284   -0.069046    0.573039
     62          6           0       13.380290    0.549826    1.909920
     63          6           0       12.936881   -0.560019    2.950273
     64          6           0       11.540117   -0.290629    3.511647
     65          6           0       11.311142   -1.092840    4.829432
     66          6           0       10.392015   -0.544563    2.452728
     67          1           0       -2.415911    3.259343   -0.163737
     68          1           0       -8.728869    3.691681    0.697696
     69          1           0       -9.306933   -2.572993   -0.160713
     70          1           0       -1.058917   -1.421256    0.361599
     71          1           0       -0.880116    1.096334   -1.085268
     72          1           0       -1.083006    1.446893    1.811203
     73          1           0       -0.122589    2.202938    0.648555
     74          1           0        0.202770    0.420331    1.288063
     75          1           0       -1.186628   -0.496996   -2.400460
     76          1           0       -1.083937   -2.209730   -2.225324
     77          1           0        0.915469   -0.126258   -2.377592
     78          1           0        0.995000   -1.944177   -2.586108
     79          1           0       -2.815110    5.334319   -0.096401
     80          1           0       -3.871263    6.319886    0.842371
     81          1           0       -4.146490    6.331734   -0.890690
     82          1           0       -6.453675    7.287173   -0.419486
     83          1           0       -5.626906    7.422849    1.133285
     84          1           0       -7.322747    8.020981    0.995147
     85          1           0      -10.809385    1.898196    0.381715
     86          1           0      -10.796586   -0.850548    1.045926
     87          1           0       -9.529936    1.218636    2.879346
     88          1           0      -10.994341    0.338770    2.806420
     89          1           0      -10.993427    2.206552    2.738177
     90          1           0      -10.689251   -1.290464   -1.653260
     91          1           0      -10.686919    0.506291   -1.550605
     92          1           0      -13.024841   -0.389564   -1.968776
     93          1           0      -12.986074    0.422712   -0.399455
     94          1           0      -12.830813   -1.331014   -0.460467
     95          1           0       -8.995876   -4.641211   -0.911517
     96          1           0       -7.694251   -5.473089   -0.047771
     97          1           0       -7.694513   -5.470073   -1.814099
     98          1           0       -2.543001   -3.779881   -1.454173
     99          1           0        0.430019   -3.869341    1.492150
    100          1           0        0.543346   -5.501061    0.703079
    101          1           0       -0.550917   -5.340107    2.027704
    102          1           0        3.965904   -2.072502    0.507194
    103          1           0        3.894432   -0.389570    0.857109
    104          1           0        5.148772   -1.079571   -1.723527
    105          1           0        7.302419   -0.006394    1.677138
    106          1           0        7.404381   -1.703971    1.817450
    107          1           0        5.837190   -1.113029    1.941087
    108          1           0        7.679114   -1.484373   -1.582076
    109          1           0        8.607469   -1.034695   -0.149875
    110          1           0        7.131539    1.316449   -1.186808
    111          1           0        7.981849    0.641863   -2.495788
    112          1           0        9.928987    0.979932   -0.199997
    113          1           0        8.806239    2.306961   -0.362751
    114          1           0       10.623553    3.020130   -1.368445
    115          1           0        8.127114    3.157264   -2.308069
    116          1           0        9.140633    3.321252   -3.713038
    117          1           0        9.310174    4.410269   -2.226557
    118          1           0       10.670285    1.432521   -3.888344
    119          1           0       10.603645    0.316348   -2.595290
    120          1           0       12.491216    2.636802   -2.206913
    121          1           0       12.852990    1.606226   -3.600612
    122          1           0       13.260565   -0.226773   -2.323352
    123          1           0       12.081479   -0.026051   -1.268491
    124          1           0       13.865884    1.901129   -0.197332
    125          1           0       15.273709    1.030415   -2.307092
    126          1           0       15.973297   -0.013100   -1.046970
    127          1           0       15.964916    1.647213   -0.797039
    128          1           0       14.901445   -0.527397    0.756454
    129          1           0       13.241235   -0.890693    0.373100
    130          1           0       12.524729    1.181382    1.669424
    131          1           0       14.102640    1.115285    2.499067
    132          1           0       13.650434   -0.471770    3.769986
    133          1           0       13.011978   -1.568163    2.543048
    134          1           0       11.458588    0.765816    3.765985
    135          1           0       11.241780   -0.489715    5.734325
    136          1           0       12.050192   -1.837287    5.127243
    137          1           0       10.411608   -1.708656    4.835130
    138          1           0        9.878487   -1.503592    2.503802
    139          1           0       10.903588   -0.256193    1.534217
    140          1           0        9.581198    0.139667    2.699815
 ---------------------------------------------------------------------

 SCF Done:  E(RPBE1PBE) =  -3005.31624350     A.U. after   16 cycles

 Excitation energies and oscillator strengths:

 Excited State   1:      Singlet-A      1.8606 eV  666.37 nm  f=0.3395  <S**2>=0.000
     245 -> 248        0.19426
     246 -> 247        0.68623
 This state for optimization and/or second-order correction.
 Total Energy, E(TD-HF/TD-DFT) =  -3005.24786781
 Copying the excited state density for this state as the 1-particle RhoCI density.

 Excited State   2:      Singlet-A      2.2033 eV  562.72 nm  f=0.0861  <S**2>=0.000
     245 -> 247        0.63969
     246 -> 248       -0.29372

 Excited State   3:      Singlet-A      3.1092 eV  398.77 nm  f=0.0024  <S**2>=0.000
     242 -> 247       -0.25371
     244 -> 247        0.62488

 Excited State   4:      Singlet-A      3.2226 eV  384.74 nm  f=0.3554  <S**2>=0.000
     239 -> 247        0.16076
     241 -> 247        0.16909
     242 -> 247        0.23369
     245 -> 247        0.22673
     246 -> 248        0.54864
     246 -> 249        0.12664

 Excited State   5:      Singlet-A      3.2612 eV  380.18 nm  f=0.0479  <S**2>=0.000
     242 -> 247        0.57889
     244 -> 247        0.29202
     246 -> 248       -0.18207

 The electronic state is 1-A.
 Alpha  occ. eigenvalues --  -46.92573 -19.27936 -19.23669 -19.21616 -19.19289
 Alpha  occ. eigenvalues --  -19.18841 -19.18640 -14.41541 -14.40731 -14.39389
 Alpha  occ. eigenvalues --  -14.37955 -10.38151 -10.35172 -10.32963 -10.31605
 Alpha  occ. eigenvalues --  -10.30272 -10.29388 -10.28696 -10.28378 -10.28372
 Alpha  occ. eigenvalues --  -10.28363 -10.27644 -10.27099 -10.26851 -10.26451
 Alpha  occ. eigenvalues --  -10.25898 -10.25765 -10.25514 -10.25356 -10.25303
 Alpha  occ. eigenvalues --  -10.25261 -10.25202 -10.25195 -10.25135 -10.25077
 Alpha  occ. eigenvalues --  -10.24694 -10.24651 -10.24392 -10.24353 -10.24322
 Alpha  occ. eigenvalues --  -10.24137 -10.23901 -10.23640 -10.23499 -10.23383
 Alpha  occ. eigenvalues --  -10.23339 -10.23297 -10.23283 -10.23111 -10.23051
 Alpha  occ. eigenvalues --  -10.23017 -10.23007 -10.22942 -10.22912 -10.22681
 Alpha  occ. eigenvalues --  -10.22577 -10.22511 -10.22506 -10.22402 -10.22350
 Alpha  occ. eigenvalues --  -10.22239 -10.22129 -10.22121 -10.22118 -10.21858
 Alpha  occ. eigenvalues --  -10.21237  -3.14630  -1.87425  -1.87034  -1.86846
 Alpha  occ. eigenvalues --   -1.12429  -1.08828  -1.04670  -1.04357  -1.03197
 Alpha  occ. eigenvalues --   -1.00317  -0.99582  -0.98395  -0.97684  -0.96864
 Alpha  occ. eigenvalues --   -0.86982  -0.85339  -0.84203  -0.83664  -0.83094
 Alpha  occ. eigenvalues --   -0.82913  -0.81851  -0.81800  -0.81469  -0.81203
 Alpha  occ. eigenvalues --   -0.80415  -0.79646  -0.78438  -0.77553  -0.77288
 Alpha  occ. eigenvalues --   -0.76895  -0.76411  -0.75381  -0.75100  -0.74433
 Alpha  occ. eigenvalues --   -0.73845  -0.72463  -0.72256  -0.71119  -0.70307
 Alpha  occ. eigenvalues --   -0.69969  -0.69884  -0.69109  -0.69007  -0.68484
 Alpha  occ. eigenvalues --   -0.67800  -0.66681  -0.65544  -0.64893  -0.63346
 Alpha  occ. eigenvalues --   -0.63102  -0.62352  -0.61997  -0.61119  -0.59944
 Alpha  occ. eigenvalues --   -0.59877  -0.59243  -0.58979  -0.58881  -0.58288
 Alpha  occ. eigenvalues --   -0.58017  -0.57088  -0.56029  -0.55678  -0.54538
 Alpha  occ. eigenvalues --   -0.54353  -0.53865  -0.53453  -0.52802  -0.52063
 Alpha  occ. eigenvalues --   -0.51920  -0.51416  -0.50893  -0.50539  -0.49850
 Alpha  occ. eigenvalues --   -0.49572  -0.49238  -0.49205  -0.48728  -0.48384
 Alpha  occ. eigenvalues --   -0.48311  -0.48127  -0.47972  -0.47577  -0.47504
 Alpha  occ. eigenvalues --   -0.47134  -0.47006  -0.46588  -0.46400  -0.46044
 Alpha  occ. eigenvalues --   -0.45970  -0.45955  -0.45587  -0.45523  -0.45272
 Alpha  occ. eigenvalues --   -0.44948  -0.44801  -0.44751  -0.44413  -0.44186
 Alpha  occ. eigenvalues --   -0.43963  -0.43824  -0.43664  -0.43624  -0.43217
 Alpha  occ. eigenvalues --   -0.43093  -0.42812  -0.42544  -0.42310  -0.42129
 Alpha  occ. eigenvalues --   -0.41849  -0.41775  -0.41322  -0.41195  -0.41113
 Alpha  occ. eigenvalues --   -0.40841  -0.40632  -0.40599  -0.40334  -0.40262
 Alpha  occ. eigenvalues --   -0.40088  -0.40021  -0.39806  -0.39747  -0.39490
 Alpha  occ. eigenvalues --   -0.39271  -0.39004  -0.38922  -0.38693  -0.38599
 Alpha  occ. eigenvalues --   -0.38570  -0.38530  -0.38393  -0.38071  -0.37871
 Alpha  occ. eigenvalues --   -0.37667  -0.37451  -0.37051  -0.36829  -0.36781
 Alpha  occ. eigenvalues --   -0.36625  -0.36395  -0.36308  -0.36186  -0.35886
 Alpha  occ. eigenvalues --   -0.35720  -0.35638  -0.35133  -0.34884  -0.34762
 Alpha  occ. eigenvalues --   -0.34536  -0.34485  -0.34320  -0.34114  -0.33890
 Alpha  occ. eigenvalues --   -0.33495  -0.33484  -0.32997  -0.32913  -0.32654
 Alpha  occ. eigenvalues --   -0.32102  -0.31819  -0.31498  -0.31408  -0.30986
 Alpha  occ. eigenvalues --   -0.30446  -0.29899  -0.29840  -0.29763  -0.29620
 Alpha  occ. eigenvalues --   -0.28541  -0.28270  -0.27793  -0.26207  -0.25939
 Alpha  occ. eigenvalues --   -0.25555  -0.25367  -0.25135  -0.24784  -0.20156
 Alpha  occ. eigenvalues --   -0.18063
 Alpha virt. eigenvalues --   -0.10282  -0.05066  -0.03599  -0.01462  -0.01100
 Alpha virt. eigenvalues --   -0.00903   0.01232   0.01328   0.01729   0.03273
 Alpha virt. eigenvalues --    0.04556   0.04766   0.04959   0.05486   0.05733

 Mulliken charges:
               1
     1  Mg   0.970195
     2  C   -0.078361
     3  C   -0.062376
     4  C   -0.057691
     5  C   -0.118284
     6  N   -0.366236
     7  C    0.013532
     8  C   -0.031925
     9  C   -0.161102
    10  C    0.118107
    11  C    0.006659
    12  C   -0.029059
    13  C   -0.036615
    14  C    0.256692
    15  O   -0.290110
    16  O   -0.350546
    17  N   -0.500584
    18  C    0.136290
    19  C   -0.185067
    20  C   -0.087495
    21  C    0.136626
    22  C    0.052740
    23  C    0.075167
    24  O   -0.256086
    25  C   -0.010414
    26  N   -0.329903
    27  C    0.017186
    28  C   -0.101892
    29  C   -0.100343
    30  C    0.101769
    31  C    0.051495
    32  C   -0.043904
    33  C   -0.083434
    34  N   -0.472295
    35  C    0.163182
    36  C   -0.201759
    37  C   -0.054891
    38  C    0.162730
    39  C    0.075675
    40  C    0.162502
    41  O   -0.199667
    42  C   -0.101156
    43  C    0.302749
    44  O   -0.254315
    45  O   -0.400896
    46  C    0.116510
    47  C    0.207642
    48  C   -0.153738
    49  C   -0.215981
    50  C    0.007989
    51  C    0.052115
    52  C   -0.026795
    53  C   -0.051144
    54  C   -0.206654
    55  C   -0.009450
    56  C    0.001263
    57  C   -0.016982
    58  C   -0.060327
    59  C   -0.160922
    60  C    0.002780
    61  C    0.000271
    62  C   -0.084443
    63  C   -0.021547
    64  C   -0.226360
    65  C   -0.024668
    66  C   -0.062126
    67  H   -0.003761
    68  H    0.027148
    69  H   -0.003315
    70  H    0.082176
    71  H    0.036236
    72  H    0.034809
    73  H    0.037403
    74  H    0.074363
    75  H    0.030400
    76  H    0.052894
    77  H    0.074701
    78  H    0.079557
    79  H    0.050677
    80  H    0.054858
    81  H    0.061853
    82  H    0.065639
    83  H    0.054032
    84  H    0.068716
    85  H    0.038481
    86  H    0.029850
    87  H    0.044583
    88  H    0.041318
    89  H    0.063070
    90  H    0.054689
    91  H    0.035591
    92  H    0.050604
    93  H    0.042883
    94  H    0.040321
    95  H    0.035912
    96  H    0.070015
    97  H    0.062988
    98  H    0.074163
    99  H    0.079700
   100  H    0.051042
   101  H    0.063808
   102  H    0.073752
   103  H    0.064635
   104  H    0.030625
   105  H    0.059959
   106  H    0.049883
   107  H    0.022477
   108  H    0.037876
   109  H    0.031082
   110  H    0.042816
   111  H    0.032332
   112  H    0.041235
   113  H    0.012433
   114  H    0.031263
   115  H    0.015352
   116  H    0.038948
   117  H    0.042078
   118  H    0.013067
   119  H    0.032958
   120  H    0.031226
   121  H    0.029172
   122  H    0.016278
   123  H    0.016292
   124  H    0.031686
   125  H    0.033710
   126  H    0.030078
   127  H    0.022775
   128  H    0.024561
   129  H    0.023835
   130  H    0.039083
   131  H    0.035334
   132  H    0.030472
   133  H    0.034341
   134  H    0.038506
   135  H    0.031430
   136  H    0.026524
   137  H    0.019281
   138  H    0.045944
   139  H    0.067405
   140  H    0.037571
 Sum of Mulliken charges =  -0.00000

 Dipole moment (field-independent basis, Debye):
    X=              4.6714    Y=              4.7857    Z=             -2.8133  Tot=              7.2553
 Quadrupole moment (field-independent basis, Debye-Ang):
   XX=           -373.2816   YY=           -416.4504   ZZ=           -403.2442
   XY=             -4.5598   XZ=             21.2461   YZ=             -0.3376

 Normal termination of Gaussian 16 at Fri Apr 29 08:00:48 2022.
