 Gaussian 16, Revision A.03,
 Gaussian 16:  ES64L-G16RevA.03 25-Dec-2016

 --------------------------------
 #p wB97XD/Def2SVP td=(nstates=5)
 --------------------------------

 ----------------------------------------------------
 step_201_chromophore_19 TDDFT with wB97XD functional
 ----------------------------------------------------
 Symbolic Z-matrix:
 Charge =  0 Multiplicity = 1

                         Standard orientation:
 ---------------------------------------------------------------------
 Center     Atomic      Atomic             Coordinates (Angstroms)
 Number     Number       Type             X           Y           Z
 ---------------------------------------------------------------------
      1         12           0       -5.931630    0.413988   -0.317647
      2          6           0       -3.695560   -2.337736   -0.511617
      3          6           0       -3.244168    2.549271   -0.111941
      4          6           0       -8.081894    2.814521    0.639997
      5          6           0       -8.472422   -1.869445   -0.114172
      6          7           0       -3.708242    0.022407   -0.112149
      7          6           0       -2.980122   -1.103871   -0.403482
      8          6           0       -1.464586   -0.801232   -0.437332
      9          6           0       -1.421833    0.741472   -0.208362
     10          6           0       -2.917240    1.116650   -0.189758
     11          6           0       -0.464882    1.211139    0.944755
     12          6           0       -0.794376   -1.274365   -1.744736
     13          6           0        0.762176   -1.107545   -1.927062
     14          6           0        1.724782   -1.266865   -0.713778
     15          8           0        1.420543   -1.675289    0.421393
     16          8           0        2.967158   -0.828922   -1.062204
     17          7           0       -5.711885    2.451491   -0.074934
     18          6           0       -4.568884    3.154232   -0.023377
     19          6           0       -4.911098    4.639521    0.087218
     20          6           0       -6.290105    4.663534    0.432071
     21          6           0       -6.746489    3.267888    0.412835
     22          6           0       -3.840571    5.701455   -0.055566
     23          6           0       -7.163510    5.923408    0.732276
     24          8           0       -8.388204    5.852248    0.908708
     25          6           0       -6.598398    7.278392    0.660953
     26          7           0       -7.965342    0.437297    0.535562
     27          6           0       -8.722933    1.522577    0.692163
     28          6           0      -10.206837    1.184088    0.941884
     29          6           0      -10.260420   -0.218990    0.338010
     30          6           0       -8.775882   -0.580991    0.226013
     31          6           0      -10.532025    1.260666    2.452756
     32          6           0      -10.959787   -0.423513   -1.051184
     33          6           0      -12.574467   -0.405831   -0.976371
     34          7           0       -6.158761   -1.617852   -0.239169
     35          6           0       -7.240242   -2.425553   -0.336808
     36          6           0       -6.988083   -3.737777   -0.718769
     37          6           0       -5.599759   -3.785837   -0.659171
     38          6           0       -5.106859   -2.464690   -0.485411
     39          6           0       -7.932510   -4.879782   -0.929981
     40          6           0       -4.424806   -4.666762   -0.764146
     41          8           0       -4.360631   -5.834680   -1.073588
     42          6           0       -3.181990   -3.727227   -0.572392
     43          6           0       -2.422492   -4.042349    0.638328
     44          8           0       -2.757997   -4.101087    1.817665
     45          8           0       -1.130297   -4.319330    0.240152
     46          6           0       -0.098135   -4.780500    1.209556
     47          6           0        3.946295   -1.094261    0.027230
     48          6           0        5.324614   -1.003909   -0.650898
     49          6           0        6.518834   -0.912943   -0.065407
     50          6           0        6.768026   -0.918052    1.410223
     51          6           0        7.800122   -0.721474   -0.813186
     52          6           0        7.979993    0.668052   -1.406740
     53          6           0        9.258091    1.474483   -0.902279
     54          6           0       10.008792    2.311506   -1.921625
     55          6           0        9.138433    3.410902   -2.626570
     56          6           0       10.848135    1.355448   -2.815443
     57          6           0       12.342948    1.646619   -2.637220
     58          6           0       12.903692    0.567028   -1.666823
     59          6           0       14.009354    0.900238   -0.602690
     60          6           0       15.348608    0.861339   -1.232363
     61          6           0       13.929284   -0.069046    0.573039
     62          6           0       13.380290    0.549826    1.909920
     63          6           0       12.936881   -0.560019    2.950273
     64          6           0       11.540117   -0.290629    3.511647
     65          6           0       11.311142   -1.092840    4.829432
     66          6           0       10.392015   -0.544563    2.452728
     67          1           0       -2.415911    3.259343   -0.163737
     68          1           0       -8.728869    3.691681    0.697696
     69          1           0       -9.306933   -2.572993   -0.160713
     70          1           0       -1.058917   -1.421256    0.361599
     71          1           0       -0.880116    1.096334   -1.085268
     72          1           0       -1.083006    1.446893    1.811203
     73          1           0       -0.122589    2.202938    0.648555
     74          1           0        0.202770    0.420331    1.288063
     75          1           0       -1.186628   -0.496996   -2.400460
     76          1           0       -1.083937   -2.209730   -2.225324
     77          1           0        0.915469   -0.126258   -2.377592
     78          1           0        0.995000   -1.944177   -2.586108
     79          1           0       -2.815110    5.334319   -0.096401
     80          1           0       -3.871263    6.319886    0.842371
     81          1           0       -4.146490    6.331734   -0.890690
     82          1           0       -6.453675    7.287173   -0.419486
     83          1           0       -5.626906    7.422849    1.133285
     84          1           0       -7.322747    8.020981    0.995147
     85          1           0      -10.809385    1.898196    0.381715
     86          1           0      -10.796586   -0.850548    1.045926
     87          1           0       -9.529936    1.218636    2.879346
     88          1           0      -10.994341    0.338770    2.806420
     89          1           0      -10.993427    2.206552    2.738177
     90          1           0      -10.689251   -1.290464   -1.653260
     91          1           0      -10.686919    0.506291   -1.550605
     92          1           0      -13.024841   -0.389564   -1.968776
     93          1           0      -12.986074    0.422712   -0.399455
     94          1           0      -12.830813   -1.331014   -0.460467
     95          1           0       -8.995876   -4.641211   -0.911517
     96          1           0       -7.694251   -5.473089   -0.047771
     97          1           0       -7.694513   -5.470073   -1.814099
     98          1           0       -2.543001   -3.779881   -1.454173
     99          1           0        0.430019   -3.869341    1.492150
    100          1           0        0.543346   -5.501061    0.703079
    101          1           0       -0.550917   -5.340107    2.027704
    102          1           0        3.965904   -2.072502    0.507194
    103          1           0        3.894432   -0.389570    0.857109
    104          1           0        5.148772   -1.079571   -1.723527
    105          1           0        7.302419   -0.006394    1.677138
    106          1           0        7.404381   -1.703971    1.817450
    107          1           0        5.837190   -1.113029    1.941087
    108          1           0        7.679114   -1.484373   -1.582076
    109          1           0        8.607469   -1.034695   -0.149875
    110          1           0        7.131539    1.316449   -1.186808
    111          1           0        7.981849    0.641863   -2.495788
    112          1           0        9.928987    0.979932   -0.199997
    113          1           0        8.806239    2.306961   -0.362751
    114          1           0       10.623553    3.020130   -1.368445
    115          1           0        8.127114    3.157264   -2.308069
    116          1           0        9.140633    3.321252   -3.713038
    117          1           0        9.310174    4.410269   -2.226557
    118          1           0       10.670285    1.432521   -3.888344
    119          1           0       10.603645    0.316348   -2.595290
    120          1           0       12.491216    2.636802   -2.206913
    121          1           0       12.852990    1.606226   -3.600612
    122          1           0       13.260565   -0.226773   -2.323352
    123          1           0       12.081479   -0.026051   -1.268491
    124          1           0       13.865884    1.901129   -0.197332
    125          1           0       15.273709    1.030415   -2.307092
    126          1           0       15.973297   -0.013100   -1.046970
    127          1           0       15.964916    1.647213   -0.797039
    128          1           0       14.901445   -0.527397    0.756454
    129          1           0       13.241235   -0.890693    0.373100
    130          1           0       12.524729    1.181382    1.669424
    131          1           0       14.102640    1.115285    2.499067
    132          1           0       13.650434   -0.471770    3.769986
    133          1           0       13.011978   -1.568163    2.543048
    134          1           0       11.458588    0.765816    3.765985
    135          1           0       11.241780   -0.489715    5.734325
    136          1           0       12.050192   -1.837287    5.127243
    137          1           0       10.411608   -1.708656    4.835130
    138          1           0        9.878487   -1.503592    2.503802
    139          1           0       10.903588   -0.256193    1.534217
    140          1           0        9.581198    0.139667    2.699815
 ---------------------------------------------------------------------

 SCF Done:  E(RwB97XD) =  -3007.82798230     A.U. after   20 cycles

 Excitation energies and oscillator strengths:

 Excited State   1:      Singlet-A      1.6727 eV  741.21 nm  f=0.3467  <S**2>=0.000
     245 -> 248        0.20410
     246 -> 247        0.67799
     245 <- 248        0.11943
 This state for optimization and/or second-order correction.
 Total Energy, E(TD-HF/TD-DFT) =  -3007.76651099
 Copying the excited state density for this state as the 1-particle RhoCI density.

 Excited State   2:      Singlet-A      2.1519 eV  576.16 nm  f=0.0787  <S**2>=0.000
     245 -> 247        0.62217
     246 -> 248       -0.32449

 Excited State   3:      Singlet-A      3.4213 eV  362.39 nm  f=0.6967  <S**2>=0.000
     240 -> 247        0.12514
     242 -> 247        0.14993
     245 -> 247        0.29968
     246 -> 248        0.60581
     245 <- 247       -0.11573

 Excited State   4:      Singlet-A      3.5830 eV  346.04 nm  f=0.0008  <S**2>=0.000
     240 -> 247       -0.10333
     242 -> 247       -0.18020
     244 -> 247        0.63831
     244 -> 249        0.10826

 Excited State   5:      Singlet-A      3.7361 eV  331.85 nm  f=0.0139  <S**2>=0.000
     241 -> 247        0.53677
     241 -> 249        0.24448
     241 -> 251       -0.24629
     242 -> 247       -0.13200

 The electronic state is 1-A.
 Alpha  occ. eigenvalues --  -46.95520 -19.32465 -19.28154 -19.26216 -19.24288
 Alpha  occ. eigenvalues --  -19.23447 -19.23288 -14.46543 -14.45909 -14.44451
 Alpha  occ. eigenvalues --  -14.42753 -10.44884 -10.41937 -10.39995 -10.38273
 Alpha  occ. eigenvalues --  -10.36736 -10.35894 -10.35039 -10.34968 -10.34846
 Alpha  occ. eigenvalues --  -10.34800 -10.34100 -10.33878 -10.32912 -10.32821
 Alpha  occ. eigenvalues --  -10.32467 -10.31968 -10.31903 -10.31775 -10.31739
 Alpha  occ. eigenvalues --  -10.31491 -10.31476 -10.31368 -10.31297 -10.31249
 Alpha  occ. eigenvalues --  -10.30931 -10.30863 -10.30700 -10.30648 -10.30579
 Alpha  occ. eigenvalues --  -10.30540 -10.30429 -10.30188 -10.29960 -10.29767
 Alpha  occ. eigenvalues --  -10.29736 -10.29556 -10.29555 -10.29535 -10.29416
 Alpha  occ. eigenvalues --  -10.29409 -10.29408 -10.29270 -10.29244 -10.29131
 Alpha  occ. eigenvalues --  -10.28941 -10.28884 -10.28863 -10.28768 -10.28715
 Alpha  occ. eigenvalues --  -10.28664 -10.28488 -10.28462 -10.28277 -10.28140
 Alpha  occ. eigenvalues --  -10.27684  -3.21452  -1.94993  -1.94602  -1.94412
 Alpha  occ. eigenvalues --   -1.19771  -1.16161  -1.12046  -1.11945  -1.10498
 Alpha  occ. eigenvalues --   -1.07617  -1.06948  -1.05650  -1.05020  -1.04369
 Alpha  occ. eigenvalues --   -0.94452  -0.93012  -0.91868  -0.91258  -0.90756
 Alpha  occ. eigenvalues --   -0.90474  -0.89519  -0.89502  -0.89291  -0.88638
 Alpha  occ. eigenvalues --   -0.88027  -0.87297  -0.86104  -0.85216  -0.84985
 Alpha  occ. eigenvalues --   -0.84698  -0.84046  -0.83029  -0.82700  -0.82084
 Alpha  occ. eigenvalues --   -0.81487  -0.80214  -0.79825  -0.78694  -0.77998
 Alpha  occ. eigenvalues --   -0.77641  -0.77426  -0.76689  -0.76672  -0.76138
 Alpha  occ. eigenvalues --   -0.75399  -0.74179  -0.73111  -0.72457  -0.70938
 Alpha  occ. eigenvalues --   -0.70718  -0.69847  -0.69641  -0.68798  -0.67570
 Alpha  occ. eigenvalues --   -0.67353  -0.66759  -0.66421  -0.66356  -0.65980
 Alpha  occ. eigenvalues --   -0.65417  -0.64717  -0.63632  -0.63054  -0.62107
 Alpha  occ. eigenvalues --   -0.61822  -0.61297  -0.60850  -0.60166  -0.59423
 Alpha  occ. eigenvalues --   -0.59355  -0.58804  -0.58370  -0.57958  -0.57193
 Alpha  occ. eigenvalues --   -0.56967  -0.56734  -0.56575  -0.56077  -0.55812
 Alpha  occ. eigenvalues --   -0.55735  -0.55483  -0.55376  -0.55186  -0.54947
 Alpha  occ. eigenvalues --   -0.54547  -0.54394  -0.53967  -0.53718  -0.53412
 Alpha  occ. eigenvalues --   -0.53338  -0.53234  -0.52980  -0.52870  -0.52653
 Alpha  occ. eigenvalues --   -0.52271  -0.52097  -0.51992  -0.51815  -0.51606
 Alpha  occ. eigenvalues --   -0.51300  -0.51171  -0.51012  -0.50937  -0.50546
 Alpha  occ. eigenvalues --   -0.50415  -0.50155  -0.49773  -0.49603  -0.49358
 Alpha  occ. eigenvalues --   -0.49134  -0.49015  -0.48652  -0.48437  -0.48345
 Alpha  occ. eigenvalues --   -0.48007  -0.47839  -0.47743  -0.47482  -0.47393
 Alpha  occ. eigenvalues --   -0.47311  -0.47171  -0.46888  -0.46843  -0.46643
 Alpha  occ. eigenvalues --   -0.46534  -0.46186  -0.46141  -0.45855  -0.45750
 Alpha  occ. eigenvalues --   -0.45656  -0.45577  -0.45507  -0.45259  -0.45021
 Alpha  occ. eigenvalues --   -0.44742  -0.44554  -0.44119  -0.43882  -0.43873
 Alpha  occ. eigenvalues --   -0.43649  -0.43590  -0.43546  -0.43318  -0.42889
 Alpha  occ. eigenvalues --   -0.42762  -0.42711  -0.42152  -0.41907  -0.41840
 Alpha  occ. eigenvalues --   -0.41560  -0.41497  -0.41273  -0.41089  -0.40933
 Alpha  occ. eigenvalues --   -0.40519  -0.40491  -0.40072  -0.39852  -0.39687
 Alpha  occ. eigenvalues --   -0.39108  -0.38808  -0.38420  -0.38374  -0.37974
 Alpha  occ. eigenvalues --   -0.37368  -0.36915  -0.36749  -0.36716  -0.36414
 Alpha  occ. eigenvalues --   -0.35480  -0.35200  -0.34678  -0.33375  -0.32811
 Alpha  occ. eigenvalues --   -0.32198  -0.32148  -0.31890  -0.31237  -0.25152
 Alpha  occ. eigenvalues --   -0.22247
 Alpha virt. eigenvalues --   -0.06053   0.00283   0.02676   0.04696   0.05199
 Alpha virt. eigenvalues --    0.06039   0.07946   0.08082   0.08606   0.09942
 Alpha virt. eigenvalues --    0.11254   0.11350   0.11652   0.12029   0.12460

 Mulliken charges:
               1
     1  Mg   0.963634
     2  C   -0.078613
     3  C   -0.082610
     4  C   -0.071056
     5  C   -0.139125
     6  N   -0.333681
     7  C   -0.021360
     8  C   -0.002606
     9  C   -0.135915
    10  C    0.109065
    11  C    0.020137
    12  C   -0.013669
    13  C   -0.022358
    14  C    0.245335
    15  O   -0.286521
    16  O   -0.350211
    17  N   -0.475216
    18  C    0.134422
    19  C   -0.177237
    20  C   -0.079429
    21  C    0.133488
    22  C    0.066365
    23  C    0.073207
    24  O   -0.249882
    25  C    0.000615
    26  N   -0.297965
    27  C    0.007360
    28  C   -0.077084
    29  C   -0.072742
    30  C    0.089103
    31  C    0.059285
    32  C   -0.029916
    33  C   -0.066064
    34  N   -0.436496
    35  C    0.159105
    36  C   -0.202132
    37  C   -0.050250
    38  C    0.143587
    39  C    0.087253
    40  C    0.140827
    41  O   -0.191905
    42  C   -0.058096
    43  C    0.276157
    44  O   -0.247695
    45  O   -0.398697
    46  C    0.133085
    47  C    0.219759
    48  C   -0.165043
    49  C   -0.196891
    50  C    0.026070
    51  C    0.073985
    52  C   -0.015994
    53  C   -0.010472
    54  C   -0.184370
    55  C    0.003176
    56  C    0.017739
    57  C    0.000089
    58  C   -0.041049
    59  C   -0.129433
    60  C    0.012417
    61  C    0.013735
    62  C   -0.063586
    63  C   -0.008696
    64  C   -0.193116
    65  C   -0.015761
    66  C   -0.036669
    67  H   -0.012819
    68  H    0.021781
    69  H   -0.011635
    70  H    0.064240
    71  H    0.022368
    72  H    0.027955
    73  H    0.031998
    74  H    0.068541
    75  H    0.017836
    76  H    0.044989
    77  H    0.069779
    78  H    0.074612
    79  H    0.049120
    80  H    0.048867
    81  H    0.057465
    82  H    0.058741
    83  H    0.049139
    84  H    0.069080
    85  H    0.029301
    86  H    0.016894
    87  H    0.036853
    88  H    0.036791
    89  H    0.059208
    90  H    0.048056
    91  H    0.023809
    92  H    0.045411
    93  H    0.035538
    94  H    0.033027
    95  H    0.030339
    96  H    0.063541
    97  H    0.058355
    98  H    0.064853
    99  H    0.074739
   100  H    0.047028
   101  H    0.060047
   102  H    0.068237
   103  H    0.058894
   104  H    0.027896
   105  H    0.049790
   106  H    0.043231
   107  H    0.016982
   108  H    0.030772
   109  H    0.017998
   110  H    0.033231
   111  H    0.024630
   112  H    0.017131
   113  H    0.000684
   114  H    0.018690
   115  H    0.005558
   116  H    0.033858
   117  H    0.038085
   118  H    0.005961
   119  H    0.020570
   120  H    0.020668
   121  H    0.022783
   122  H    0.006677
   123  H   -0.000006
   124  H    0.019952
   125  H    0.026996
   126  H    0.024295
   127  H    0.017444
   128  H    0.016232
   129  H    0.012805
   130  H    0.025804
   131  H    0.028417
   132  H    0.022196
   133  H    0.025546
   134  H    0.027719
   135  H    0.026203
   136  H    0.020748
   137  H    0.013336
   138  H    0.038402
   139  H    0.047273
   140  H    0.029072
 Sum of Mulliken charges =  -0.00000

 Dipole moment (field-independent basis, Debye):
    X=              4.7027    Y=              5.4550    Z=             -2.7761  Tot=              7.7188
 Quadrupole moment (field-independent basis, Debye-Ang):
   XX=           -373.7864   YY=           -414.1933   ZZ=           -402.8669
   XY=             -8.7146   XZ=             20.8960   YZ=             -0.2674

 Normal termination of Gaussian 16 at Fri Apr 29 08:34:49 2022.
