 Gaussian 16, Revision A.03,
 Gaussian 16:  ES64L-G16RevA.03 25-Dec-2016

 --------------------
 #p ZINDO=(nstates=5)
 --------------------

 -----------------------------
 step_201_chromophore_19 ZINDO
 -----------------------------
 Symbolic Z-matrix:
 Charge =  0 Multiplicity = 1

                         Standard orientation:
 ---------------------------------------------------------------------
 Center     Atomic      Atomic             Coordinates (Angstroms)
 Number     Number       Type             X           Y           Z
 ---------------------------------------------------------------------
      1         12           0       -5.931630    0.413988   -0.317647
      2          6           0       -3.695560   -2.337736   -0.511617
      3          6           0       -3.244168    2.549271   -0.111941
      4          6           0       -8.081894    2.814521    0.639997
      5          6           0       -8.472422   -1.869445   -0.114172
      6          7           0       -3.708242    0.022407   -0.112149
      7          6           0       -2.980122   -1.103871   -0.403482
      8          6           0       -1.464586   -0.801232   -0.437332
      9          6           0       -1.421833    0.741472   -0.208362
     10          6           0       -2.917240    1.116650   -0.189758
     11          6           0       -0.464882    1.211139    0.944755
     12          6           0       -0.794376   -1.274365   -1.744736
     13          6           0        0.762176   -1.107545   -1.927062
     14          6           0        1.724782   -1.266865   -0.713778
     15          8           0        1.420543   -1.675289    0.421393
     16          8           0        2.967158   -0.828922   -1.062204
     17          7           0       -5.711885    2.451491   -0.074934
     18          6           0       -4.568884    3.154232   -0.023377
     19          6           0       -4.911098    4.639521    0.087218
     20          6           0       -6.290105    4.663534    0.432071
     21          6           0       -6.746489    3.267888    0.412835
     22          6           0       -3.840571    5.701455   -0.055566
     23          6           0       -7.163510    5.923408    0.732276
     24          8           0       -8.388204    5.852248    0.908708
     25          6           0       -6.598398    7.278392    0.660953
     26          7           0       -7.965342    0.437297    0.535562
     27          6           0       -8.722933    1.522577    0.692163
     28          6           0      -10.206837    1.184088    0.941884
     29          6           0      -10.260420   -0.218990    0.338010
     30          6           0       -8.775882   -0.580991    0.226013
     31          6           0      -10.532025    1.260666    2.452756
     32          6           0      -10.959787   -0.423513   -1.051184
     33          6           0      -12.574467   -0.405831   -0.976371
     34          7           0       -6.158761   -1.617852   -0.239169
     35          6           0       -7.240242   -2.425553   -0.336808
     36          6           0       -6.988083   -3.737777   -0.718769
     37          6           0       -5.599759   -3.785837   -0.659171
     38          6           0       -5.106859   -2.464690   -0.485411
     39          6           0       -7.932510   -4.879782   -0.929981
     40          6           0       -4.424806   -4.666762   -0.764146
     41          8           0       -4.360631   -5.834680   -1.073588
     42          6           0       -3.181990   -3.727227   -0.572392
     43          6           0       -2.422492   -4.042349    0.638328
     44          8           0       -2.757997   -4.101087    1.817665
     45          8           0       -1.130297   -4.319330    0.240152
     46          6           0       -0.098135   -4.780500    1.209556
     47          6           0        3.946295   -1.094261    0.027230
     48          6           0        5.324614   -1.003909   -0.650898
     49          6           0        6.518834   -0.912943   -0.065407
     50          6           0        6.768026   -0.918052    1.410223
     51          6           0        7.800122   -0.721474   -0.813186
     52          6           0        7.979993    0.668052   -1.406740
     53          6           0        9.258091    1.474483   -0.902279
     54          6           0       10.008792    2.311506   -1.921625
     55          6           0        9.138433    3.410902   -2.626570
     56          6           0       10.848135    1.355448   -2.815443
     57          6           0       12.342948    1.646619   -2.637220
     58          6           0       12.903692    0.567028   -1.666823
     59          6           0       14.009354    0.900238   -0.602690
     60          6           0       15.348608    0.861339   -1.232363
     61          6           0       13.929284   -0.069046    0.573039
     62          6           0       13.380290    0.549826    1.909920
     63          6           0       12.936881   -0.560019    2.950273
     64          6           0       11.540117   -0.290629    3.511647
     65          6           0       11.311142   -1.092840    4.829432
     66          6           0       10.392015   -0.544563    2.452728
     67          1           0       -2.415911    3.259343   -0.163737
     68          1           0       -8.728869    3.691681    0.697696
     69          1           0       -9.306933   -2.572993   -0.160713
     70          1           0       -1.058917   -1.421256    0.361599
     71          1           0       -0.880116    1.096334   -1.085268
     72          1           0       -1.083006    1.446893    1.811203
     73          1           0       -0.122589    2.202938    0.648555
     74          1           0        0.202770    0.420331    1.288063
     75          1           0       -1.186628   -0.496996   -2.400460
     76          1           0       -1.083937   -2.209730   -2.225324
     77          1           0        0.915469   -0.126258   -2.377592
     78          1           0        0.995000   -1.944177   -2.586108
     79          1           0       -2.815110    5.334319   -0.096401
     80          1           0       -3.871263    6.319886    0.842371
     81          1           0       -4.146490    6.331734   -0.890690
     82          1           0       -6.453675    7.287173   -0.419486
     83          1           0       -5.626906    7.422849    1.133285
     84          1           0       -7.322747    8.020981    0.995147
     85          1           0      -10.809385    1.898196    0.381715
     86          1           0      -10.796586   -0.850548    1.045926
     87          1           0       -9.529936    1.218636    2.879346
     88          1           0      -10.994341    0.338770    2.806420
     89          1           0      -10.993427    2.206552    2.738177
     90          1           0      -10.689251   -1.290464   -1.653260
     91          1           0      -10.686919    0.506291   -1.550605
     92          1           0      -13.024841   -0.389564   -1.968776
     93          1           0      -12.986074    0.422712   -0.399455
     94          1           0      -12.830813   -1.331014   -0.460467
     95          1           0       -8.995876   -4.641211   -0.911517
     96          1           0       -7.694251   -5.473089   -0.047771
     97          1           0       -7.694513   -5.470073   -1.814099
     98          1           0       -2.543001   -3.779881   -1.454173
     99          1           0        0.430019   -3.869341    1.492150
    100          1           0        0.543346   -5.501061    0.703079
    101          1           0       -0.550917   -5.340107    2.027704
    102          1           0        3.965904   -2.072502    0.507194
    103          1           0        3.894432   -0.389570    0.857109
    104          1           0        5.148772   -1.079571   -1.723527
    105          1           0        7.302419   -0.006394    1.677138
    106          1           0        7.404381   -1.703971    1.817450
    107          1           0        5.837190   -1.113029    1.941087
    108          1           0        7.679114   -1.484373   -1.582076
    109          1           0        8.607469   -1.034695   -0.149875
    110          1           0        7.131539    1.316449   -1.186808
    111          1           0        7.981849    0.641863   -2.495788
    112          1           0        9.928987    0.979932   -0.199997
    113          1           0        8.806239    2.306961   -0.362751
    114          1           0       10.623553    3.020130   -1.368445
    115          1           0        8.127114    3.157264   -2.308069
    116          1           0        9.140633    3.321252   -3.713038
    117          1           0        9.310174    4.410269   -2.226557
    118          1           0       10.670285    1.432521   -3.888344
    119          1           0       10.603645    0.316348   -2.595290
    120          1           0       12.491216    2.636802   -2.206913
    121          1           0       12.852990    1.606226   -3.600612
    122          1           0       13.260565   -0.226773   -2.323352
    123          1           0       12.081479   -0.026051   -1.268491
    124          1           0       13.865884    1.901129   -0.197332
    125          1           0       15.273709    1.030415   -2.307092
    126          1           0       15.973297   -0.013100   -1.046970
    127          1           0       15.964916    1.647213   -0.797039
    128          1           0       14.901445   -0.527397    0.756454
    129          1           0       13.241235   -0.890693    0.373100
    130          1           0       12.524729    1.181382    1.669424
    131          1           0       14.102640    1.115285    2.499067
    132          1           0       13.650434   -0.471770    3.769986
    133          1           0       13.011978   -1.568163    2.543048
    134          1           0       11.458588    0.765816    3.765985
    135          1           0       11.241780   -0.489715    5.734325
    136          1           0       12.050192   -1.837287    5.127243
    137          1           0       10.411608   -1.708656    4.835130
    138          1           0        9.878487   -1.503592    2.503802
    139          1           0       10.903588   -0.256193    1.534217
    140          1           0        9.581198    0.139667    2.699815
 ---------------------------------------------------------------------

 SCF Done:  E(RZINDO/S) =  -474.216851438     A.U. after   19 cycles

 Excitation energies and oscillator strengths:

 Excited State   1:      Singlet-A      1.2676 eV  978.11 nm  f=0.5176  <S**2>=0.000
     175 ->178        -0.19225
     176 ->177         0.66258
 This state for optimization and/or second-order correction.
 Total Energy, E(CIS/TDA) =  -474.170268280
 Copying the excited state density for this state as the 1-particle RhoCI density.

 Excited State   2:      Singlet-A      1.8435 eV  672.54 nm  f=0.0162  <S**2>=0.000
     175 ->177         0.51649
     176 ->178         0.45531

 Excited State   3:      Singlet-A      2.8816 eV  430.26 nm  f=0.9536  <S**2>=0.000
     175 ->177        -0.40285
     176 ->178         0.48495
     176 ->179        -0.18458
     176 ->182        -0.13961

 Excited State   4:      Singlet-A      2.9703 eV  417.42 nm  f=0.0801  <S**2>=0.000
     168 ->177        -0.17222
     168 ->179         0.29920
     168 ->182        -0.13369
     168 ->185        -0.13845
     176 ->179         0.43953
     176 ->181         0.21308
     176 ->182         0.15531

 Excited State   5:      Singlet-A      2.9894 eV  414.74 nm  f=0.0021  <S**2>=0.000
     168 ->177         0.14822
     168 ->179        -0.25533
     168 ->182         0.11764
     168 ->185         0.11446
     176 ->181         0.58766

 The electronic state is 1-A.
 Alpha  occ. eigenvalues --   -1.85911  -1.81767  -1.78701  -1.72920  -1.70710
 Alpha  occ. eigenvalues --   -1.70277  -1.66329  -1.60854  -1.59596  -1.57912
 Alpha  occ. eigenvalues --   -1.56373  -1.52366  -1.49581  -1.47294  -1.45398
 Alpha  occ. eigenvalues --   -1.42435  -1.42021  -1.39535  -1.39499  -1.38269
 Alpha  occ. eigenvalues --   -1.35394  -1.33818  -1.31860  -1.30726  -1.29302
 Alpha  occ. eigenvalues --   -1.28525  -1.24085  -1.22443  -1.21591  -1.18715
 Alpha  occ. eigenvalues --   -1.17147  -1.16562  -1.14851  -1.14084  -1.13010
 Alpha  occ. eigenvalues --   -1.12671  -1.10926  -1.10703  -1.04408  -1.03015
 Alpha  occ. eigenvalues --   -1.02577  -1.00272  -0.99994  -0.97760  -0.97082
 Alpha  occ. eigenvalues --   -0.96059  -0.94031  -0.93424  -0.92830  -0.92051
 Alpha  occ. eigenvalues --   -0.91844  -0.90051  -0.88764  -0.87085  -0.86382
 Alpha  occ. eigenvalues --   -0.86256  -0.84471  -0.82711  -0.81991  -0.80012
 Alpha  occ. eigenvalues --   -0.79001  -0.78263  -0.77820  -0.76794  -0.76672
 Alpha  occ. eigenvalues --   -0.75944  -0.74840  -0.74206  -0.73860  -0.73743
 Alpha  occ. eigenvalues --   -0.72380  -0.72125  -0.71977  -0.71438  -0.70816
 Alpha  occ. eigenvalues --   -0.69940  -0.69531  -0.68956  -0.67837  -0.67501
 Alpha  occ. eigenvalues --   -0.67398  -0.66937  -0.66392  -0.65838  -0.65289
 Alpha  occ. eigenvalues --   -0.64937  -0.64586  -0.64405  -0.64056  -0.63900
 Alpha  occ. eigenvalues --   -0.63425  -0.62642  -0.62467  -0.62052  -0.61972
 Alpha  occ. eigenvalues --   -0.61326  -0.60983  -0.60654  -0.60000  -0.59856
 Alpha  occ. eigenvalues --   -0.58813  -0.58536  -0.58303  -0.58222  -0.58058
 Alpha  occ. eigenvalues --   -0.57551  -0.57458  -0.56588  -0.56417  -0.56222
 Alpha  occ. eigenvalues --   -0.55998  -0.55733  -0.55377  -0.54342  -0.54206
 Alpha  occ. eigenvalues --   -0.54079  -0.53908  -0.53531  -0.53220  -0.53050
 Alpha  occ. eigenvalues --   -0.52616  -0.52421  -0.51745  -0.51430  -0.51355
 Alpha  occ. eigenvalues --   -0.51147  -0.50954  -0.50783  -0.50272  -0.50020
 Alpha  occ. eigenvalues --   -0.49906  -0.49744  -0.49450  -0.49176  -0.48952
 Alpha  occ. eigenvalues --   -0.48847  -0.48546  -0.48110  -0.47764  -0.47689
 Alpha  occ. eigenvalues --   -0.47422  -0.47250  -0.47101  -0.46550  -0.46459
 Alpha  occ. eigenvalues --   -0.46114  -0.45647  -0.45389  -0.45192  -0.45088
 Alpha  occ. eigenvalues --   -0.44993  -0.44470  -0.44380  -0.44218  -0.44023
 Alpha  occ. eigenvalues --   -0.43878  -0.43342  -0.42723  -0.42332  -0.42189
 Alpha  occ. eigenvalues --   -0.41263  -0.40725  -0.40288  -0.39073  -0.37713
 Alpha  occ. eigenvalues --   -0.37539  -0.37044  -0.35809  -0.34345  -0.33708
 Alpha  occ. eigenvalues --   -0.33191  -0.32135  -0.31523  -0.31341  -0.25855
 Alpha  occ. eigenvalues --   -0.21033
 Alpha virt. eigenvalues --   -0.07533  -0.02022  -0.00309   0.01163   0.01534
 Alpha virt. eigenvalues --    0.01891   0.03312   0.03947   0.04744   0.04941
 Alpha virt. eigenvalues --    0.05982   0.06814   0.07394   0.07939   0.08099

 Mulliken charges:
               1
     1  Mg   0.436340
     2  C   -0.036710
     3  C   -0.125380
     4  C   -0.083807
     5  C   -0.061738
     6  N   -0.271571
     7  C    0.089733
     8  C    0.014593
     9  C   -0.000023
    10  C    0.166620
    11  C   -0.056440
    12  C   -0.033290
    13  C   -0.000882
    14  C    0.464406
    15  O   -0.524386
    16  O   -0.254419
    17  N   -0.322472
    18  C    0.136051
    19  C    0.013176
    20  C   -0.032872
    21  C    0.136721
    22  C   -0.036976
    23  C    0.334674
    24  O   -0.529294
    25  C   -0.023806
    26  N   -0.257949
    27  C    0.171971
    28  C    0.018589
    29  C    0.001099
    30  C    0.095485
    31  C   -0.052154
    32  C   -0.038128
    33  C   -0.068695
    34  N   -0.328628
    35  C    0.093517
    36  C    0.020207
    37  C   -0.064942
    38  C    0.088922
    39  C   -0.039734
    40  C    0.330687
    41  O   -0.518071
    42  C    0.069394
    43  C    0.497231
    44  O   -0.527590
    45  O   -0.295606
    46  C    0.072601
    47  C    0.096891
    48  C   -0.099380
    49  C   -0.000853
    50  C   -0.046540
    51  C   -0.018760
    52  C   -0.022979
    53  C   -0.042430
    54  C   -0.012668
    55  C   -0.064242
    56  C   -0.030352
    57  C   -0.033210
    58  C   -0.046825
    59  C    0.002393
    60  C   -0.050398
    61  C   -0.034265
    62  C   -0.048211
    63  C   -0.035563
    64  C   -0.006385
    65  C   -0.065503
    66  C   -0.068203
    67  H    0.028444
    68  H    0.039631
    69  H    0.016712
    70  H    0.049992
    71  H    0.021755
    72  H    0.013020
    73  H    0.023720
    74  H    0.051726
    75  H    0.006017
    76  H    0.036520
    77  H    0.043506
    78  H    0.046540
    79  H    0.036218
    80  H    0.025976
    81  H    0.036578
    82  H    0.046290
    83  H    0.034098
    84  H    0.046160
    85  H    0.028477
    86  H    0.025454
    87  H    0.022282
    88  H    0.031151
    89  H    0.034662
    90  H    0.037799
    91  H    0.014306
    92  H    0.021317
    93  H    0.021419
    94  H    0.016315
    95  H    0.021949
    96  H    0.035985
    97  H    0.035250
    98  H    0.047347
    99  H    0.052438
   100  H    0.031557
   101  H    0.051082
   102  H    0.058831
   103  H    0.050051
   104  H    0.031991
   105  H    0.031466
   106  H    0.027116
   107  H    0.016064
   108  H    0.020838
   109  H    0.023557
   110  H    0.021342
   111  H    0.020583
   112  H    0.030267
   113  H    0.000586
   114  H    0.016547
   115  H    0.011377
   116  H    0.025269
   117  H    0.026785
   118  H    0.010749
   119  H    0.022363
   120  H    0.021771
   121  H    0.018493
   122  H    0.007995
   123  H    0.016771
   124  H    0.022326
   125  H    0.015830
   126  H    0.020654
   127  H    0.007140
   128  H    0.019026
   129  H    0.018040
   130  H    0.021854
   131  H    0.022077
   132  H    0.012118
   133  H    0.024536
   134  H    0.020550
   135  H    0.014195
   136  H    0.015660
   137  H    0.011876
   138  H    0.031081
   139  H    0.029810
   140  H    0.011751
 Sum of Mulliken charges =  -0.00000

 Dipole moment (field-independent basis, Debye):
    X=              5.5001    Y=              9.8114    Z=             -4.7308  Tot=             12.2022
 N-N= 4.285294811576D+03 E-N= 0.000000000000D+00  KE=-9.245385846235D+03
 Leave Link  601 at Fri Apr 29 08:46:52 2022, MaxMem=  6710886400 cpu:               4.7 elap:               0.2
 (Enter /sw/apps/gaussian-16.0/g16/l9999.exe)
 1\1\GINC-BP1-COMPUTE154\SP\RZINDO CIS\STO-3G\C55H74Mg1N4O6\OF15641\29-
 Apr-2022\0\\#p ZINDO=(nstates=5)\\step_201_chromophore_19 ZINDO\\0,1\M
 g,0,25.536,51.023,26.391\C,0,23.282,52.097,28.916\C,0,27.572,49.682,28
 .816\C,0,27.932,50.762,24.047\C,0,23.615,52.765,24.158\N,0,25.456,51.1
 3,28.654\C,0,24.404,51.418,29.487\C,0,24.723,51.034,30.95\C,0,26.129,5
 0.369,30.827\C,0,26.363,50.365,29.303\C,0,27.218,50.943,31.802\C,0,23.
 639,50.131,31.576\C,0,23.765,49.694,33.085\C,0,24.368,50.663,34.144\O,

 Normal termination of Gaussian 16 at Fri Apr 29 08:46:52 2022.
