 Gaussian 16, Revision A.03,
 Gaussian 16:  ES64L-G16RevA.03 25-Dec-2016

 ------------------------------
 #p blyp/Def2SVP td=(nstates=5)
 ------------------------------

 -------------------------------------------------
 step_501_chromophore_5 TDDFT with blyp functional
 -------------------------------------------------
 Symbolic Z-matrix:
 Charge =  0 Multiplicity = 1

                         Standard orientation:
 ---------------------------------------------------------------------
 Center     Atomic      Atomic             Coordinates (Angstroms)
 Number     Number       Type             X           Y           Z
 ---------------------------------------------------------------------
      1         12           0        5.322421    0.506490   -0.261923
      2          6           0        3.738552   -2.489828    0.346123
      3          6           0        3.623597    0.724815   -3.216686
      4          6           0        5.849262    3.765942   -0.156433
      5          6           0        6.951110    0.139765    2.826826
      6          7           0        3.501962   -0.565684   -1.037441
      7          6           0        3.212067   -1.862200   -0.756335
      8          6           0        2.243733   -2.464857   -1.730784
      9          6           0        2.579163   -1.616379   -2.999885
     10          6           0        3.348052   -0.444456   -2.407856
     11          6           0        3.335851   -2.425723   -4.091854
     12          6           0        0.712926   -2.261882   -1.273210
     13          6           0       -0.277279   -3.463039   -1.638190
     14          6           0       -1.359047   -2.916298   -2.536462
     15          8           0       -1.113635   -2.581891   -3.710403
     16          8           0       -2.643660   -2.823856   -1.884825
     17          7           0        4.969158    1.992470   -1.625857
     18          6           0        4.198539    1.961213   -2.735238
     19          6           0        4.145701    3.275526   -3.362914
     20          6           0        4.818694    4.162281   -2.497482
     21          6           0        5.243106    3.301933   -1.357502
     22          6           0        3.383053    3.499203   -4.691300
     23          6           0        4.810581    5.653284   -2.689137
     24          8           0        4.280202    6.123178   -3.661835
     25          6           0        5.399676    6.667999   -1.690681
     26          7           0        6.391838    1.813976    1.076583
     27          6           0        6.436949    3.059333    0.900898
     28          6           0        7.051176    3.794623    2.034203
     29          6           0        7.438214    2.628086    3.025838
     30          6           0        6.913705    1.464410    2.303001
     31          6           0        8.209474    4.734250    1.556430
     32          6           0        6.764908    2.813561    4.463869
     33          6           0        7.389487    2.016861    5.664073
     34          7           0        5.444284   -0.883705    1.258566
     35          6           0        6.230436   -0.935140    2.395329
     36          6           0        6.107805   -2.214452    3.037422
     37          6           0        5.147403   -2.904519    2.217807
     38          6           0        4.715482   -2.025769    1.243205
     39          6           0        6.816269   -2.698401    4.261440
     40          6           0        4.475020   -4.146665    2.051570
     41          8           0        4.460418   -5.223249    2.662150
     42          6           0        3.394516   -3.868431    0.954703
     43          6           0        3.422839   -5.034114    0.023272
     44          8           0        2.684854   -6.025765    0.108215
     45          8           0        4.420421   -4.866638   -0.897104
     46          6           0        4.464064   -6.061277   -1.786371
     47          6           0       -3.799327   -2.337881   -2.699099
     48          6           0       -4.712456   -1.567572   -1.756609
     49          6           0       -4.368398   -0.496334   -1.036546
     50          6           0       -2.897499    0.049910   -0.940660
     51          6           0       -5.451083    0.144592   -0.232298
     52          6           0       -5.323142   -0.317081    1.179139
     53          6           0       -6.718058   -0.427602    1.848226
     54          6           0       -7.154436    0.916282    2.398237
     55          6           0       -6.963245    0.902010    3.940528
     56          6           0       -8.720904    1.127170    2.023233
     57          6           0       -9.011574    1.397855    0.522115
     58          6           0       -9.674212    0.170373   -0.106858
     59          6           0      -11.106960    0.631345   -0.597889
     60          6           0      -11.126027    0.585935   -2.169786
     61          6           0      -12.085620   -0.412876    0.079346
     62          6           0      -12.317467   -0.023360    1.607497
     63          6           0      -13.672525    0.543585    1.923285
     64          6           0      -14.088721    1.881974    1.120153
     65          6           0      -14.809038    2.881780    1.980356
     66          6           0      -15.005150    1.418305   -0.056143
     67          1           0        3.243228    0.833767   -4.234850
     68          1           0        5.955993    4.851634   -0.121473
     69          1           0        7.348929    0.083892    3.842990
     70          1           0        2.592468   -3.490419   -1.845291
     71          1           0        1.648508   -1.309572   -3.477509
     72          1           0        2.714237   -2.494038   -4.984151
     73          1           0        3.439851   -3.445250   -3.719131
     74          1           0        4.307541   -1.953752   -4.233929
     75          1           0        0.243374   -1.322033   -1.563174
     76          1           0        0.653107   -2.163935   -0.189746
     77          1           0       -0.739241   -3.722628   -0.685547
     78          1           0        0.126666   -4.402218   -2.016348
     79          1           0        2.580501    4.235032   -4.642011
     80          1           0        2.986427    2.585614   -5.135570
     81          1           0        4.122025    3.816810   -5.426173
     82          1           0        6.479166    6.579142   -1.573041
     83          1           0        4.924592    6.644202   -0.709630
     84          1           0        5.063429    7.637689   -2.059013
     85          1           0        6.216231    4.364686    2.441412
     86          1           0        8.493184    2.391595    3.162349
     87          1           0        7.938089    5.745874    1.857409
     88          1           0        8.365377    4.673205    0.479215
     89          1           0        9.133233    4.628013    2.124973
     90          1           0        5.711015    2.537881    4.420771
     91          1           0        6.818553    3.882139    4.666906
     92          1           0        7.793112    2.534111    6.534066
     93          1           0        8.250141    1.438321    5.331208
     94          1           0        6.662627    1.310580    6.065284
     95          1           0        7.623088   -2.071039    4.639828
     96          1           0        7.164280   -3.661369    3.889877
     97          1           0        5.961288   -2.858763    4.918371
     98          1           0        2.387319   -3.718173    1.344856
     99          1           0        4.827332   -6.918680   -1.220701
    100          1           0        5.235031   -5.987806   -2.553418
    101          1           0        3.470406   -6.186922   -2.216943
    102          1           0       -4.220343   -3.243703   -3.132516
    103          1           0       -3.524077   -1.551922   -3.402578
    104          1           0       -5.762933   -1.855477   -1.812855
    105          1           0       -3.077225    1.087439   -1.221870
    106          1           0       -2.238537   -0.491115   -1.619192
    107          1           0       -2.431440    0.239660    0.026243
    108          1           0       -6.356728    0.067044   -0.833413
    109          1           0       -5.219976    1.209467   -0.249098
    110          1           0       -4.689928    0.401873    1.698621
    111          1           0       -4.999383   -1.351684    1.288257
    112          1           0       -6.759019   -1.164041    2.651730
    113          1           0       -7.443726   -0.783998    1.117354
    114          1           0       -6.577092    1.731261    1.962287
    115          1           0       -7.326575   -0.005889    4.421219
    116          1           0       -7.505376    1.689189    4.465868
    117          1           0       -5.908028    1.112009    4.113496
    118          1           0       -9.188841    1.885623    2.650543
    119          1           0       -9.230937    0.251135    2.424076
    120          1           0       -8.163405    1.632717   -0.120522
    121          1           0       -9.628677    2.296705    0.532587
    122          1           0       -9.664439   -0.686338    0.566794
    123          1           0       -9.096348   -0.145652   -0.974990
    124          1           0      -11.327513    1.628334   -0.215787
    125          1           0      -11.390538   -0.390297   -2.576845
    126          1           0      -10.215931    0.918254   -2.669118
    127          1           0      -11.762905    1.347295   -2.619293
    128          1           0      -11.721700   -1.439979    0.070919
    129          1           0      -12.976296   -0.475797   -0.544486
    130          1           0      -11.568761    0.703654    1.922084
    131          1           0      -12.136139   -0.863676    2.277173
    132          1           0      -13.737855    0.847805    2.967152
    133          1           0      -14.415026   -0.255038    1.940817
    134          1           0      -13.186341    2.382748    0.770290
    135          1           0      -14.992827    2.645384    3.028216
    136          1           0      -15.745888    3.085232    1.461158
    137          1           0      -14.228377    3.802289    1.930568
    138          1           0      -14.567524    1.784316   -0.985222
    139          1           0      -16.034652    1.766150    0.022871
    140          1           0      -15.023770    0.341522   -0.217348
 ---------------------------------------------------------------------

 SCF Done:  E(RB-LYP) =  -3007.33038022     A.U. after   21 cycles

 Excitation energies and oscillator strengths:

 Excited State   1:      Singlet-A      1.7177 eV  721.79 nm  f=0.2118  <S**2>=0.000
     244 -> 247        0.31060
     245 -> 248       -0.15018
     246 -> 247        0.62448
     246 <- 247       -0.13401
 This state for optimization and/or second-order correction.
 Total Energy, E(TD-HF/TD-DFT) =  -3007.26725488
 Copying the excited state density for this state as the 1-particle RhoCI density.

 Excited State   2:      Singlet-A      1.8354 eV  675.52 nm  f=0.0764  <S**2>=0.000
     244 -> 247        0.63333
     246 -> 247       -0.30047

 Excited State   3:      Singlet-A      1.9655 eV  630.80 nm  f=0.0731  <S**2>=0.000
     243 -> 247       -0.14231
     245 -> 247        0.64006
     246 -> 248        0.21405

 Excited State   4:      Singlet-A      2.0262 eV  611.89 nm  f=0.0063  <S**2>=0.000
     243 -> 247        0.69187
     245 -> 247        0.12681

 Excited State   5:      Singlet-A      2.1921 eV  565.61 nm  f=0.0007  <S**2>=0.000
     242 -> 247        0.70569

 The electronic state is 1-A.
 Alpha  occ. eigenvalues --  -46.27599 -18.82720 -18.81467 -18.77190 -18.76118
 Alpha  occ. eigenvalues --  -18.75786 -18.75166 -14.03167 -14.03081 -14.01477
 Alpha  occ. eigenvalues --  -14.00466 -10.04200 -10.03387 -10.00143  -9.99110
 Alpha  occ. eigenvalues --   -9.97732  -9.97660  -9.97228  -9.96626  -9.96279
 Alpha  occ. eigenvalues --   -9.96038  -9.95855  -9.95827  -9.94833  -9.94381
 Alpha  occ. eigenvalues --   -9.94368  -9.94299  -9.94281  -9.94081  -9.93951
 Alpha  occ. eigenvalues --   -9.93929  -9.93874  -9.93752  -9.93292  -9.93255
 Alpha  occ. eigenvalues --   -9.93212  -9.93151  -9.93003  -9.92880  -9.92775
 Alpha  occ. eigenvalues --   -9.92735  -9.92715  -9.92694  -9.92618  -9.92479
 Alpha  occ. eigenvalues --   -9.92315  -9.92249  -9.92220  -9.92056  -9.92007
 Alpha  occ. eigenvalues --   -9.91836  -9.91558  -9.91429  -9.91179  -9.91170
 Alpha  occ. eigenvalues --   -9.91127  -9.90978  -9.90931  -9.90869  -9.90862
 Alpha  occ. eigenvalues --   -9.90743  -9.90655  -9.90616  -9.90496  -9.90376
 Alpha  occ. eigenvalues --   -9.90324  -2.92270  -1.72681  -1.72180  -1.71963
 Alpha  occ. eigenvalues --   -0.97589  -0.94869  -0.93004  -0.90148  -0.89158
 Alpha  occ. eigenvalues --   -0.88681  -0.88647  -0.86651  -0.86147  -0.85491
 Alpha  occ. eigenvalues --   -0.75641  -0.74193  -0.73077  -0.72549  -0.72012
 Alpha  occ. eigenvalues --   -0.71925  -0.71483  -0.70789  -0.70406  -0.70345
 Alpha  occ. eigenvalues --   -0.69627  -0.69045  -0.67782  -0.67643  -0.67066
 Alpha  occ. eigenvalues --   -0.66266  -0.66030  -0.64922  -0.64725  -0.64598
 Alpha  occ. eigenvalues --   -0.63761  -0.62926  -0.62416  -0.61710  -0.60696
 Alpha  occ. eigenvalues --   -0.60548  -0.60222  -0.59771  -0.59412  -0.58380
 Alpha  occ. eigenvalues --   -0.58049  -0.57471  -0.57088  -0.55938  -0.55772
 Alpha  occ. eigenvalues --   -0.54349  -0.53323  -0.53274  -0.52697  -0.52441
 Alpha  occ. eigenvalues --   -0.51177  -0.51077  -0.50792  -0.50489  -0.49859
 Alpha  occ. eigenvalues --   -0.49497  -0.49034  -0.48837  -0.48811  -0.46629
 Alpha  occ. eigenvalues --   -0.46077  -0.45584  -0.45356  -0.45159  -0.44472
 Alpha  occ. eigenvalues --   -0.43621  -0.43578  -0.43404  -0.43284  -0.43060
 Alpha  occ. eigenvalues --   -0.42441  -0.42049  -0.41482  -0.41420  -0.40832
 Alpha  occ. eigenvalues --   -0.40414  -0.40224  -0.39975  -0.39754  -0.39583
 Alpha  occ. eigenvalues --   -0.39474  -0.39319  -0.39277  -0.39127  -0.39021
 Alpha  occ. eigenvalues --   -0.38772  -0.38676  -0.38544  -0.38185  -0.38054
 Alpha  occ. eigenvalues --   -0.37711  -0.37703  -0.37637  -0.37463  -0.37084
 Alpha  occ. eigenvalues --   -0.36896  -0.36774  -0.36626  -0.36445  -0.36333
 Alpha  occ. eigenvalues --   -0.36153  -0.35840  -0.35835  -0.35668  -0.35532
 Alpha  occ. eigenvalues --   -0.35400  -0.35182  -0.34968  -0.34783  -0.34714
 Alpha  occ. eigenvalues --   -0.34524  -0.34372  -0.34204  -0.33987  -0.33935
 Alpha  occ. eigenvalues --   -0.33764  -0.33735  -0.33508  -0.33369  -0.33203
 Alpha  occ. eigenvalues --   -0.33156  -0.32957  -0.32706  -0.32580  -0.32437
 Alpha  occ. eigenvalues --   -0.32163  -0.32144  -0.31993  -0.31708  -0.31633
 Alpha  occ. eigenvalues --   -0.31315  -0.31300  -0.31024  -0.30868  -0.30835
 Alpha  occ. eigenvalues --   -0.30673  -0.30368  -0.30228  -0.30051  -0.29947
 Alpha  occ. eigenvalues --   -0.29817  -0.29583  -0.29385  -0.29053  -0.28882
 Alpha  occ. eigenvalues --   -0.28763  -0.28685  -0.28639  -0.28427  -0.28344
 Alpha  occ. eigenvalues --   -0.27868  -0.27588  -0.27134  -0.26868  -0.26596
 Alpha  occ. eigenvalues --   -0.26371  -0.26041  -0.25931  -0.25368  -0.25060
 Alpha  occ. eigenvalues --   -0.24789  -0.24524  -0.24377  -0.24042  -0.23659
 Alpha  occ. eigenvalues --   -0.22159  -0.22027  -0.21898  -0.21276  -0.20818
 Alpha  occ. eigenvalues --   -0.20176  -0.19769  -0.19058  -0.18272  -0.17275
 Alpha  occ. eigenvalues --   -0.15801
 Alpha virt. eigenvalues --   -0.11719  -0.07004  -0.06258  -0.04825  -0.03824
 Alpha virt. eigenvalues --   -0.03016  -0.02448  -0.01804  -0.01695  -0.00047
 Alpha virt. eigenvalues --    0.01051   0.01828   0.02427   0.02495   0.02597

 Mulliken charges:
               1
     1  Mg   0.694229
     2  C    0.063457
     3  C   -0.064346
     4  C   -0.052564
     5  C   -0.090835
     6  N   -0.216103
     7  C   -0.128378
     8  C    0.063370
     9  C   -0.040816
    10  C    0.076629
    11  C    0.142615
    12  C    0.113385
    13  C    0.168365
    14  C    0.086541
    15  O   -0.220547
    16  O   -0.317253
    17  N   -0.285490
    18  C    0.086985
    19  C   -0.115129
    20  C    0.044108
    21  C    0.115588
    22  C    0.183755
    23  C   -0.104416
    24  O   -0.144093
    25  C    0.126355
    26  N   -0.146772
    27  C   -0.034124
    28  C    0.035851
    29  C    0.061249
    30  C   -0.038030
    31  C    0.126340
    32  C    0.077996
    33  C    0.056983
    34  N   -0.272049
    35  C    0.149895
    36  C   -0.197637
    37  C    0.131701
    38  C    0.028316
    39  C    0.195741
    40  C   -0.090777
    41  O   -0.147968
    42  C    0.075308
    43  C    0.099083
    44  O   -0.190354
    45  O   -0.283326
    46  C    0.224054
    47  C    0.313160
    48  C   -0.110619
    49  C   -0.154097
    50  C    0.134167
    51  C    0.156856
    52  C    0.102309
    53  C    0.110825
    54  C   -0.060354
    55  C    0.108773
    56  C    0.039185
    57  C    0.087195
    58  C    0.079982
    59  C   -0.077496
    60  C    0.106616
    61  C    0.102998
    62  C    0.073783
    63  C    0.097517
    64  C   -0.106881
    65  C    0.130239
    66  C    0.101720
    67  H   -0.053080
    68  H   -0.105186
    69  H   -0.081168
    70  H   -0.022517
    71  H   -0.010658
    72  H    0.002505
    73  H   -0.018375
    74  H   -0.008234
    75  H   -0.006620
    76  H   -0.020870
    77  H   -0.017035
    78  H    0.019599
    79  H    0.016693
    80  H   -0.030378
    81  H   -0.000147
    82  H    0.018328
    83  H    0.010715
    84  H   -0.013787
    85  H   -0.015635
    86  H   -0.018265
    87  H   -0.015468
    88  H    0.013517
    89  H   -0.012404
    90  H   -0.012987
    91  H   -0.014848
    92  H   -0.010317
    93  H   -0.004464
    94  H   -0.001398
    95  H   -0.000932
    96  H    0.018032
    97  H    0.017102
    98  H    0.007919
    99  H    0.021458
   100  H    0.004305
   101  H    0.023176
   102  H   -0.002806
   103  H    0.014867
   104  H   -0.045203
   105  H   -0.018115
   106  H    0.006401
   107  H   -0.001629
   108  H   -0.013632
   109  H   -0.047434
   110  H   -0.022279
   111  H   -0.018346
   112  H   -0.044130
   113  H   -0.039035
   114  H   -0.035616
   115  H   -0.013062
   116  H   -0.028432
   117  H   -0.019973
   118  H   -0.046484
   119  H   -0.032190
   120  H   -0.031859
   121  H   -0.029424
   122  H   -0.003624
   123  H   -0.037684
   124  H   -0.011467
   125  H   -0.009934
   126  H   -0.028080
   127  H   -0.028411
   128  H   -0.035552
   129  H   -0.043210
   130  H   -0.026495
   131  H   -0.037914
   132  H   -0.060336
   133  H   -0.034685
   134  H   -0.030086
   135  H   -0.006215
   136  H   -0.029487
   137  H   -0.026348
   138  H   -0.021169
   139  H   -0.016646
   140  H   -0.005622
 Sum of Mulliken charges =  -0.00000

 Dipole moment (field-independent basis, Debye):
    X=              2.2400    Y=              4.1639    Z=              1.5116  Tot=              4.9640
 Quadrupole moment (field-independent basis, Debye-Ang):
   XX=           -360.1524   YY=           -439.8811   ZZ=           -408.4984
   XY=             16.0287   XZ=             12.1142   YZ=             40.1225

 Normal termination of Gaussian 16 at Sat Apr 30 00:01:03 2022.
