 Gaussian 16, Revision A.03,
 Gaussian 16:  ES64L-G16RevA.03 25-Dec-2016

 -----------------------------------
 #p cam-b3lyp/Def2SVP td=(nstates=5)
 -----------------------------------

 ------------------------------------------------------
 step_501_chromophore_5 TDDFT with cam-b3lyp functional
 ------------------------------------------------------
 Symbolic Z-matrix:
 Charge =  0 Multiplicity = 1

                         Standard orientation:
 ---------------------------------------------------------------------
 Center     Atomic      Atomic             Coordinates (Angstroms)
 Number     Number       Type             X           Y           Z
 ---------------------------------------------------------------------
      1         12           0        5.322421    0.506490   -0.261923
      2          6           0        3.738552   -2.489828    0.346123
      3          6           0        3.623597    0.724815   -3.216686
      4          6           0        5.849262    3.765942   -0.156433
      5          6           0        6.951110    0.139765    2.826826
      6          7           0        3.501962   -0.565684   -1.037441
      7          6           0        3.212067   -1.862200   -0.756335
      8          6           0        2.243733   -2.464857   -1.730784
      9          6           0        2.579163   -1.616379   -2.999885
     10          6           0        3.348052   -0.444456   -2.407856
     11          6           0        3.335851   -2.425723   -4.091854
     12          6           0        0.712926   -2.261882   -1.273210
     13          6           0       -0.277279   -3.463039   -1.638190
     14          6           0       -1.359047   -2.916298   -2.536462
     15          8           0       -1.113635   -2.581891   -3.710403
     16          8           0       -2.643660   -2.823856   -1.884825
     17          7           0        4.969158    1.992470   -1.625857
     18          6           0        4.198539    1.961213   -2.735238
     19          6           0        4.145701    3.275526   -3.362914
     20          6           0        4.818694    4.162281   -2.497482
     21          6           0        5.243106    3.301933   -1.357502
     22          6           0        3.383053    3.499203   -4.691300
     23          6           0        4.810581    5.653284   -2.689137
     24          8           0        4.280202    6.123178   -3.661835
     25          6           0        5.399676    6.667999   -1.690681
     26          7           0        6.391838    1.813976    1.076583
     27          6           0        6.436949    3.059333    0.900898
     28          6           0        7.051176    3.794623    2.034203
     29          6           0        7.438214    2.628086    3.025838
     30          6           0        6.913705    1.464410    2.303001
     31          6           0        8.209474    4.734250    1.556430
     32          6           0        6.764908    2.813561    4.463869
     33          6           0        7.389487    2.016861    5.664073
     34          7           0        5.444284   -0.883705    1.258566
     35          6           0        6.230436   -0.935140    2.395329
     36          6           0        6.107805   -2.214452    3.037422
     37          6           0        5.147403   -2.904519    2.217807
     38          6           0        4.715482   -2.025769    1.243205
     39          6           0        6.816269   -2.698401    4.261440
     40          6           0        4.475020   -4.146665    2.051570
     41          8           0        4.460418   -5.223249    2.662150
     42          6           0        3.394516   -3.868431    0.954703
     43          6           0        3.422839   -5.034114    0.023272
     44          8           0        2.684854   -6.025765    0.108215
     45          8           0        4.420421   -4.866638   -0.897104
     46          6           0        4.464064   -6.061277   -1.786371
     47          6           0       -3.799327   -2.337881   -2.699099
     48          6           0       -4.712456   -1.567572   -1.756609
     49          6           0       -4.368398   -0.496334   -1.036546
     50          6           0       -2.897499    0.049910   -0.940660
     51          6           0       -5.451083    0.144592   -0.232298
     52          6           0       -5.323142   -0.317081    1.179139
     53          6           0       -6.718058   -0.427602    1.848226
     54          6           0       -7.154436    0.916282    2.398237
     55          6           0       -6.963245    0.902010    3.940528
     56          6           0       -8.720904    1.127170    2.023233
     57          6           0       -9.011574    1.397855    0.522115
     58          6           0       -9.674212    0.170373   -0.106858
     59          6           0      -11.106960    0.631345   -0.597889
     60          6           0      -11.126027    0.585935   -2.169786
     61          6           0      -12.085620   -0.412876    0.079346
     62          6           0      -12.317467   -0.023360    1.607497
     63          6           0      -13.672525    0.543585    1.923285
     64          6           0      -14.088721    1.881974    1.120153
     65          6           0      -14.809038    2.881780    1.980356
     66          6           0      -15.005150    1.418305   -0.056143
     67          1           0        3.243228    0.833767   -4.234850
     68          1           0        5.955993    4.851634   -0.121473
     69          1           0        7.348929    0.083892    3.842990
     70          1           0        2.592468   -3.490419   -1.845291
     71          1           0        1.648508   -1.309572   -3.477509
     72          1           0        2.714237   -2.494038   -4.984151
     73          1           0        3.439851   -3.445250   -3.719131
     74          1           0        4.307541   -1.953752   -4.233929
     75          1           0        0.243374   -1.322033   -1.563174
     76          1           0        0.653107   -2.163935   -0.189746
     77          1           0       -0.739241   -3.722628   -0.685547
     78          1           0        0.126666   -4.402218   -2.016348
     79          1           0        2.580501    4.235032   -4.642011
     80          1           0        2.986427    2.585614   -5.135570
     81          1           0        4.122025    3.816810   -5.426173
     82          1           0        6.479166    6.579142   -1.573041
     83          1           0        4.924592    6.644202   -0.709630
     84          1           0        5.063429    7.637689   -2.059013
     85          1           0        6.216231    4.364686    2.441412
     86          1           0        8.493184    2.391595    3.162349
     87          1           0        7.938089    5.745874    1.857409
     88          1           0        8.365377    4.673205    0.479215
     89          1           0        9.133233    4.628013    2.124973
     90          1           0        5.711015    2.537881    4.420771
     91          1           0        6.818553    3.882139    4.666906
     92          1           0        7.793112    2.534111    6.534066
     93          1           0        8.250141    1.438321    5.331208
     94          1           0        6.662627    1.310580    6.065284
     95          1           0        7.623088   -2.071039    4.639828
     96          1           0        7.164280   -3.661369    3.889877
     97          1           0        5.961288   -2.858763    4.918371
     98          1           0        2.387319   -3.718173    1.344856
     99          1           0        4.827332   -6.918680   -1.220701
    100          1           0        5.235031   -5.987806   -2.553418
    101          1           0        3.470406   -6.186922   -2.216943
    102          1           0       -4.220343   -3.243703   -3.132516
    103          1           0       -3.524077   -1.551922   -3.402578
    104          1           0       -5.762933   -1.855477   -1.812855
    105          1           0       -3.077225    1.087439   -1.221870
    106          1           0       -2.238537   -0.491115   -1.619192
    107          1           0       -2.431440    0.239660    0.026243
    108          1           0       -6.356728    0.067044   -0.833413
    109          1           0       -5.219976    1.209467   -0.249098
    110          1           0       -4.689928    0.401873    1.698621
    111          1           0       -4.999383   -1.351684    1.288257
    112          1           0       -6.759019   -1.164041    2.651730
    113          1           0       -7.443726   -0.783998    1.117354
    114          1           0       -6.577092    1.731261    1.962287
    115          1           0       -7.326575   -0.005889    4.421219
    116          1           0       -7.505376    1.689189    4.465868
    117          1           0       -5.908028    1.112009    4.113496
    118          1           0       -9.188841    1.885623    2.650543
    119          1           0       -9.230937    0.251135    2.424076
    120          1           0       -8.163405    1.632717   -0.120522
    121          1           0       -9.628677    2.296705    0.532587
    122          1           0       -9.664439   -0.686338    0.566794
    123          1           0       -9.096348   -0.145652   -0.974990
    124          1           0      -11.327513    1.628334   -0.215787
    125          1           0      -11.390538   -0.390297   -2.576845
    126          1           0      -10.215931    0.918254   -2.669118
    127          1           0      -11.762905    1.347295   -2.619293
    128          1           0      -11.721700   -1.439979    0.070919
    129          1           0      -12.976296   -0.475797   -0.544486
    130          1           0      -11.568761    0.703654    1.922084
    131          1           0      -12.136139   -0.863676    2.277173
    132          1           0      -13.737855    0.847805    2.967152
    133          1           0      -14.415026   -0.255038    1.940817
    134          1           0      -13.186341    2.382748    0.770290
    135          1           0      -14.992827    2.645384    3.028216
    136          1           0      -15.745888    3.085232    1.461158
    137          1           0      -14.228377    3.802289    1.930568
    138          1           0      -14.567524    1.784316   -0.985222
    139          1           0      -16.034652    1.766150    0.022871
    140          1           0      -15.023770    0.341522   -0.217348
 ---------------------------------------------------------------------

 SCF Done:  E(RCAM-B3LYP) =  -3007.12555761     A.U. after   19 cycles

 Excitation energies and oscillator strengths:

 Excited State   1:      Singlet-A      1.6937 eV  732.05 nm  f=0.3486  <S**2>=0.000
     245 -> 248        0.16401
     246 -> 247        0.68795
     245 <- 248        0.10122
 This state for optimization and/or second-order correction.
 Total Energy, E(TD-HF/TD-DFT) =  -3007.06331693
 Copying the excited state density for this state as the 1-particle RhoCI density.

 Excited State   2:      Singlet-A      2.2139 eV  560.02 nm  f=0.1084  <S**2>=0.000
     245 -> 247        0.64137
     246 -> 248       -0.27912

 Excited State   3:      Singlet-A      3.3729 eV  367.59 nm  f=0.0019  <S**2>=0.000
     241 -> 247        0.16916
     244 -> 247        0.65127

 Excited State   4:      Singlet-A      3.4711 eV  357.19 nm  f=0.3855  <S**2>=0.000
     240 -> 247        0.28516
     241 -> 247       -0.21299
     242 -> 247        0.20981
     245 -> 247        0.20031
     246 -> 248        0.52137

 Excited State   5:      Singlet-A      3.5340 eV  350.83 nm  f=0.1570  <S**2>=0.000
     242 -> 247        0.50890
     242 -> 249        0.25873
     242 -> 251       -0.13601
     245 -> 247       -0.13529
     246 -> 248       -0.28229

 The electronic state is 1-A.
 Alpha  occ. eigenvalues --  -46.89197 -19.25565 -19.24307 -19.20184 -19.19510
 Alpha  occ. eigenvalues --  -19.19081 -19.17884 -14.42085 -14.41868 -14.40281
 Alpha  occ. eigenvalues --  -14.38572 -10.39684 -10.38692 -10.35745 -10.34064
 Alpha  occ. eigenvalues --  -10.32251 -10.31731 -10.31712 -10.31683 -10.30966
 Alpha  occ. eigenvalues --  -10.30681 -10.30217 -10.29960 -10.29363 -10.28385
 Alpha  occ. eigenvalues --  -10.28345 -10.28237 -10.28181 -10.28148 -10.28027
 Alpha  occ. eigenvalues --  -10.27938 -10.27796 -10.27667 -10.27583 -10.27496
 Alpha  occ. eigenvalues --  -10.27349 -10.27287 -10.27142 -10.26990 -10.26893
 Alpha  occ. eigenvalues --  -10.26652 -10.26636 -10.26627 -10.26501 -10.26278
 Alpha  occ. eigenvalues --  -10.26190 -10.26157 -10.26104 -10.25845 -10.25739
 Alpha  occ. eigenvalues --  -10.25553 -10.25184 -10.24997 -10.24971 -10.24900
 Alpha  occ. eigenvalues --  -10.24845 -10.24591 -10.24584 -10.24497 -10.24403
 Alpha  occ. eigenvalues --  -10.24325 -10.24315 -10.24211 -10.24167 -10.23973
 Alpha  occ. eigenvalues --  -10.23878  -3.17770  -1.92658  -1.92239  -1.92061
 Alpha  occ. eigenvalues --   -1.15962  -1.13226  -1.11944  -1.08095  -1.07032
 Alpha  occ. eigenvalues --   -1.06456  -1.06453  -1.04569  -1.03914  -1.02798
 Alpha  occ. eigenvalues --   -0.92491  -0.91058  -0.89717  -0.89333  -0.88696
 Alpha  occ. eigenvalues --   -0.88665  -0.88140  -0.87339  -0.86925  -0.86850
 Alpha  occ. eigenvalues --   -0.86604  -0.85459  -0.83930  -0.83772  -0.83249
 Alpha  occ. eigenvalues --   -0.82298  -0.82112  -0.81197  -0.80565  -0.80378
 Alpha  occ. eigenvalues --   -0.79428  -0.78431  -0.77991  -0.77634  -0.76027
 Alpha  occ. eigenvalues --   -0.75861  -0.75568  -0.75118  -0.74692  -0.73553
 Alpha  occ. eigenvalues --   -0.73009  -0.72404  -0.72121  -0.70629  -0.70474
 Alpha  occ. eigenvalues --   -0.69065  -0.68034  -0.67774  -0.66851  -0.66810
 Alpha  occ. eigenvalues --   -0.65359  -0.65306  -0.64839  -0.64448  -0.63891
 Alpha  occ. eigenvalues --   -0.63375  -0.62788  -0.62660  -0.62404  -0.60493
 Alpha  occ. eigenvalues --   -0.59555  -0.59179  -0.58765  -0.58492  -0.57968
 Alpha  occ. eigenvalues --   -0.56994  -0.56908  -0.56610  -0.56562  -0.56165
 Alpha  occ. eigenvalues --   -0.55607  -0.55064  -0.54316  -0.54208  -0.53731
 Alpha  occ. eigenvalues --   -0.53073  -0.52960  -0.52898  -0.52594  -0.52483
 Alpha  occ. eigenvalues --   -0.52317  -0.51881  -0.51819  -0.51644  -0.51463
 Alpha  occ. eigenvalues --   -0.51197  -0.51147  -0.51048  -0.50603  -0.50393
 Alpha  occ. eigenvalues --   -0.50374  -0.49998  -0.49973  -0.49860  -0.49762
 Alpha  occ. eigenvalues --   -0.49193  -0.49077  -0.48901  -0.48687  -0.48573
 Alpha  occ. eigenvalues --   -0.48485  -0.48322  -0.47866  -0.47613  -0.47571
 Alpha  occ. eigenvalues --   -0.47498  -0.47364  -0.46865  -0.46845  -0.46760
 Alpha  occ. eigenvalues --   -0.46486  -0.46125  -0.45975  -0.45792  -0.45747
 Alpha  occ. eigenvalues --   -0.45574  -0.45407  -0.45251  -0.45139  -0.45077
 Alpha  occ. eigenvalues --   -0.44808  -0.44679  -0.44373  -0.44284  -0.44239
 Alpha  occ. eigenvalues --   -0.44007  -0.43692  -0.43663  -0.43258  -0.43163
 Alpha  occ. eigenvalues --   -0.42899  -0.42771  -0.42622  -0.42361  -0.42180
 Alpha  occ. eigenvalues --   -0.42083  -0.41958  -0.41705  -0.41464  -0.41266
 Alpha  occ. eigenvalues --   -0.41137  -0.40756  -0.40677  -0.40152  -0.39990
 Alpha  occ. eigenvalues --   -0.39839  -0.39784  -0.39607  -0.39343  -0.39327
 Alpha  occ. eigenvalues --   -0.38746  -0.38595  -0.38249  -0.37950  -0.37388
 Alpha  occ. eigenvalues --   -0.37147  -0.36830  -0.36747  -0.36694  -0.36190
 Alpha  occ. eigenvalues --   -0.35668  -0.35019  -0.34988  -0.34441  -0.33875
 Alpha  occ. eigenvalues --   -0.33590  -0.33388  -0.32372  -0.31893  -0.31366
 Alpha  occ. eigenvalues --   -0.30585  -0.30041  -0.29493  -0.28932  -0.24164
 Alpha  occ. eigenvalues --   -0.21147
 Alpha virt. eigenvalues --   -0.08761  -0.01784   0.00207   0.01716   0.02352
 Alpha virt. eigenvalues --    0.03820   0.05054   0.05746   0.05902   0.06150
 Alpha virt. eigenvalues --    0.08089   0.08544   0.08727   0.08783   0.08871

 Mulliken charges:
               1
     1  Mg   0.827555
     2  C    0.029694
     3  C   -0.079773
     4  C   -0.070937
     5  C   -0.085160
     6  N   -0.280748
     7  C   -0.082760
     8  C    0.010651
     9  C   -0.096867
    10  C    0.095475
    11  C    0.090529
    12  C    0.066508
    13  C    0.095350
    14  C    0.166929
    15  O   -0.261141
    16  O   -0.382789
    17  N   -0.375596
    18  C    0.100090
    19  C   -0.121637
    20  C   -0.020258
    21  C    0.148179
    22  C    0.132590
    23  C   -0.028726
    24  O   -0.181008
    25  C    0.044507
    26  N   -0.219659
    27  C   -0.003540
    28  C   -0.028980
    29  C    0.002068
    30  C   -0.021029
    31  C    0.065901
    32  C    0.026881
    33  C   -0.008560
    34  N   -0.361795
    35  C    0.142582
    36  C   -0.190337
    37  C    0.039801
    38  C    0.069683
    39  C    0.143879
    40  C    0.011104
    41  O   -0.190046
    42  C    0.005138
    43  C    0.178463
    44  O   -0.228599
    45  O   -0.342454
    46  C    0.180597
    47  C    0.278654
    48  C   -0.134990
    49  C   -0.171536
    50  C    0.085297
    51  C    0.093293
    52  C    0.048539
    53  C    0.056042
    54  C   -0.114156
    55  C    0.052542
    56  C   -0.008762
    57  C    0.030587
    58  C    0.027729
    59  C   -0.128230
    60  C    0.050214
    61  C    0.045691
    62  C    0.024416
    63  C    0.047765
    64  C   -0.168902
    65  C    0.071034
    66  C    0.042903
    67  H   -0.019015
    68  H   -0.067319
    69  H   -0.047220
    70  H    0.008974
    71  H    0.027171
    72  H    0.027695
    73  H    0.004284
    74  H    0.017177
    75  H    0.020139
    76  H    0.010668
    77  H    0.021787
    78  H    0.050261
    79  H    0.045915
    80  H   -0.001260
    81  H    0.028953
    82  H    0.045501
    83  H    0.039134
    84  H    0.024515
    85  H    0.019701
    86  H    0.015973
    87  H    0.008738
    88  H    0.037056
    89  H    0.015526
    90  H    0.015964
    91  H    0.011374
    92  H    0.015911
    93  H    0.015172
    94  H    0.022291
    95  H    0.021392
    96  H    0.042124
    97  H    0.041457
    98  H    0.047112
    99  H    0.046310
   100  H    0.029151
   101  H    0.044362
   102  H    0.026548
   103  H    0.044682
   104  H   -0.011649
   105  H    0.004644
   106  H    0.022201
   107  H    0.023355
   108  H    0.012368
   109  H   -0.017512
   110  H    0.003961
   111  H    0.012771
   112  H   -0.012825
   113  H   -0.012325
   114  H   -0.005705
   115  H    0.009796
   116  H   -0.003039
   117  H    0.004612
   118  H   -0.017186
   119  H   -0.007104
   120  H   -0.004504
   121  H   -0.000043
   122  H    0.020430
   123  H   -0.010060
   124  H    0.014036
   125  H    0.013757
   126  H   -0.003444
   127  H   -0.004108
   128  H   -0.005367
   129  H   -0.014900
   130  H   -0.003340
   131  H   -0.007932
   132  H   -0.029679
   133  H   -0.006456
   134  H    0.000554
   135  H    0.017544
   136  H   -0.004855
   137  H   -0.001745
   138  H    0.001694
   139  H    0.008097
   140  H    0.015876
 Sum of Mulliken charges =  -0.00000

 Dipole moment (field-independent basis, Debye):
    X=              2.2304    Y=              5.4055    Z=              0.6436  Tot=              5.8829
 Quadrupole moment (field-independent basis, Debye-Ang):
   XX=           -359.5496   YY=           -435.8214   ZZ=           -407.0241
   XY=             22.6682   XZ=              8.2416   YZ=             40.6977

 Normal termination of Gaussian 16 at Fri Apr 29 22:50:33 2022.
