 Gaussian 16, Revision A.03,
 Gaussian 16:  ES64L-G16RevA.03 25-Dec-2016

 ---------------------------------
 #p PBE1PBE/Def2SVP td=(nstates=5)
 ---------------------------------

 ----------------------------------------------------
 step_501_chromophore_5 TDDFT with PBE1PBE functional
 ----------------------------------------------------
 Symbolic Z-matrix:
 Charge =  0 Multiplicity = 1

                         Standard orientation:
 ---------------------------------------------------------------------
 Center     Atomic      Atomic             Coordinates (Angstroms)
 Number     Number       Type             X           Y           Z
 ---------------------------------------------------------------------
      1         12           0        5.322421    0.506490   -0.261923
      2          6           0        3.738552   -2.489828    0.346123
      3          6           0        3.623597    0.724815   -3.216686
      4          6           0        5.849262    3.765942   -0.156433
      5          6           0        6.951110    0.139765    2.826826
      6          7           0        3.501962   -0.565684   -1.037441
      7          6           0        3.212067   -1.862200   -0.756335
      8          6           0        2.243733   -2.464857   -1.730784
      9          6           0        2.579163   -1.616379   -2.999885
     10          6           0        3.348052   -0.444456   -2.407856
     11          6           0        3.335851   -2.425723   -4.091854
     12          6           0        0.712926   -2.261882   -1.273210
     13          6           0       -0.277279   -3.463039   -1.638190
     14          6           0       -1.359047   -2.916298   -2.536462
     15          8           0       -1.113635   -2.581891   -3.710403
     16          8           0       -2.643660   -2.823856   -1.884825
     17          7           0        4.969158    1.992470   -1.625857
     18          6           0        4.198539    1.961213   -2.735238
     19          6           0        4.145701    3.275526   -3.362914
     20          6           0        4.818694    4.162281   -2.497482
     21          6           0        5.243106    3.301933   -1.357502
     22          6           0        3.383053    3.499203   -4.691300
     23          6           0        4.810581    5.653284   -2.689137
     24          8           0        4.280202    6.123178   -3.661835
     25          6           0        5.399676    6.667999   -1.690681
     26          7           0        6.391838    1.813976    1.076583
     27          6           0        6.436949    3.059333    0.900898
     28          6           0        7.051176    3.794623    2.034203
     29          6           0        7.438214    2.628086    3.025838
     30          6           0        6.913705    1.464410    2.303001
     31          6           0        8.209474    4.734250    1.556430
     32          6           0        6.764908    2.813561    4.463869
     33          6           0        7.389487    2.016861    5.664073
     34          7           0        5.444284   -0.883705    1.258566
     35          6           0        6.230436   -0.935140    2.395329
     36          6           0        6.107805   -2.214452    3.037422
     37          6           0        5.147403   -2.904519    2.217807
     38          6           0        4.715482   -2.025769    1.243205
     39          6           0        6.816269   -2.698401    4.261440
     40          6           0        4.475020   -4.146665    2.051570
     41          8           0        4.460418   -5.223249    2.662150
     42          6           0        3.394516   -3.868431    0.954703
     43          6           0        3.422839   -5.034114    0.023272
     44          8           0        2.684854   -6.025765    0.108215
     45          8           0        4.420421   -4.866638   -0.897104
     46          6           0        4.464064   -6.061277   -1.786371
     47          6           0       -3.799327   -2.337881   -2.699099
     48          6           0       -4.712456   -1.567572   -1.756609
     49          6           0       -4.368398   -0.496334   -1.036546
     50          6           0       -2.897499    0.049910   -0.940660
     51          6           0       -5.451083    0.144592   -0.232298
     52          6           0       -5.323142   -0.317081    1.179139
     53          6           0       -6.718058   -0.427602    1.848226
     54          6           0       -7.154436    0.916282    2.398237
     55          6           0       -6.963245    0.902010    3.940528
     56          6           0       -8.720904    1.127170    2.023233
     57          6           0       -9.011574    1.397855    0.522115
     58          6           0       -9.674212    0.170373   -0.106858
     59          6           0      -11.106960    0.631345   -0.597889
     60          6           0      -11.126027    0.585935   -2.169786
     61          6           0      -12.085620   -0.412876    0.079346
     62          6           0      -12.317467   -0.023360    1.607497
     63          6           0      -13.672525    0.543585    1.923285
     64          6           0      -14.088721    1.881974    1.120153
     65          6           0      -14.809038    2.881780    1.980356
     66          6           0      -15.005150    1.418305   -0.056143
     67          1           0        3.243228    0.833767   -4.234850
     68          1           0        5.955993    4.851634   -0.121473
     69          1           0        7.348929    0.083892    3.842990
     70          1           0        2.592468   -3.490419   -1.845291
     71          1           0        1.648508   -1.309572   -3.477509
     72          1           0        2.714237   -2.494038   -4.984151
     73          1           0        3.439851   -3.445250   -3.719131
     74          1           0        4.307541   -1.953752   -4.233929
     75          1           0        0.243374   -1.322033   -1.563174
     76          1           0        0.653107   -2.163935   -0.189746
     77          1           0       -0.739241   -3.722628   -0.685547
     78          1           0        0.126666   -4.402218   -2.016348
     79          1           0        2.580501    4.235032   -4.642011
     80          1           0        2.986427    2.585614   -5.135570
     81          1           0        4.122025    3.816810   -5.426173
     82          1           0        6.479166    6.579142   -1.573041
     83          1           0        4.924592    6.644202   -0.709630
     84          1           0        5.063429    7.637689   -2.059013
     85          1           0        6.216231    4.364686    2.441412
     86          1           0        8.493184    2.391595    3.162349
     87          1           0        7.938089    5.745874    1.857409
     88          1           0        8.365377    4.673205    0.479215
     89          1           0        9.133233    4.628013    2.124973
     90          1           0        5.711015    2.537881    4.420771
     91          1           0        6.818553    3.882139    4.666906
     92          1           0        7.793112    2.534111    6.534066
     93          1           0        8.250141    1.438321    5.331208
     94          1           0        6.662627    1.310580    6.065284
     95          1           0        7.623088   -2.071039    4.639828
     96          1           0        7.164280   -3.661369    3.889877
     97          1           0        5.961288   -2.858763    4.918371
     98          1           0        2.387319   -3.718173    1.344856
     99          1           0        4.827332   -6.918680   -1.220701
    100          1           0        5.235031   -5.987806   -2.553418
    101          1           0        3.470406   -6.186922   -2.216943
    102          1           0       -4.220343   -3.243703   -3.132516
    103          1           0       -3.524077   -1.551922   -3.402578
    104          1           0       -5.762933   -1.855477   -1.812855
    105          1           0       -3.077225    1.087439   -1.221870
    106          1           0       -2.238537   -0.491115   -1.619192
    107          1           0       -2.431440    0.239660    0.026243
    108          1           0       -6.356728    0.067044   -0.833413
    109          1           0       -5.219976    1.209467   -0.249098
    110          1           0       -4.689928    0.401873    1.698621
    111          1           0       -4.999383   -1.351684    1.288257
    112          1           0       -6.759019   -1.164041    2.651730
    113          1           0       -7.443726   -0.783998    1.117354
    114          1           0       -6.577092    1.731261    1.962287
    115          1           0       -7.326575   -0.005889    4.421219
    116          1           0       -7.505376    1.689189    4.465868
    117          1           0       -5.908028    1.112009    4.113496
    118          1           0       -9.188841    1.885623    2.650543
    119          1           0       -9.230937    0.251135    2.424076
    120          1           0       -8.163405    1.632717   -0.120522
    121          1           0       -9.628677    2.296705    0.532587
    122          1           0       -9.664439   -0.686338    0.566794
    123          1           0       -9.096348   -0.145652   -0.974990
    124          1           0      -11.327513    1.628334   -0.215787
    125          1           0      -11.390538   -0.390297   -2.576845
    126          1           0      -10.215931    0.918254   -2.669118
    127          1           0      -11.762905    1.347295   -2.619293
    128          1           0      -11.721700   -1.439979    0.070919
    129          1           0      -12.976296   -0.475797   -0.544486
    130          1           0      -11.568761    0.703654    1.922084
    131          1           0      -12.136139   -0.863676    2.277173
    132          1           0      -13.737855    0.847805    2.967152
    133          1           0      -14.415026   -0.255038    1.940817
    134          1           0      -13.186341    2.382748    0.770290
    135          1           0      -14.992827    2.645384    3.028216
    136          1           0      -15.745888    3.085232    1.461158
    137          1           0      -14.228377    3.802289    1.930568
    138          1           0      -14.567524    1.784316   -0.985222
    139          1           0      -16.034652    1.766150    0.022871
    140          1           0      -15.023770    0.341522   -0.217348
 ---------------------------------------------------------------------

 SCF Done:  E(RPBE1PBE) =  -3005.31442445     A.U. after   16 cycles

 Excitation energies and oscillator strengths:

 Excited State   1:      Singlet-A      1.7993 eV  689.08 nm  f=0.3370  <S**2>=0.000
     245 -> 248        0.16143
     246 -> 247        0.69475
     246 <- 247       -0.10839
 This state for optimization and/or second-order correction.
 Total Energy, E(TD-HF/TD-DFT) =  -3005.24830206
 Copying the excited state density for this state as the 1-particle RhoCI density.

 Excited State   2:      Singlet-A      2.2000 eV  563.55 nm  f=0.1051  <S**2>=0.000
     245 -> 247        0.65403
     246 -> 248       -0.25134

 Excited State   3:      Singlet-A      2.8877 eV  429.36 nm  f=0.0042  <S**2>=0.000
     242 -> 247        0.20155
     242 -> 249        0.11426
     243 -> 247        0.18087
     244 -> 247        0.62411

 Excited State   4:      Singlet-A      3.0355 eV  408.45 nm  f=0.0013  <S**2>=0.000
     242 -> 247        0.64915
     244 -> 247       -0.21688

 Excited State   5:      Singlet-A      3.1322 eV  395.83 nm  f=0.0005  <S**2>=0.000
     240 -> 247        0.49928
     240 -> 249       -0.10255
     240 -> 250        0.11025
     241 -> 247        0.44237

 The electronic state is 1-A.
 Alpha  occ. eigenvalues --  -46.92560 -19.26303 -19.25045 -19.20464 -19.19481
 Alpha  occ. eigenvalues --  -19.19396 -19.18457 -14.41485 -14.41431 -14.39709
 Alpha  occ. eigenvalues --  -14.38434 -10.36756 -10.35864 -10.32594 -10.31482
 Alpha  occ. eigenvalues --  -10.29694 -10.29124 -10.29003 -10.28983 -10.28280
 Alpha  occ. eigenvalues --  -10.28163 -10.28103 -10.27879 -10.26604 -10.26485
 Alpha  occ. eigenvalues --  -10.26150 -10.26126 -10.26084 -10.25962 -10.25887
 Alpha  occ. eigenvalues --  -10.25821 -10.25354 -10.25318 -10.25212 -10.25146
 Alpha  occ. eigenvalues --  -10.25111 -10.25080 -10.24638 -10.24598 -10.24578
 Alpha  occ. eigenvalues --  -10.24417 -10.24322 -10.23894 -10.23864 -10.23836
 Alpha  occ. eigenvalues --  -10.23756 -10.23674 -10.23552 -10.23414 -10.23268
 Alpha  occ. eigenvalues --  -10.23247 -10.22731 -10.22558 -10.22535 -10.22530
 Alpha  occ. eigenvalues --  -10.22492 -10.22371 -10.22192 -10.22062 -10.21995
 Alpha  occ. eigenvalues --  -10.21883 -10.21788 -10.21779 -10.21721 -10.21373
 Alpha  occ. eigenvalues --  -10.21260  -3.14713  -1.87540  -1.87101  -1.86927
 Alpha  occ. eigenvalues --   -1.10830  -1.07988  -1.06396  -1.03115  -1.01661
 Alpha  occ. eigenvalues --   -1.01404  -1.01317  -0.99046  -0.98515  -0.97671
 Alpha  occ. eigenvalues --   -0.87069  -0.85193  -0.84087  -0.83401  -0.82951
 Alpha  occ. eigenvalues --   -0.82896  -0.82248  -0.81685  -0.81164  -0.81053
 Alpha  occ. eigenvalues --   -0.80768  -0.79670  -0.78205  -0.78088  -0.77469
 Alpha  occ. eigenvalues --   -0.76485  -0.76316  -0.75277  -0.74778  -0.74658
 Alpha  occ. eigenvalues --   -0.73622  -0.72847  -0.72272  -0.71700  -0.70407
 Alpha  occ. eigenvalues --   -0.70068  -0.69853  -0.69192  -0.68820  -0.67728
 Alpha  occ. eigenvalues --   -0.67456  -0.66769  -0.66521  -0.64949  -0.64854
 Alpha  occ. eigenvalues --   -0.63480  -0.62396  -0.61998  -0.61337  -0.61039
 Alpha  occ. eigenvalues --   -0.59819  -0.59476  -0.59418  -0.59044  -0.58024
 Alpha  occ. eigenvalues --   -0.57607  -0.57188  -0.57050  -0.56915  -0.54908
 Alpha  occ. eigenvalues --   -0.54163  -0.53735  -0.53351  -0.52886  -0.52572
 Alpha  occ. eigenvalues --   -0.51435  -0.51403  -0.51181  -0.50908  -0.50735
 Alpha  occ. eigenvalues --   -0.50241  -0.49557  -0.48943  -0.48701  -0.48434
 Alpha  occ. eigenvalues --   -0.47632  -0.47452  -0.47301  -0.47261  -0.46857
 Alpha  occ. eigenvalues --   -0.46665  -0.46453  -0.46318  -0.46152  -0.46017
 Alpha  occ. eigenvalues --   -0.45892  -0.45731  -0.45544  -0.45327  -0.44898
 Alpha  occ. eigenvalues --   -0.44754  -0.44599  -0.44487  -0.44400  -0.44250
 Alpha  occ. eigenvalues --   -0.43877  -0.43752  -0.43627  -0.43286  -0.43187
 Alpha  occ. eigenvalues --   -0.43121  -0.42953  -0.42502  -0.42232  -0.42170
 Alpha  occ. eigenvalues --   -0.42117  -0.41981  -0.41555  -0.41529  -0.41361
 Alpha  occ. eigenvalues --   -0.41095  -0.40929  -0.40800  -0.40510  -0.40330
 Alpha  occ. eigenvalues --   -0.40293  -0.40037  -0.39961  -0.39762  -0.39746
 Alpha  occ. eigenvalues --   -0.39503  -0.39389  -0.39181  -0.39079  -0.39019
 Alpha  occ. eigenvalues --   -0.38701  -0.38482  -0.38295  -0.38227  -0.37989
 Alpha  occ. eigenvalues --   -0.37575  -0.37495  -0.37450  -0.37209  -0.37042
 Alpha  occ. eigenvalues --   -0.36906  -0.36841  -0.36542  -0.36204  -0.36180
 Alpha  occ. eigenvalues --   -0.35840  -0.35738  -0.35600  -0.34901  -0.34815
 Alpha  occ. eigenvalues --   -0.34661  -0.34594  -0.34529  -0.34210  -0.34129
 Alpha  occ. eigenvalues --   -0.33581  -0.33492  -0.33223  -0.32728  -0.32227
 Alpha  occ. eigenvalues --   -0.32167  -0.31892  -0.31816  -0.31531  -0.31165
 Alpha  occ. eigenvalues --   -0.30527  -0.30260  -0.29925  -0.29381  -0.29071
 Alpha  occ. eigenvalues --   -0.28677  -0.28408  -0.27365  -0.26832  -0.26275
 Alpha  occ. eigenvalues --   -0.26090  -0.25339  -0.24774  -0.24737  -0.21022
 Alpha  occ. eigenvalues --   -0.18740
 Alpha virt. eigenvalues --   -0.11296  -0.05329  -0.04011  -0.02259  -0.00858
 Alpha virt. eigenvalues --   -0.00674   0.00543   0.01259   0.01368   0.02645
 Alpha virt. eigenvalues --    0.04052   0.04691   0.05369   0.05413   0.05442

 Mulliken charges:
               1
     1  Mg   0.974338
     2  C    0.014059
     3  C   -0.063118
     4  C   -0.057061
     5  C   -0.076519
     6  N   -0.366414
     7  C   -0.013037
     8  C   -0.070268
     9  C   -0.165154
    10  C    0.107923
    11  C    0.033210
    12  C    0.020553
    13  C    0.021756
    14  C    0.223797
    15  O   -0.290096
    16  O   -0.407172
    17  N   -0.489555
    18  C    0.117055
    19  C   -0.147541
    20  C   -0.066062
    21  C    0.166863
    22  C    0.076705
    23  C    0.021912
    24  O   -0.216807
    25  C   -0.032882
    26  N   -0.336429
    27  C    0.043058
    28  C   -0.110244
    29  C   -0.083235
    30  C    0.029269
    31  C    0.008664
    32  C   -0.031210
    33  C   -0.080754
    34  N   -0.487218
    35  C    0.162972
    36  C   -0.204311
    37  C   -0.007208
    38  C    0.124158
    39  C    0.087364
    40  C    0.105115
    41  O   -0.232613
    42  C   -0.098336
    43  C    0.256957
    44  O   -0.262656
    45  O   -0.368898
    46  C    0.122810
    47  C    0.231330
    48  C   -0.141564
    49  C   -0.213579
    50  C    0.019692
    51  C    0.023203
    52  C   -0.014826
    53  C   -0.000083
    54  C   -0.200301
    55  C   -0.006200
    56  C   -0.063520
    57  C   -0.030442
    58  C   -0.022935
    59  C   -0.221406
    60  C   -0.007729
    61  C   -0.007107
    62  C   -0.044987
    63  C   -0.006261
    64  C   -0.262981
    65  C    0.014254
    66  C   -0.017074
    67  H    0.013318
    68  H   -0.029663
    69  H   -0.009683
    70  H    0.056158
    71  H    0.063026
    72  H    0.053960
    73  H    0.032813
    74  H    0.044841
    75  H    0.052398
    76  H    0.043000
    77  H    0.055030
    78  H    0.078893
    79  H    0.070907
    80  H    0.023950
    81  H    0.055794
    82  H    0.070909
    83  H    0.063597
    84  H    0.051804
    85  H    0.056329
    86  H    0.052933
    87  H    0.036196
    88  H    0.064661
    89  H    0.042327
    90  H    0.048683
    91  H    0.046326
    92  H    0.044636
    93  H    0.040168
    94  H    0.049674
    95  H    0.048172
    96  H    0.071572
    97  H    0.071258
    98  H    0.085102
    99  H    0.068883
   100  H    0.051750
   101  H    0.065400
   102  H    0.053164
   103  H    0.071598
   104  H    0.018084
   105  H    0.033565
   106  H    0.055619
   107  H    0.049257
   108  H    0.044233
   109  H    0.016656
   110  H    0.036514
   111  H    0.046112
   112  H    0.019301
   113  H    0.027253
   114  H    0.031792
   115  H    0.036015
   116  H    0.025150
   117  H    0.033371
   118  H    0.014433
   119  H    0.025004
   120  H    0.028668
   121  H    0.031726
   122  H    0.048754
   123  H    0.023274
   124  H    0.052439
   125  H    0.040539
   126  H    0.024092
   127  H    0.023901
   128  H    0.027159
   129  H    0.018883
   130  H    0.035251
   131  H    0.024640
   132  H    0.004233
   133  H    0.025811
   134  H    0.039407
   135  H    0.042908
   136  H    0.022714
   137  H    0.026169
   138  H    0.030058
   139  H    0.034648
   140  H    0.041253
 Sum of Mulliken charges =  -0.00000

 Dipole moment (field-independent basis, Debye):
    X=              2.3123    Y=              4.8647    Z=              1.2740  Tot=              5.5349
 Quadrupole moment (field-independent basis, Debye-Ang):
   XX=           -355.0651   YY=           -433.7449   ZZ=           -402.9827
   XY=             20.1991   XZ=             12.0543   YZ=             41.7337

 Normal termination of Gaussian 16 at Fri Apr 29 23:10:59 2022.
