 Gaussian 16, Revision A.03,
 Gaussian 16:  ES64L-G16RevA.03 25-Dec-2016

 --------------------------------
 #p wB97XD/Def2SVP td=(nstates=5)
 --------------------------------

 ---------------------------------------------------
 step_501_chromophore_5 TDDFT with wB97XD functional
 ---------------------------------------------------
 Symbolic Z-matrix:
 Charge =  0 Multiplicity = 1

                         Standard orientation:
 ---------------------------------------------------------------------
 Center     Atomic      Atomic             Coordinates (Angstroms)
 Number     Number       Type             X           Y           Z
 ---------------------------------------------------------------------
      1         12           0        5.322421    0.506490   -0.261923
      2          6           0        3.738552   -2.489828    0.346123
      3          6           0        3.623597    0.724815   -3.216686
      4          6           0        5.849262    3.765942   -0.156433
      5          6           0        6.951110    0.139765    2.826826
      6          7           0        3.501962   -0.565684   -1.037441
      7          6           0        3.212067   -1.862200   -0.756335
      8          6           0        2.243733   -2.464857   -1.730784
      9          6           0        2.579163   -1.616379   -2.999885
     10          6           0        3.348052   -0.444456   -2.407856
     11          6           0        3.335851   -2.425723   -4.091854
     12          6           0        0.712926   -2.261882   -1.273210
     13          6           0       -0.277279   -3.463039   -1.638190
     14          6           0       -1.359047   -2.916298   -2.536462
     15          8           0       -1.113635   -2.581891   -3.710403
     16          8           0       -2.643660   -2.823856   -1.884825
     17          7           0        4.969158    1.992470   -1.625857
     18          6           0        4.198539    1.961213   -2.735238
     19          6           0        4.145701    3.275526   -3.362914
     20          6           0        4.818694    4.162281   -2.497482
     21          6           0        5.243106    3.301933   -1.357502
     22          6           0        3.383053    3.499203   -4.691300
     23          6           0        4.810581    5.653284   -2.689137
     24          8           0        4.280202    6.123178   -3.661835
     25          6           0        5.399676    6.667999   -1.690681
     26          7           0        6.391838    1.813976    1.076583
     27          6           0        6.436949    3.059333    0.900898
     28          6           0        7.051176    3.794623    2.034203
     29          6           0        7.438214    2.628086    3.025838
     30          6           0        6.913705    1.464410    2.303001
     31          6           0        8.209474    4.734250    1.556430
     32          6           0        6.764908    2.813561    4.463869
     33          6           0        7.389487    2.016861    5.664073
     34          7           0        5.444284   -0.883705    1.258566
     35          6           0        6.230436   -0.935140    2.395329
     36          6           0        6.107805   -2.214452    3.037422
     37          6           0        5.147403   -2.904519    2.217807
     38          6           0        4.715482   -2.025769    1.243205
     39          6           0        6.816269   -2.698401    4.261440
     40          6           0        4.475020   -4.146665    2.051570
     41          8           0        4.460418   -5.223249    2.662150
     42          6           0        3.394516   -3.868431    0.954703
     43          6           0        3.422839   -5.034114    0.023272
     44          8           0        2.684854   -6.025765    0.108215
     45          8           0        4.420421   -4.866638   -0.897104
     46          6           0        4.464064   -6.061277   -1.786371
     47          6           0       -3.799327   -2.337881   -2.699099
     48          6           0       -4.712456   -1.567572   -1.756609
     49          6           0       -4.368398   -0.496334   -1.036546
     50          6           0       -2.897499    0.049910   -0.940660
     51          6           0       -5.451083    0.144592   -0.232298
     52          6           0       -5.323142   -0.317081    1.179139
     53          6           0       -6.718058   -0.427602    1.848226
     54          6           0       -7.154436    0.916282    2.398237
     55          6           0       -6.963245    0.902010    3.940528
     56          6           0       -8.720904    1.127170    2.023233
     57          6           0       -9.011574    1.397855    0.522115
     58          6           0       -9.674212    0.170373   -0.106858
     59          6           0      -11.106960    0.631345   -0.597889
     60          6           0      -11.126027    0.585935   -2.169786
     61          6           0      -12.085620   -0.412876    0.079346
     62          6           0      -12.317467   -0.023360    1.607497
     63          6           0      -13.672525    0.543585    1.923285
     64          6           0      -14.088721    1.881974    1.120153
     65          6           0      -14.809038    2.881780    1.980356
     66          6           0      -15.005150    1.418305   -0.056143
     67          1           0        3.243228    0.833767   -4.234850
     68          1           0        5.955993    4.851634   -0.121473
     69          1           0        7.348929    0.083892    3.842990
     70          1           0        2.592468   -3.490419   -1.845291
     71          1           0        1.648508   -1.309572   -3.477509
     72          1           0        2.714237   -2.494038   -4.984151
     73          1           0        3.439851   -3.445250   -3.719131
     74          1           0        4.307541   -1.953752   -4.233929
     75          1           0        0.243374   -1.322033   -1.563174
     76          1           0        0.653107   -2.163935   -0.189746
     77          1           0       -0.739241   -3.722628   -0.685547
     78          1           0        0.126666   -4.402218   -2.016348
     79          1           0        2.580501    4.235032   -4.642011
     80          1           0        2.986427    2.585614   -5.135570
     81          1           0        4.122025    3.816810   -5.426173
     82          1           0        6.479166    6.579142   -1.573041
     83          1           0        4.924592    6.644202   -0.709630
     84          1           0        5.063429    7.637689   -2.059013
     85          1           0        6.216231    4.364686    2.441412
     86          1           0        8.493184    2.391595    3.162349
     87          1           0        7.938089    5.745874    1.857409
     88          1           0        8.365377    4.673205    0.479215
     89          1           0        9.133233    4.628013    2.124973
     90          1           0        5.711015    2.537881    4.420771
     91          1           0        6.818553    3.882139    4.666906
     92          1           0        7.793112    2.534111    6.534066
     93          1           0        8.250141    1.438321    5.331208
     94          1           0        6.662627    1.310580    6.065284
     95          1           0        7.623088   -2.071039    4.639828
     96          1           0        7.164280   -3.661369    3.889877
     97          1           0        5.961288   -2.858763    4.918371
     98          1           0        2.387319   -3.718173    1.344856
     99          1           0        4.827332   -6.918680   -1.220701
    100          1           0        5.235031   -5.987806   -2.553418
    101          1           0        3.470406   -6.186922   -2.216943
    102          1           0       -4.220343   -3.243703   -3.132516
    103          1           0       -3.524077   -1.551922   -3.402578
    104          1           0       -5.762933   -1.855477   -1.812855
    105          1           0       -3.077225    1.087439   -1.221870
    106          1           0       -2.238537   -0.491115   -1.619192
    107          1           0       -2.431440    0.239660    0.026243
    108          1           0       -6.356728    0.067044   -0.833413
    109          1           0       -5.219976    1.209467   -0.249098
    110          1           0       -4.689928    0.401873    1.698621
    111          1           0       -4.999383   -1.351684    1.288257
    112          1           0       -6.759019   -1.164041    2.651730
    113          1           0       -7.443726   -0.783998    1.117354
    114          1           0       -6.577092    1.731261    1.962287
    115          1           0       -7.326575   -0.005889    4.421219
    116          1           0       -7.505376    1.689189    4.465868
    117          1           0       -5.908028    1.112009    4.113496
    118          1           0       -9.188841    1.885623    2.650543
    119          1           0       -9.230937    0.251135    2.424076
    120          1           0       -8.163405    1.632717   -0.120522
    121          1           0       -9.628677    2.296705    0.532587
    122          1           0       -9.664439   -0.686338    0.566794
    123          1           0       -9.096348   -0.145652   -0.974990
    124          1           0      -11.327513    1.628334   -0.215787
    125          1           0      -11.390538   -0.390297   -2.576845
    126          1           0      -10.215931    0.918254   -2.669118
    127          1           0      -11.762905    1.347295   -2.619293
    128          1           0      -11.721700   -1.439979    0.070919
    129          1           0      -12.976296   -0.475797   -0.544486
    130          1           0      -11.568761    0.703654    1.922084
    131          1           0      -12.136139   -0.863676    2.277173
    132          1           0      -13.737855    0.847805    2.967152
    133          1           0      -14.415026   -0.255038    1.940817
    134          1           0      -13.186341    2.382748    0.770290
    135          1           0      -14.992827    2.645384    3.028216
    136          1           0      -15.745888    3.085232    1.461158
    137          1           0      -14.228377    3.802289    1.930568
    138          1           0      -14.567524    1.784316   -0.985222
    139          1           0      -16.034652    1.766150    0.022871
    140          1           0      -15.023770    0.341522   -0.217348
 ---------------------------------------------------------------------

 SCF Done:  E(RwB97XD) =  -3007.83088938     A.U. after   19 cycles

 Excitation energies and oscillator strengths:

 Excited State   1:      Singlet-A      1.6645 eV  744.87 nm  f=0.3483  <S**2>=0.000
     245 -> 248        0.16713
     246 -> 247        0.68565
     245 <- 248        0.10812
 This state for optimization and/or second-order correction.
 Total Energy, E(TD-HF/TD-DFT) =  -3007.76972009
 Copying the excited state density for this state as the 1-particle RhoCI density.

 Excited State   2:      Singlet-A      2.1709 eV  571.13 nm  f=0.1064  <S**2>=0.000
     245 -> 247        0.63818
     246 -> 248       -0.28170

 Excited State   3:      Singlet-A      3.4255 eV  361.95 nm  f=0.0016  <S**2>=0.000
     241 -> 247       -0.21344
     244 -> 247        0.62047
     244 -> 249       -0.11379

 Excited State   4:      Singlet-A      3.4789 eV  356.39 nm  f=0.3690  <S**2>=0.000
     240 -> 247       -0.28966
     241 -> 247        0.24471
     242 -> 247        0.14091
     245 -> 247        0.19202
     246 -> 248        0.51498

 Excited State   5:      Singlet-A      3.5884 eV  345.51 nm  f=0.2332  <S**2>=0.000
     240 -> 247       -0.21192
     241 -> 247        0.10591
     242 -> 247        0.41178
     242 -> 249       -0.25671
     242 -> 250        0.13199
     245 -> 247       -0.16225
     246 -> 248       -0.30422

 The electronic state is 1-A.
 Alpha  occ. eigenvalues --  -46.95550 -19.30746 -19.29548 -19.25123 -19.24595
 Alpha  occ. eigenvalues --  -19.24024 -19.22872 -14.46658 -14.46466 -14.44939
 Alpha  occ. eigenvalues --  -14.43126 -10.43525 -10.42529 -10.39786 -10.38014
 Alpha  occ. eigenvalues --  -10.36394 -10.35890 -10.35599 -10.35415 -10.35151
 Alpha  occ. eigenvalues --  -10.34698 -10.34135 -10.33926 -10.33647 -10.32441
 Alpha  occ. eigenvalues --  -10.32246 -10.32231 -10.32223 -10.32164 -10.32085
 Alpha  occ. eigenvalues --  -10.32024 -10.31802 -10.31618 -10.31563 -10.31511
 Alpha  occ. eigenvalues --  -10.31413 -10.31280 -10.31277 -10.30889 -10.30887
 Alpha  occ. eigenvalues --  -10.30689 -10.30626 -10.30593 -10.30518 -10.30125
 Alpha  occ. eigenvalues --  -10.30108 -10.29995 -10.29985 -10.29723 -10.29692
 Alpha  occ. eigenvalues --  -10.29538 -10.29114 -10.28906 -10.28887 -10.28853
 Alpha  occ. eigenvalues --  -10.28758 -10.28536 -10.28422 -10.28421 -10.28352
 Alpha  occ. eigenvalues --  -10.28243 -10.28146 -10.28131 -10.28118 -10.27802
 Alpha  occ. eigenvalues --  -10.27677  -3.21562  -1.95138  -1.94699  -1.94524
 Alpha  occ. eigenvalues --   -1.18100  -1.15367  -1.14236  -1.10255  -1.09042
 Alpha  occ. eigenvalues --   -1.08650  -1.08634  -1.06673  -1.05957  -1.04784
 Alpha  occ. eigenvalues --   -0.94420  -0.92844  -0.91596  -0.91079  -0.90604
 Alpha  occ. eigenvalues --   -0.90541  -0.89911  -0.89280  -0.88917  -0.88708
 Alpha  occ. eigenvalues --   -0.88505  -0.87337  -0.85807  -0.85647  -0.85125
 Alpha  occ. eigenvalues --   -0.84139  -0.84014  -0.83141  -0.82402  -0.82293
 Alpha  occ. eigenvalues --   -0.81266  -0.80353  -0.79903  -0.79609  -0.77931
 Alpha  occ. eigenvalues --   -0.77712  -0.77505  -0.76896  -0.76499  -0.75384
 Alpha  occ. eigenvalues --   -0.74943  -0.74334  -0.74114  -0.72540  -0.72377
 Alpha  occ. eigenvalues --   -0.71076  -0.70067  -0.69633  -0.68741  -0.68692
 Alpha  occ. eigenvalues --   -0.67314  -0.67137  -0.66857  -0.66454  -0.65698
 Alpha  occ. eigenvalues --   -0.65212  -0.64696  -0.64535  -0.64372  -0.62558
 Alpha  occ. eigenvalues --   -0.61506  -0.61189  -0.60738  -0.60389  -0.59987
 Alpha  occ. eigenvalues --   -0.58964  -0.58805  -0.58510  -0.58414  -0.58067
 Alpha  occ. eigenvalues --   -0.57587  -0.56957  -0.56227  -0.56113  -0.55697
 Alpha  occ. eigenvalues --   -0.54969  -0.54934  -0.54794  -0.54559  -0.54442
 Alpha  occ. eigenvalues --   -0.54207  -0.53800  -0.53687  -0.53541  -0.53378
 Alpha  occ. eigenvalues --   -0.53100  -0.53058  -0.52917  -0.52488  -0.52392
 Alpha  occ. eigenvalues --   -0.52240  -0.52006  -0.51841  -0.51711  -0.51691
 Alpha  occ. eigenvalues --   -0.51128  -0.51007  -0.50812  -0.50572  -0.50491
 Alpha  occ. eigenvalues --   -0.50402  -0.50224  -0.49738  -0.49557  -0.49447
 Alpha  occ. eigenvalues --   -0.49378  -0.49253  -0.48826  -0.48765  -0.48694
 Alpha  occ. eigenvalues --   -0.48345  -0.48066  -0.47892  -0.47746  -0.47606
 Alpha  occ. eigenvalues --   -0.47481  -0.47254  -0.47181  -0.47023  -0.46977
 Alpha  occ. eigenvalues --   -0.46737  -0.46558  -0.46288  -0.46228  -0.46180
 Alpha  occ. eigenvalues --   -0.45950  -0.45600  -0.45506  -0.45159  -0.45110
 Alpha  occ. eigenvalues --   -0.44871  -0.44651  -0.44520  -0.44288  -0.44065
 Alpha  occ. eigenvalues --   -0.43946  -0.43831  -0.43623  -0.43311  -0.43214
 Alpha  occ. eigenvalues --   -0.42975  -0.42658  -0.42608  -0.41987  -0.41868
 Alpha  occ. eigenvalues --   -0.41691  -0.41636  -0.41499  -0.41202  -0.41173
 Alpha  occ. eigenvalues --   -0.40599  -0.40513  -0.40183  -0.39777  -0.39240
 Alpha  occ. eigenvalues --   -0.39096  -0.38857  -0.38774  -0.38572  -0.38174
 Alpha  occ. eigenvalues --   -0.37507  -0.37035  -0.36835  -0.36286  -0.35814
 Alpha  occ. eigenvalues --   -0.35751  -0.35354  -0.34214  -0.33962  -0.33579
 Alpha  occ. eigenvalues --   -0.32785  -0.32002  -0.31494  -0.31006  -0.26132
 Alpha  occ. eigenvalues --   -0.22976
 Alpha virt. eigenvalues --   -0.07079   0.00148   0.02293   0.04163   0.05157
 Alpha virt. eigenvalues --    0.06057   0.07382   0.07997   0.08279   0.08916
 Alpha virt. eigenvalues --    0.10840   0.11403   0.12062   0.12109   0.12146

 Mulliken charges:
               1
     1  Mg   0.966432
     2  C    0.016301
     3  C   -0.088719
     4  C   -0.074455
     5  C   -0.081722
     6  N   -0.342010
     7  C   -0.047499
     8  C   -0.027216
     9  C   -0.146875
    10  C    0.109517
    11  C    0.044680
    12  C    0.029907
    13  C    0.034527
    14  C    0.214936
    15  O   -0.288489
    16  O   -0.407971
    17  N   -0.460671
    18  C    0.119071
    19  C   -0.138767
    20  C   -0.060855
    21  C    0.168990
    22  C    0.086201
    23  C    0.018621
    24  O   -0.210754
    25  C   -0.019589
    26  N   -0.295435
    27  C    0.032019
    28  C   -0.088020
    29  C   -0.051258
    30  C    0.005090
    31  C    0.018849
    32  C   -0.018345
    33  C   -0.065325
    34  N   -0.450844
    35  C    0.150915
    36  C   -0.201313
    37  C   -0.007135
    38  C    0.104917
    39  C    0.098590
    40  C    0.085776
    41  O   -0.226429
    42  C   -0.061624
    43  C    0.240618
    44  O   -0.258484
    45  O   -0.369707
    46  C    0.138615
    47  C    0.246396
    48  C   -0.154234
    49  C   -0.198113
    50  C    0.040377
    51  C    0.045295
    52  C    0.002860
    53  C    0.019892
    54  C   -0.173864
    55  C    0.005936
    56  C   -0.041750
    57  C   -0.015174
    58  C   -0.007706
    59  C   -0.182397
    60  C    0.003774
    61  C    0.007350
    62  C   -0.021003
    63  C    0.009603
    64  C   -0.234347
    65  C    0.025735
    66  C   -0.004080
    67  H    0.006428
    68  H   -0.045678
    69  H   -0.027435
    70  H    0.027528
    71  H    0.055085
    72  H    0.050241
    73  H    0.027504
    74  H    0.038304
    75  H    0.042564
    76  H    0.035500
    77  H    0.050300
    78  H    0.076214
    79  H    0.069757
    80  H    0.021669
    81  H    0.052994
    82  H    0.067340
    83  H    0.060373
    84  H    0.051455
    85  H    0.046384
    86  H    0.042004
    87  H    0.030461
    88  H    0.057353
    89  H    0.038767
    90  H    0.040682
    91  H    0.036360
    92  H    0.040012
    93  H    0.033167
    94  H    0.044080
    95  H    0.043135
    96  H    0.064897
    97  H    0.064364
    98  H    0.077489
    99  H    0.064855
   100  H    0.048120
   101  H    0.060364
   102  H    0.050799
   103  H    0.065479
   104  H    0.015348
   105  H    0.025769
   106  H    0.041519
   107  H    0.045333
   108  H    0.031321
   109  H    0.007012
   110  H    0.027373
   111  H    0.037834
   112  H    0.011739
   113  H    0.009262
   114  H    0.019500
   115  H    0.029656
   116  H    0.019180
   117  H    0.027132
   118  H    0.006895
   119  H    0.010996
   120  H    0.018827
   121  H    0.024117
   122  H    0.036498
   123  H    0.013059
   124  H    0.032032
   125  H    0.035175
   126  H    0.017501
   127  H    0.018105
   128  H    0.019537
   129  H    0.006703
   130  H    0.016465
   131  H    0.018394
   132  H   -0.005274
   133  H    0.017512
   134  H    0.026764
   135  H    0.037764
   136  H    0.015217
   137  H    0.020717
   138  H    0.023671
   139  H    0.029210
   140  H    0.033607
 Sum of Mulliken charges =  -0.00000

 Dipole moment (field-independent basis, Debye):
    X=              2.2488    Y=              5.6568    Z=              0.5028  Tot=              6.1081
 Quadrupole moment (field-independent basis, Debye-Ang):
   XX=           -355.7847   YY=           -431.7381   ZZ=           -402.7403
   XY=             23.8706   XZ=              7.7471   YZ=             40.8855

 Normal termination of Gaussian 16 at Fri Apr 29 23:45:26 2022.
