 Gaussian 16, Revision A.03,
 Gaussian 16:  ES64L-G16RevA.03 25-Dec-2016

 --------------------
 #p ZINDO=(nstates=5)
 --------------------

 ----------------------------
 step_501_chromophore_5 ZINDO
 ----------------------------
 Symbolic Z-matrix:
 Charge =  0 Multiplicity = 1

                         Standard orientation:
 ---------------------------------------------------------------------
 Center     Atomic      Atomic             Coordinates (Angstroms)
 Number     Number       Type             X           Y           Z
 ---------------------------------------------------------------------
      1         12           0        5.322421    0.506490   -0.261923
      2          6           0        3.738552   -2.489828    0.346123
      3          6           0        3.623597    0.724815   -3.216686
      4          6           0        5.849262    3.765942   -0.156433
      5          6           0        6.951110    0.139765    2.826826
      6          7           0        3.501962   -0.565684   -1.037441
      7          6           0        3.212067   -1.862200   -0.756335
      8          6           0        2.243733   -2.464857   -1.730784
      9          6           0        2.579163   -1.616379   -2.999885
     10          6           0        3.348052   -0.444456   -2.407856
     11          6           0        3.335851   -2.425723   -4.091854
     12          6           0        0.712926   -2.261882   -1.273210
     13          6           0       -0.277279   -3.463039   -1.638190
     14          6           0       -1.359047   -2.916298   -2.536462
     15          8           0       -1.113635   -2.581891   -3.710403
     16          8           0       -2.643660   -2.823856   -1.884825
     17          7           0        4.969158    1.992470   -1.625857
     18          6           0        4.198539    1.961213   -2.735238
     19          6           0        4.145701    3.275526   -3.362914
     20          6           0        4.818694    4.162281   -2.497482
     21          6           0        5.243106    3.301933   -1.357502
     22          6           0        3.383053    3.499203   -4.691300
     23          6           0        4.810581    5.653284   -2.689137
     24          8           0        4.280202    6.123178   -3.661835
     25          6           0        5.399676    6.667999   -1.690681
     26          7           0        6.391838    1.813976    1.076583
     27          6           0        6.436949    3.059333    0.900898
     28          6           0        7.051176    3.794623    2.034203
     29          6           0        7.438214    2.628086    3.025838
     30          6           0        6.913705    1.464410    2.303001
     31          6           0        8.209474    4.734250    1.556430
     32          6           0        6.764908    2.813561    4.463869
     33          6           0        7.389487    2.016861    5.664073
     34          7           0        5.444284   -0.883705    1.258566
     35          6           0        6.230436   -0.935140    2.395329
     36          6           0        6.107805   -2.214452    3.037422
     37          6           0        5.147403   -2.904519    2.217807
     38          6           0        4.715482   -2.025769    1.243205
     39          6           0        6.816269   -2.698401    4.261440
     40          6           0        4.475020   -4.146665    2.051570
     41          8           0        4.460418   -5.223249    2.662150
     42          6           0        3.394516   -3.868431    0.954703
     43          6           0        3.422839   -5.034114    0.023272
     44          8           0        2.684854   -6.025765    0.108215
     45          8           0        4.420421   -4.866638   -0.897104
     46          6           0        4.464064   -6.061277   -1.786371
     47          6           0       -3.799327   -2.337881   -2.699099
     48          6           0       -4.712456   -1.567572   -1.756609
     49          6           0       -4.368398   -0.496334   -1.036546
     50          6           0       -2.897499    0.049910   -0.940660
     51          6           0       -5.451083    0.144592   -0.232298
     52          6           0       -5.323142   -0.317081    1.179139
     53          6           0       -6.718058   -0.427602    1.848226
     54          6           0       -7.154436    0.916282    2.398237
     55          6           0       -6.963245    0.902010    3.940528
     56          6           0       -8.720904    1.127170    2.023233
     57          6           0       -9.011574    1.397855    0.522115
     58          6           0       -9.674212    0.170373   -0.106858
     59          6           0      -11.106960    0.631345   -0.597889
     60          6           0      -11.126027    0.585935   -2.169786
     61          6           0      -12.085620   -0.412876    0.079346
     62          6           0      -12.317467   -0.023360    1.607497
     63          6           0      -13.672525    0.543585    1.923285
     64          6           0      -14.088721    1.881974    1.120153
     65          6           0      -14.809038    2.881780    1.980356
     66          6           0      -15.005150    1.418305   -0.056143
     67          1           0        3.243228    0.833767   -4.234850
     68          1           0        5.955993    4.851634   -0.121473
     69          1           0        7.348929    0.083892    3.842990
     70          1           0        2.592468   -3.490419   -1.845291
     71          1           0        1.648508   -1.309572   -3.477509
     72          1           0        2.714237   -2.494038   -4.984151
     73          1           0        3.439851   -3.445250   -3.719131
     74          1           0        4.307541   -1.953752   -4.233929
     75          1           0        0.243374   -1.322033   -1.563174
     76          1           0        0.653107   -2.163935   -0.189746
     77          1           0       -0.739241   -3.722628   -0.685547
     78          1           0        0.126666   -4.402218   -2.016348
     79          1           0        2.580501    4.235032   -4.642011
     80          1           0        2.986427    2.585614   -5.135570
     81          1           0        4.122025    3.816810   -5.426173
     82          1           0        6.479166    6.579142   -1.573041
     83          1           0        4.924592    6.644202   -0.709630
     84          1           0        5.063429    7.637689   -2.059013
     85          1           0        6.216231    4.364686    2.441412
     86          1           0        8.493184    2.391595    3.162349
     87          1           0        7.938089    5.745874    1.857409
     88          1           0        8.365377    4.673205    0.479215
     89          1           0        9.133233    4.628013    2.124973
     90          1           0        5.711015    2.537881    4.420771
     91          1           0        6.818553    3.882139    4.666906
     92          1           0        7.793112    2.534111    6.534066
     93          1           0        8.250141    1.438321    5.331208
     94          1           0        6.662627    1.310580    6.065284
     95          1           0        7.623088   -2.071039    4.639828
     96          1           0        7.164280   -3.661369    3.889877
     97          1           0        5.961288   -2.858763    4.918371
     98          1           0        2.387319   -3.718173    1.344856
     99          1           0        4.827332   -6.918680   -1.220701
    100          1           0        5.235031   -5.987806   -2.553418
    101          1           0        3.470406   -6.186922   -2.216943
    102          1           0       -4.220343   -3.243703   -3.132516
    103          1           0       -3.524077   -1.551922   -3.402578
    104          1           0       -5.762933   -1.855477   -1.812855
    105          1           0       -3.077225    1.087439   -1.221870
    106          1           0       -2.238537   -0.491115   -1.619192
    107          1           0       -2.431440    0.239660    0.026243
    108          1           0       -6.356728    0.067044   -0.833413
    109          1           0       -5.219976    1.209467   -0.249098
    110          1           0       -4.689928    0.401873    1.698621
    111          1           0       -4.999383   -1.351684    1.288257
    112          1           0       -6.759019   -1.164041    2.651730
    113          1           0       -7.443726   -0.783998    1.117354
    114          1           0       -6.577092    1.731261    1.962287
    115          1           0       -7.326575   -0.005889    4.421219
    116          1           0       -7.505376    1.689189    4.465868
    117          1           0       -5.908028    1.112009    4.113496
    118          1           0       -9.188841    1.885623    2.650543
    119          1           0       -9.230937    0.251135    2.424076
    120          1           0       -8.163405    1.632717   -0.120522
    121          1           0       -9.628677    2.296705    0.532587
    122          1           0       -9.664439   -0.686338    0.566794
    123          1           0       -9.096348   -0.145652   -0.974990
    124          1           0      -11.327513    1.628334   -0.215787
    125          1           0      -11.390538   -0.390297   -2.576845
    126          1           0      -10.215931    0.918254   -2.669118
    127          1           0      -11.762905    1.347295   -2.619293
    128          1           0      -11.721700   -1.439979    0.070919
    129          1           0      -12.976296   -0.475797   -0.544486
    130          1           0      -11.568761    0.703654    1.922084
    131          1           0      -12.136139   -0.863676    2.277173
    132          1           0      -13.737855    0.847805    2.967152
    133          1           0      -14.415026   -0.255038    1.940817
    134          1           0      -13.186341    2.382748    0.770290
    135          1           0      -14.992827    2.645384    3.028216
    136          1           0      -15.745888    3.085232    1.461158
    137          1           0      -14.228377    3.802289    1.930568
    138          1           0      -14.567524    1.784316   -0.985222
    139          1           0      -16.034652    1.766150    0.022871
    140          1           0      -15.023770    0.341522   -0.217348
 ---------------------------------------------------------------------

 SCF Done:  E(RZINDO/S) =  -474.252970278     A.U. after   19 cycles

 Excitation energies and oscillator strengths:

 Excited State   1:      Singlet-A      1.2582 eV  985.37 nm  f=0.4893  <S**2>=0.000
     175 ->178        -0.15203
     176 ->177         0.67156
 This state for optimization and/or second-order correction.
 Total Energy, E(CIS/TDA) =  -474.206730596
 Copying the excited state density for this state as the 1-particle RhoCI density.

 Excited State   2:      Singlet-A      1.9141 eV  647.76 nm  f=0.0391  <S**2>=0.000
     175 ->177         0.53882
     176 ->178         0.41503

 Excited State   3:      Singlet-A      2.9161 eV  425.17 nm  f=1.0141  <S**2>=0.000
     170 ->177        -0.15015
     175 ->177        -0.36529
     176 ->178         0.51135

 Excited State   4:      Singlet-A      2.9437 eV  421.18 nm  f=0.1072  <S**2>=0.000
     167 ->177        -0.11855
     167 ->179         0.14944
     168 ->177         0.25264
     168 ->178        -0.12725
     168 ->179        -0.27779
     168 ->180         0.17289
     168 ->181        -0.10884
     168 ->185        -0.15762
     176 ->178        -0.10763
     176 ->179        -0.23672
     176 ->180        -0.15779

 Excited State   5:      Singlet-A      2.9516 eV  420.06 nm  f=0.1051  <S**2>=0.000
     168 ->177         0.13939
     168 ->179        -0.15839
     168 ->180         0.10079
     171 ->177         0.10526
     171 ->179         0.17438
     171 ->180         0.14015
     171 ->188        -0.10081
     174 ->177         0.11277
     175 ->177         0.11431
     176 ->178        -0.11168
     176 ->179         0.36877
     176 ->180         0.26646

 The electronic state is 1-A.
 Alpha  occ. eigenvalues --   -1.86729  -1.84613  -1.82334  -1.73488  -1.72604
 Alpha  occ. eigenvalues --   -1.68594  -1.66660  -1.62219  -1.61430  -1.57366
 Alpha  occ. eigenvalues --   -1.54402  -1.50908  -1.47505  -1.46911  -1.46181
 Alpha  occ. eigenvalues --   -1.43382  -1.41627  -1.41099  -1.38206  -1.35923
 Alpha  occ. eigenvalues --   -1.35699  -1.34081  -1.32292  -1.31520  -1.28544
 Alpha  occ. eigenvalues --   -1.28136  -1.27195  -1.23615  -1.20577  -1.18741
 Alpha  occ. eigenvalues --   -1.16889  -1.15501  -1.14283  -1.13552  -1.13209
 Alpha  occ. eigenvalues --   -1.13064  -1.10530  -1.09236  -1.05759  -1.03666
 Alpha  occ. eigenvalues --   -1.02413  -1.01451  -0.98987  -0.98527  -0.97921
 Alpha  occ. eigenvalues --   -0.96002  -0.95721  -0.95564  -0.93819  -0.93362
 Alpha  occ. eigenvalues --   -0.91604  -0.90550  -0.89260  -0.88112  -0.87068
 Alpha  occ. eigenvalues --   -0.86229  -0.84047  -0.82901  -0.81890  -0.80862
 Alpha  occ. eigenvalues --   -0.79426  -0.78414  -0.77281  -0.77165  -0.76789
 Alpha  occ. eigenvalues --   -0.75812  -0.75107  -0.74598  -0.74206  -0.74163
 Alpha  occ. eigenvalues --   -0.72133  -0.71983  -0.71588  -0.71352  -0.71011
 Alpha  occ. eigenvalues --   -0.70851  -0.69449  -0.69009  -0.67816  -0.67717
 Alpha  occ. eigenvalues --   -0.67425  -0.67061  -0.66462  -0.65791  -0.65178
 Alpha  occ. eigenvalues --   -0.64619  -0.64366  -0.64097  -0.63725  -0.63483
 Alpha  occ. eigenvalues --   -0.63405  -0.62751  -0.62688  -0.62347  -0.62153
 Alpha  occ. eigenvalues --   -0.61452  -0.61271  -0.61132  -0.60611  -0.60336
 Alpha  occ. eigenvalues --   -0.60157  -0.59153  -0.58963  -0.58597  -0.57906
 Alpha  occ. eigenvalues --   -0.57484  -0.57420  -0.57311  -0.56925  -0.56754
 Alpha  occ. eigenvalues --   -0.56374  -0.55804  -0.55538  -0.55057  -0.54966
 Alpha  occ. eigenvalues --   -0.54462  -0.54108  -0.53773  -0.53684  -0.53082
 Alpha  occ. eigenvalues --   -0.52770  -0.52494  -0.52352  -0.52089  -0.51794
 Alpha  occ. eigenvalues --   -0.51436  -0.51361  -0.51114  -0.50815  -0.50580
 Alpha  occ. eigenvalues --   -0.50254  -0.49926  -0.49925  -0.49419  -0.49239
 Alpha  occ. eigenvalues --   -0.48987  -0.48229  -0.48159  -0.48083  -0.47863
 Alpha  occ. eigenvalues --   -0.47784  -0.47418  -0.47379  -0.47283  -0.46862
 Alpha  occ. eigenvalues --   -0.46510  -0.46217  -0.45922  -0.45515  -0.45325
 Alpha  occ. eigenvalues --   -0.45027  -0.44702  -0.44229  -0.44191  -0.43787
 Alpha  occ. eigenvalues --   -0.43340  -0.42999  -0.42719  -0.42532  -0.42250
 Alpha  occ. eigenvalues --   -0.41828  -0.41407  -0.40133  -0.39069  -0.38918
 Alpha  occ. eigenvalues --   -0.37964  -0.37016  -0.36682  -0.35451  -0.34531
 Alpha  occ. eigenvalues --   -0.33911  -0.32324  -0.31674  -0.31089  -0.27072
 Alpha  occ. eigenvalues --   -0.21881
 Alpha virt. eigenvalues --   -0.08501  -0.02182  -0.00686   0.00761   0.01241
 Alpha virt. eigenvalues --    0.01391   0.02311   0.03192   0.04567   0.05298
 Alpha virt. eigenvalues --    0.05608   0.06460   0.06833   0.07760   0.08022

 Mulliken charges:
               1
     1  Mg   0.435653
     2  C   -0.069812
     3  C   -0.119425
     4  C   -0.109228
     5  C   -0.057037
     6  N   -0.306138
     7  C    0.122821
     8  C    0.001975
     9  C    0.003754
    10  C    0.189557
    11  C   -0.052444
    12  C   -0.017429
    13  C    0.005157
    14  C    0.466799
    15  O   -0.530497
    16  O   -0.287000
    17  N   -0.325446
    18  C    0.157293
    19  C    0.053185
    20  C   -0.034453
    21  C    0.138152
    22  C   -0.034701
    23  C    0.331393
    24  O   -0.502316
    25  C   -0.032800
    26  N   -0.243930
    27  C    0.189610
    28  C    0.002524
    29  C    0.002237
    30  C    0.061270
    31  C   -0.054202
    32  C   -0.028569
    33  C   -0.061825
    34  N   -0.340917
    35  C    0.061094
    36  C    0.011232
    37  C   -0.074734
    38  C    0.119446
    39  C   -0.043543
    40  C    0.328297
    41  O   -0.536204
    42  C    0.045848
    43  C    0.486651
    44  O   -0.532043
    45  O   -0.267861
    46  C    0.072073
    47  C    0.099518
    48  C   -0.102555
    49  C    0.002192
    50  C   -0.053516
    51  C   -0.013888
    52  C   -0.019425
    53  C   -0.036900
    54  C   -0.014440
    55  C   -0.058134
    56  C   -0.046368
    57  C   -0.035103
    58  C   -0.037695
    59  C   -0.015486
    60  C   -0.063338
    61  C   -0.038135
    62  C   -0.031413
    63  C   -0.036681
    64  C   -0.009635
    65  C   -0.057419
    66  C   -0.059769
    67  H    0.037071
    68  H    0.021087
    69  H    0.024507
    70  H    0.045388
    71  H    0.040803
    72  H    0.029400
    73  H    0.024101
    74  H    0.028179
    75  H    0.038844
    76  H    0.020204
    77  H    0.028179
    78  H    0.061154
    79  H    0.047346
    80  H    0.022506
    81  H    0.035305
    82  H    0.041707
    83  H    0.032910
    84  H    0.036318
    85  H    0.037639
    86  H    0.040508
    87  H    0.014010
    88  H    0.032224
    89  H    0.024710
    90  H    0.026807
    91  H    0.013343
    92  H    0.023510
    93  H    0.016070
    94  H    0.019876
    95  H    0.032539
    96  H    0.039266
    97  H    0.042262
    98  H    0.058078
    99  H    0.049086
   100  H    0.024317
   101  H    0.049121
   102  H    0.047384
   103  H    0.057468
   104  H    0.024135
   105  H    0.019873
   106  H    0.037929
   107  H    0.033226
   108  H    0.034222
   109  H    0.009484
   110  H    0.028015
   111  H    0.023272
   112  H    0.016367
   113  H    0.018063
   114  H    0.025098
   115  H    0.025325
   116  H    0.009109
   117  H    0.016067
   118  H    0.009089
   119  H    0.017893
   120  H    0.019879
   121  H    0.019079
   122  H    0.028267
   123  H    0.012857
   124  H    0.037103
   125  H    0.024538
   126  H    0.014909
   127  H    0.010100
   128  H    0.018375
   129  H    0.017631
   130  H    0.018633
   131  H    0.013523
   132  H    0.002292
   133  H    0.021053
   134  H    0.028441
   135  H    0.026942
   136  H    0.017568
   137  H    0.010778
   138  H    0.010241
   139  H    0.024101
   140  H    0.018024
 Sum of Mulliken charges =  -0.00000

 Dipole moment (field-independent basis, Debye):
    X=              2.2741    Y=              9.4291    Z=             -0.7049  Tot=              9.7251
 N-N= 4.388464272196D+03 E-N= 0.000000000000D+00  KE=-9.450871907306D+03
 Leave Link  601 at Sat Apr 30 00:01:11 2022, MaxMem=  6710886400 cpu:               0.8 elap:               0.0
 (Enter /sw/apps/gaussian-16.0/g16/l9999.exe)
 1\1\GINC-BP1-COMPUTE150\SP\RZINDO CIS\STO-3G\C55H74Mg1N4O6\OF15641\30-
 Apr-2022\0\\#p ZINDO=(nstates=5)\\step_501_chromophore_5 ZINDO\\0,1\Mg
 ,0,24.369,-6.987,46.608\C,0,26.684,-4.769,45.352\C,0,21.901,-5.124,45.
 158\C,0,22.465,-9.684,46.725\C,0,27.034,-8.804,47.995\N,0,24.416,-5.40
 8,45.005\C,0,25.43,-4.518,44.851\C,0,25.029,-3.314,44.051\C,0,23.504,-
 3.264,44.39\C,0,23.256,-4.654,44.957\C,0,23.127,-2.084,45.331\C,0,25.2
 76,-3.521,42.473\C,0,25.723,-2.212,41.671\C,0,24.683,-1.938,40.613\O,0

 Normal termination of Gaussian 16 at Sat Apr 30 00:01:11 2022.
