 Gaussian 16, Revision A.03,
 Gaussian 16:  ES64L-G16RevA.03 25-Dec-2016

 ------------------------------
 #p blyp/Def2SVP td=(nstates=5)
 ------------------------------

 -------------------------------------------------
 step_351_chromophore_6 TDDFT with blyp functional
 -------------------------------------------------
 Symbolic Z-matrix:
 Charge =  0 Multiplicity = 1

                         Standard orientation:
 ---------------------------------------------------------------------
 Center     Atomic      Atomic             Coordinates (Angstroms)
 Number     Number       Type             X           Y           Z
 ---------------------------------------------------------------------
      1         12           0       -5.523032    1.179464   -0.355846
      2          6           0       -4.795075   -2.343668   -0.190200
      3          6           0       -2.078745    1.740856   -0.413976
      4          6           0       -6.078954    4.452754   -0.115287
      5          6           0       -8.759552    0.390273    0.228996
      6          7           0       -3.670695   -0.215168   -0.230031
      7          6           0       -3.600939   -1.550798   -0.245254
      8          6           0       -2.147986   -2.080109   -0.210851
      9          6           0       -1.314419   -0.709360   -0.034832
     10          6           0       -2.421139    0.342158   -0.212968
     11          6           0       -0.460082   -0.550180    1.273435
     12          6           0       -1.769575   -2.956822   -1.433618
     13          6           0       -1.081083   -4.310776   -1.211842
     14          6           0       -0.061873   -4.426614   -0.090825
     15          8           0       -0.261093   -5.053615    0.960544
     16          8           0        1.087019   -3.660139   -0.408653
     17          7           0       -4.304516    2.853403   -0.351206
     18          6           0       -2.918446    2.873850   -0.442174
     19          6           0       -2.459524    4.221447   -0.554222
     20          6           0       -3.587653    4.985685   -0.612254
     21          6           0       -4.736960    4.143809   -0.339643
     22          6           0       -1.015576    4.714353   -0.498333
     23          6           0       -3.785282    6.445301   -0.732230
     24          8           0       -4.860233    7.011363   -0.758761
     25          6           0       -2.666973    7.291196   -0.819010
     26          7           0       -7.093763    2.244202    0.213222
     27          6           0       -7.153488    3.596007    0.215492
     28          6           0       -8.508058    4.115329    0.628110
     29          6           0       -9.409641    2.844533    0.377624
     30          6           0       -8.370283    1.724696    0.241109
     31          6           0       -8.679859    4.771218    1.976078
     32          6           0      -10.491889    3.004585   -0.689288
     33          6           0      -11.841681    3.358950   -0.096414
     34          7           0       -6.641317   -0.559902    0.007237
     35          6           0       -7.966320   -0.717151    0.101977
     36          6           0       -8.299187   -2.121243    0.085609
     37          6           0       -7.032320   -2.786448    0.000385
     38          6           0       -6.071910   -1.778375   -0.024222
     39          6           0       -9.780963   -2.532423    0.151192
     40          6           0       -6.434547   -4.111863   -0.034023
     41          8           0       -6.952035   -5.233654    0.084649
     42          6           0       -4.853304   -3.830023   -0.214736
     43          6           0       -4.217001   -4.692429    0.880190
     44          8           0       -3.910215   -4.206047    1.971139
     45          8           0       -4.262567   -6.032695    0.535106
     46          6           0       -3.928705   -6.865178    1.687652
     47          6           0        2.168316   -3.809911    0.597403
     48          6           0        3.345166   -2.771535    0.382502
     49          6           0        4.701347   -3.029156    0.295753
     50          6           0        5.373241   -4.431835    0.332664
     51          6           0        5.633320   -1.813493    0.418399
     52          6           0        6.135479   -1.355173   -0.963908
     53          6           0        7.565368   -1.840729   -1.283757
     54          6           0        8.666139   -0.792019   -1.462448
     55          6           0        8.269634    0.152014   -2.640555
     56          6           0       10.052612   -1.378715   -1.533502
     57          6           0       11.119180   -0.916122   -0.487622
     58          6           0       12.586286   -0.985562   -1.202152
     59          6           0       13.472643    0.269785   -1.110672
     60          6           0       14.364731    0.542426   -2.382816
     61          6           0       14.316961    0.238386    0.187330
     62          6           0       14.878004    1.650753    0.481977
     63          6           0       14.266970    2.410933    1.744336
     64          6           0       15.263646    3.453471    2.253596
     65          6           0       15.150359    4.841187    1.471076
     66          6           0       15.062587    3.625605    3.768099
     67          1           0       -1.005007    1.937538   -0.453247
     68          1           0       -6.406500    5.489797   -0.009445
     69          1           0       -9.845872    0.281966    0.198800
     70          1           0       -2.116719   -2.581940    0.755783
     71          1           0       -0.681021   -0.529907   -0.903445
     72          1           0       -0.531427   -1.508013    1.787995
     73          1           0       -0.759300    0.374821    1.767445
     74          1           0        0.549877   -0.293899    0.952010
     75          1           0       -1.191750   -2.320273   -2.104302
     76          1           0       -2.707776   -3.212122   -1.925697
     77          1           0       -0.559999   -4.519540   -2.146285
     78          1           0       -1.781117   -5.136188   -1.084548
     79          1           0       -0.249390    3.976104   -0.259272
     80          1           0       -0.976183    5.395144    0.351308
     81          1           0       -0.720821    5.222563   -1.417540
     82          1           0       -2.043179    6.936887   -1.640416
     83          1           0       -2.132520    7.285968    0.130132
     84          1           0       -2.871962    8.349193   -0.982662
     85          1           0       -8.758448    4.912311   -0.073572
     86          1           0       -9.901631    2.587875    1.315691
     87          1           0       -8.716974    4.014474    2.759286
     88          1           0       -9.580822    5.383957    1.998274
     89          1           0       -7.829107    5.382460    2.277927
     90          1           0      -10.526191    1.987847   -1.081248
     91          1           0      -10.246749    3.713757   -1.480203
     92          1           0      -12.312618    2.378250   -0.159941
     93          1           0      -12.352604    4.075010   -0.740205
     94          1           0      -11.815100    3.758202    0.917728
     95          1           0      -10.359984   -1.998724   -0.602350
     96          1           0      -10.153258   -2.172021    1.110421
     97          1           0       -9.901082   -3.615055    0.102967
     98          1           0       -4.532394   -4.254994   -1.164991
     99          1           0       -4.733825   -6.844289    2.421619
    100          1           0       -3.044363   -6.591027    2.262928
    101          1           0       -3.660993   -7.869438    1.358625
    102          1           0        2.562463   -4.826112    0.627060
    103          1           0        1.867677   -3.474381    1.589400
    104          1           0        3.033961   -1.727299    0.362216
    105          1           0        4.668175   -5.259088    0.246630
    106          1           0        5.867956   -4.582431    1.292936
    107          1           0        6.053459   -4.355827   -0.515376
    108          1           0        6.439879   -2.126405    1.081337
    109          1           0        5.036209   -1.012879    0.855828
    110          1           0        6.119487   -0.264745   -0.972594
    111          1           0        5.642729   -1.868730   -1.789579
    112          1           0        7.522806   -2.295484   -2.274046
    113          1           0        7.999942   -2.519449   -0.549400
    114          1           0        8.571619   -0.098391   -0.627211
    115          1           0        7.862018    1.092326   -2.267724
    116          1           0        7.419682   -0.246969   -3.194997
    117          1           0        9.150068    0.273121   -3.271062
    118          1           0       10.401418   -1.404319   -2.565801
    119          1           0        9.953143   -2.447143   -1.343337
    120          1           0       11.088656   -1.685251    0.284221
    121          1           0       10.917025    0.100181   -0.149534
    122          1           0       12.588259   -1.308596   -2.242761
    123          1           0       13.115964   -1.706040   -0.578923
    124          1           0       12.820186    1.141224   -1.058913
    125          1           0       14.133877   -0.138490   -3.202847
    126          1           0       15.403935    0.386510   -2.096481
    127          1           0       14.166439    1.545488   -2.759186
    128          1           0       15.095760   -0.521255    0.125729
    129          1           0       13.790625   -0.015281    1.106704
    130          1           0       14.768727    2.241720   -0.427742
    131          1           0       15.943005    1.508025    0.664017
    132          1           0       13.959381    1.609129    2.415462
    133          1           0       13.310832    2.819298    1.419274
    134          1           0       16.290303    3.139896    2.066616
    135          1           0       16.167560    5.071517    1.153272
    136          1           0       15.002482    5.729552    2.084785
    137          1           0       14.420480    4.722226    0.670635
    138          1           0       14.448968    2.870856    4.259454
    139          1           0       14.631478    4.618601    3.892144
    140          1           0       16.063601    3.722072    4.189540
 ---------------------------------------------------------------------

 SCF Done:  E(RB-LYP) =  -3007.37235894     A.U. after   21 cycles

 Excitation energies and oscillator strengths:

 Excited State   1:      Singlet-A      1.8094 eV  685.21 nm  f=0.0482  <S**2>=0.000
     244 -> 247        0.63571
     245 -> 247       -0.16187
     246 -> 247        0.25597
 This state for optimization and/or second-order correction.
 Total Energy, E(TD-HF/TD-DFT) =  -3007.30586364
 Copying the excited state density for this state as the 1-particle RhoCI density.

 Excited State   2:      Singlet-A      1.8279 eV  678.28 nm  f=0.2651  <S**2>=0.000
     244 -> 247       -0.24614
     245 -> 248        0.18954
     246 -> 247        0.63867
     246 <- 247       -0.13646

 Excited State   3:      Singlet-A      2.0300 eV  610.77 nm  f=0.0301  <S**2>=0.000
     243 -> 247        0.49167
     244 -> 247       -0.13398
     245 -> 247       -0.44772
     246 -> 248        0.17841

 Excited State   4:      Singlet-A      2.0649 eV  600.44 nm  f=0.0309  <S**2>=0.000
     243 -> 247        0.50631
     244 -> 247        0.11839
     245 -> 247        0.42739
     246 -> 248       -0.20081

 Excited State   5:      Singlet-A      2.4611 eV  503.77 nm  f=0.0002  <S**2>=0.000
     241 -> 247        0.48825
     242 -> 247        0.51127

 The electronic state is 1-A.
 Alpha  occ. eigenvalues --  -46.26370 -18.82457 -18.82193 -18.77669 -18.76266
 Alpha  occ. eigenvalues --  -18.75844 -18.74450 -14.03234 -14.02608 -14.00710
 Alpha  occ. eigenvalues --  -14.00368 -10.04502 -10.03629  -9.99820  -9.98325
 Alpha  occ. eigenvalues --   -9.98274  -9.96551  -9.96308  -9.96265  -9.96155
 Alpha  occ. eigenvalues --   -9.95946  -9.95380  -9.95243  -9.94381  -9.94216
 Alpha  occ. eigenvalues --   -9.94014  -9.93874  -9.93848  -9.93799  -9.93761
 Alpha  occ. eigenvalues --   -9.93644  -9.93614  -9.93574  -9.93525  -9.93477
 Alpha  occ. eigenvalues --   -9.93320  -9.93118  -9.93104  -9.93075  -9.92609
 Alpha  occ. eigenvalues --   -9.92490  -9.92407  -9.92402  -9.92385  -9.92227
 Alpha  occ. eigenvalues --   -9.92153  -9.92021  -9.92019  -9.91978  -9.91844
 Alpha  occ. eigenvalues --   -9.91751  -9.91666  -9.91441  -9.91438  -9.91294
 Alpha  occ. eigenvalues --   -9.91217  -9.91170  -9.91164  -9.91123  -9.91094
 Alpha  occ. eigenvalues --   -9.90966  -9.90911  -9.90902  -9.90893  -9.90699
 Alpha  occ. eigenvalues --   -9.90516  -2.91211  -1.71616  -1.71096  -1.70931
 Alpha  occ. eigenvalues --   -0.96778  -0.96227  -0.91718  -0.90174  -0.89449
 Alpha  occ. eigenvalues --   -0.89116  -0.87040  -0.85968  -0.85791  -0.85054
 Alpha  occ. eigenvalues --   -0.75565  -0.73803  -0.72713  -0.72593  -0.72427
 Alpha  occ. eigenvalues --   -0.71895  -0.71815  -0.71011  -0.70684  -0.70578
 Alpha  occ. eigenvalues --   -0.69272  -0.68764  -0.68017  -0.67786  -0.66740
 Alpha  occ. eigenvalues --   -0.66344  -0.65943  -0.65252  -0.64490  -0.64308
 Alpha  occ. eigenvalues --   -0.63780  -0.62776  -0.62301  -0.61899  -0.60777
 Alpha  occ. eigenvalues --   -0.60369  -0.59997  -0.59972  -0.59831  -0.58983
 Alpha  occ. eigenvalues --   -0.57829  -0.57366  -0.56705  -0.55863  -0.54454
 Alpha  occ. eigenvalues --   -0.54351  -0.54018  -0.52854  -0.51871  -0.51370
 Alpha  occ. eigenvalues --   -0.51150  -0.50946  -0.50518  -0.50242  -0.49472
 Alpha  occ. eigenvalues --   -0.49446  -0.49237  -0.48682  -0.48187  -0.46789
 Alpha  occ. eigenvalues --   -0.46093  -0.45636  -0.45451  -0.44707  -0.44417
 Alpha  occ. eigenvalues --   -0.43542  -0.43003  -0.42977  -0.42648  -0.42513
 Alpha  occ. eigenvalues --   -0.41787  -0.41567  -0.41411  -0.41210  -0.41056
 Alpha  occ. eigenvalues --   -0.40982  -0.40702  -0.40465  -0.40405  -0.40096
 Alpha  occ. eigenvalues --   -0.39809  -0.39779  -0.39505  -0.39329  -0.39213
 Alpha  occ. eigenvalues --   -0.38779  -0.38662  -0.38235  -0.38208  -0.38045
 Alpha  occ. eigenvalues --   -0.37991  -0.37804  -0.37762  -0.37647  -0.37455
 Alpha  occ. eigenvalues --   -0.37364  -0.37235  -0.36919  -0.36583  -0.36319
 Alpha  occ. eigenvalues --   -0.36062  -0.35947  -0.35767  -0.35532  -0.35411
 Alpha  occ. eigenvalues --   -0.35307  -0.35191  -0.35098  -0.34985  -0.34776
 Alpha  occ. eigenvalues --   -0.34387  -0.34348  -0.34185  -0.34134  -0.34053
 Alpha  occ. eigenvalues --   -0.33918  -0.33746  -0.33592  -0.33456  -0.33113
 Alpha  occ. eigenvalues --   -0.32983  -0.32666  -0.32569  -0.32260  -0.32101
 Alpha  occ. eigenvalues --   -0.31858  -0.31682  -0.31501  -0.31350  -0.31125
 Alpha  occ. eigenvalues --   -0.31000  -0.30881  -0.30827  -0.30699  -0.30609
 Alpha  occ. eigenvalues --   -0.30430  -0.30404  -0.30207  -0.29647  -0.29621
 Alpha  occ. eigenvalues --   -0.29589  -0.29386  -0.29354  -0.29136  -0.28677
 Alpha  occ. eigenvalues --   -0.28487  -0.28460  -0.28213  -0.28187  -0.27768
 Alpha  occ. eigenvalues --   -0.27327  -0.27197  -0.26686  -0.26567  -0.26411
 Alpha  occ. eigenvalues --   -0.26099  -0.26065  -0.25877  -0.25627  -0.25555
 Alpha  occ. eigenvalues --   -0.25382  -0.24852  -0.24629  -0.24089  -0.23624
 Alpha  occ. eigenvalues --   -0.23352  -0.22274  -0.22014  -0.21229  -0.20665
 Alpha  occ. eigenvalues --   -0.20216  -0.20179  -0.18567  -0.17759  -0.17092
 Alpha  occ. eigenvalues --   -0.15506
 Alpha virt. eigenvalues --   -0.11154  -0.06706  -0.06034  -0.04422  -0.03859
 Alpha virt. eigenvalues --   -0.02684  -0.02497  -0.02101  -0.01217   0.00502
 Alpha virt. eigenvalues --    0.01432   0.01960   0.02312   0.02931   0.02987

 Mulliken charges:
               1
     1  Mg   0.714416
     2  C   -0.020141
     3  C   -0.076507
     4  C   -0.051190
     5  C   -0.113033
     6  N   -0.158837
     7  C   -0.125057
     8  C    0.021855
     9  C   -0.038163
    10  C   -0.009401
    11  C    0.149893
    12  C    0.148349
    13  C    0.155049
    14  C    0.095533
    15  O   -0.198458
    16  O   -0.304153
    17  N   -0.290271
    18  C    0.150731
    19  C   -0.142962
    20  C    0.065705
    21  C    0.108596
    22  C    0.184703
    23  C   -0.114686
    24  O   -0.160037
    25  C    0.178683
    26  N   -0.280245
    27  C    0.008988
    28  C    0.038210
    29  C   -0.001839
    30  C    0.054071
    31  C    0.140197
    32  C    0.117064
    33  C    0.063564
    34  N   -0.220587
    35  C    0.138672
    36  C   -0.172271
    37  C    0.059374
    38  C    0.130971
    39  C    0.178755
    40  C   -0.050235
    41  O   -0.136115
    42  C    0.019889
    43  C    0.129429
    44  O   -0.195742
    45  O   -0.258090
    46  C    0.229101
    47  C    0.309072
    48  C   -0.103717
    49  C   -0.180015
    50  C    0.140519
    51  C    0.137781
    52  C    0.118833
    53  C    0.023328
    54  C   -0.082200
    55  C    0.108381
    56  C    0.107223
    57  C    0.087477
    58  C    0.117039
    59  C   -0.109414
    60  C    0.109780
    61  C    0.098052
    62  C    0.038010
    63  C    0.091409
    64  C   -0.086500
    65  C    0.093690
    66  C    0.128234
    67  H   -0.070677
    68  H   -0.044886
    69  H   -0.069352
    70  H    0.008648
    71  H   -0.024455
    72  H    0.022772
    73  H   -0.009211
    74  H   -0.015615
    75  H   -0.016350
    76  H   -0.018363
    77  H   -0.011393
    78  H   -0.001123
    79  H   -0.019990
    80  H   -0.000183
    81  H    0.005700
    82  H   -0.006480
    83  H   -0.002154
    84  H   -0.021972
    85  H   -0.031123
    86  H   -0.030928
    87  H   -0.018123
    88  H   -0.002164
    89  H   -0.012065
    90  H   -0.036378
    91  H   -0.016904
    92  H   -0.005158
    93  H   -0.009798
    94  H    0.002859
    95  H   -0.001864
    96  H   -0.003617
    97  H    0.009228
    98  H    0.004821
    99  H    0.011241
   100  H    0.014163
   101  H    0.006129
   102  H   -0.006545
   103  H    0.011476
   104  H   -0.035662
   105  H   -0.012173
   106  H    0.009675
   107  H    0.008545
   108  H   -0.020406
   109  H   -0.032317
   110  H   -0.023133
   111  H   -0.012683
   112  H   -0.033808
   113  H   -0.024650
   114  H   -0.052247
   115  H   -0.018539
   116  H   -0.024802
   117  H   -0.014845
   118  H   -0.038707
   119  H   -0.052852
   120  H   -0.018310
   121  H   -0.010483
   122  H   -0.031747
   123  H   -0.040387
   124  H   -0.040844
   125  H   -0.022534
   126  H   -0.010699
   127  H   -0.005683
   128  H   -0.033136
   129  H   -0.046123
   130  H   -0.030283
   131  H   -0.040696
   132  H   -0.035244
   133  H   -0.033518
   134  H   -0.024782
   135  H   -0.022975
   136  H   -0.019991
   137  H    0.002593
   138  H   -0.006054
   139  H   -0.028060
   140  H   -0.023365
 Sum of Mulliken charges =  -0.00000

 Dipole moment (field-independent basis, Debye):
    X=              4.3531    Y=              2.6035    Z=             -1.7587  Tot=              5.3685
 Quadrupole moment (field-independent basis, Debye-Ang):
   XX=           -377.0888   YY=           -430.7362   ZZ=           -407.4735
   XY=            -21.6543   XZ=              6.2900   YZ=              9.1900

 Normal termination of Gaussian 16 at Fri Apr 29 16:24:33 2022.
