 Gaussian 16, Revision A.03,
 Gaussian 16:  ES64L-G16RevA.03 25-Dec-2016

 -----------------------------------
 #p cam-b3lyp/Def2SVP td=(nstates=5)
 -----------------------------------

 ------------------------------------------------------
 step_351_chromophore_6 TDDFT with cam-b3lyp functional
 ------------------------------------------------------
 Symbolic Z-matrix:
 Charge =  0 Multiplicity = 1

                         Standard orientation:
 ---------------------------------------------------------------------
 Center     Atomic      Atomic             Coordinates (Angstroms)
 Number     Number       Type             X           Y           Z
 ---------------------------------------------------------------------
      1         12           0       -5.523032    1.179464   -0.355846
      2          6           0       -4.795075   -2.343668   -0.190200
      3          6           0       -2.078745    1.740856   -0.413976
      4          6           0       -6.078954    4.452754   -0.115287
      5          6           0       -8.759552    0.390273    0.228996
      6          7           0       -3.670695   -0.215168   -0.230031
      7          6           0       -3.600939   -1.550798   -0.245254
      8          6           0       -2.147986   -2.080109   -0.210851
      9          6           0       -1.314419   -0.709360   -0.034832
     10          6           0       -2.421139    0.342158   -0.212968
     11          6           0       -0.460082   -0.550180    1.273435
     12          6           0       -1.769575   -2.956822   -1.433618
     13          6           0       -1.081083   -4.310776   -1.211842
     14          6           0       -0.061873   -4.426614   -0.090825
     15          8           0       -0.261093   -5.053615    0.960544
     16          8           0        1.087019   -3.660139   -0.408653
     17          7           0       -4.304516    2.853403   -0.351206
     18          6           0       -2.918446    2.873850   -0.442174
     19          6           0       -2.459524    4.221447   -0.554222
     20          6           0       -3.587653    4.985685   -0.612254
     21          6           0       -4.736960    4.143809   -0.339643
     22          6           0       -1.015576    4.714353   -0.498333
     23          6           0       -3.785282    6.445301   -0.732230
     24          8           0       -4.860233    7.011363   -0.758761
     25          6           0       -2.666973    7.291196   -0.819010
     26          7           0       -7.093763    2.244202    0.213222
     27          6           0       -7.153488    3.596007    0.215492
     28          6           0       -8.508058    4.115329    0.628110
     29          6           0       -9.409641    2.844533    0.377624
     30          6           0       -8.370283    1.724696    0.241109
     31          6           0       -8.679859    4.771218    1.976078
     32          6           0      -10.491889    3.004585   -0.689288
     33          6           0      -11.841681    3.358950   -0.096414
     34          7           0       -6.641317   -0.559902    0.007237
     35          6           0       -7.966320   -0.717151    0.101977
     36          6           0       -8.299187   -2.121243    0.085609
     37          6           0       -7.032320   -2.786448    0.000385
     38          6           0       -6.071910   -1.778375   -0.024222
     39          6           0       -9.780963   -2.532423    0.151192
     40          6           0       -6.434547   -4.111863   -0.034023
     41          8           0       -6.952035   -5.233654    0.084649
     42          6           0       -4.853304   -3.830023   -0.214736
     43          6           0       -4.217001   -4.692429    0.880190
     44          8           0       -3.910215   -4.206047    1.971139
     45          8           0       -4.262567   -6.032695    0.535106
     46          6           0       -3.928705   -6.865178    1.687652
     47          6           0        2.168316   -3.809911    0.597403
     48          6           0        3.345166   -2.771535    0.382502
     49          6           0        4.701347   -3.029156    0.295753
     50          6           0        5.373241   -4.431835    0.332664
     51          6           0        5.633320   -1.813493    0.418399
     52          6           0        6.135479   -1.355173   -0.963908
     53          6           0        7.565368   -1.840729   -1.283757
     54          6           0        8.666139   -0.792019   -1.462448
     55          6           0        8.269634    0.152014   -2.640555
     56          6           0       10.052612   -1.378715   -1.533502
     57          6           0       11.119180   -0.916122   -0.487622
     58          6           0       12.586286   -0.985562   -1.202152
     59          6           0       13.472643    0.269785   -1.110672
     60          6           0       14.364731    0.542426   -2.382816
     61          6           0       14.316961    0.238386    0.187330
     62          6           0       14.878004    1.650753    0.481977
     63          6           0       14.266970    2.410933    1.744336
     64          6           0       15.263646    3.453471    2.253596
     65          6           0       15.150359    4.841187    1.471076
     66          6           0       15.062587    3.625605    3.768099
     67          1           0       -1.005007    1.937538   -0.453247
     68          1           0       -6.406500    5.489797   -0.009445
     69          1           0       -9.845872    0.281966    0.198800
     70          1           0       -2.116719   -2.581940    0.755783
     71          1           0       -0.681021   -0.529907   -0.903445
     72          1           0       -0.531427   -1.508013    1.787995
     73          1           0       -0.759300    0.374821    1.767445
     74          1           0        0.549877   -0.293899    0.952010
     75          1           0       -1.191750   -2.320273   -2.104302
     76          1           0       -2.707776   -3.212122   -1.925697
     77          1           0       -0.559999   -4.519540   -2.146285
     78          1           0       -1.781117   -5.136188   -1.084548
     79          1           0       -0.249390    3.976104   -0.259272
     80          1           0       -0.976183    5.395144    0.351308
     81          1           0       -0.720821    5.222563   -1.417540
     82          1           0       -2.043179    6.936887   -1.640416
     83          1           0       -2.132520    7.285968    0.130132
     84          1           0       -2.871962    8.349193   -0.982662
     85          1           0       -8.758448    4.912311   -0.073572
     86          1           0       -9.901631    2.587875    1.315691
     87          1           0       -8.716974    4.014474    2.759286
     88          1           0       -9.580822    5.383957    1.998274
     89          1           0       -7.829107    5.382460    2.277927
     90          1           0      -10.526191    1.987847   -1.081248
     91          1           0      -10.246749    3.713757   -1.480203
     92          1           0      -12.312618    2.378250   -0.159941
     93          1           0      -12.352604    4.075010   -0.740205
     94          1           0      -11.815100    3.758202    0.917728
     95          1           0      -10.359984   -1.998724   -0.602350
     96          1           0      -10.153258   -2.172021    1.110421
     97          1           0       -9.901082   -3.615055    0.102967
     98          1           0       -4.532394   -4.254994   -1.164991
     99          1           0       -4.733825   -6.844289    2.421619
    100          1           0       -3.044363   -6.591027    2.262928
    101          1           0       -3.660993   -7.869438    1.358625
    102          1           0        2.562463   -4.826112    0.627060
    103          1           0        1.867677   -3.474381    1.589400
    104          1           0        3.033961   -1.727299    0.362216
    105          1           0        4.668175   -5.259088    0.246630
    106          1           0        5.867956   -4.582431    1.292936
    107          1           0        6.053459   -4.355827   -0.515376
    108          1           0        6.439879   -2.126405    1.081337
    109          1           0        5.036209   -1.012879    0.855828
    110          1           0        6.119487   -0.264745   -0.972594
    111          1           0        5.642729   -1.868730   -1.789579
    112          1           0        7.522806   -2.295484   -2.274046
    113          1           0        7.999942   -2.519449   -0.549400
    114          1           0        8.571619   -0.098391   -0.627211
    115          1           0        7.862018    1.092326   -2.267724
    116          1           0        7.419682   -0.246969   -3.194997
    117          1           0        9.150068    0.273121   -3.271062
    118          1           0       10.401418   -1.404319   -2.565801
    119          1           0        9.953143   -2.447143   -1.343337
    120          1           0       11.088656   -1.685251    0.284221
    121          1           0       10.917025    0.100181   -0.149534
    122          1           0       12.588259   -1.308596   -2.242761
    123          1           0       13.115964   -1.706040   -0.578923
    124          1           0       12.820186    1.141224   -1.058913
    125          1           0       14.133877   -0.138490   -3.202847
    126          1           0       15.403935    0.386510   -2.096481
    127          1           0       14.166439    1.545488   -2.759186
    128          1           0       15.095760   -0.521255    0.125729
    129          1           0       13.790625   -0.015281    1.106704
    130          1           0       14.768727    2.241720   -0.427742
    131          1           0       15.943005    1.508025    0.664017
    132          1           0       13.959381    1.609129    2.415462
    133          1           0       13.310832    2.819298    1.419274
    134          1           0       16.290303    3.139896    2.066616
    135          1           0       16.167560    5.071517    1.153272
    136          1           0       15.002482    5.729552    2.084785
    137          1           0       14.420480    4.722226    0.670635
    138          1           0       14.448968    2.870856    4.259454
    139          1           0       14.631478    4.618601    3.892144
    140          1           0       16.063601    3.722072    4.189540
 ---------------------------------------------------------------------

 SCF Done:  E(RCAM-B3LYP) =  -3007.16502287     A.U. after   17 cycles

 Excitation energies and oscillator strengths:

 Excited State   1:      Singlet-A      1.7206 eV  720.60 nm  f=0.3803  <S**2>=0.000
     245 -> 248       -0.19002
     246 -> 247        0.68356
     245 <- 248       -0.11022
 This state for optimization and/or second-order correction.
 Total Energy, E(TD-HF/TD-DFT) =  -3007.10179341
 Copying the excited state density for this state as the 1-particle RhoCI density.

 Excited State   2:      Singlet-A      2.2813 eV  543.48 nm  f=0.0839  <S**2>=0.000
     245 -> 247        0.62499
     246 -> 248        0.32141

 Excited State   3:      Singlet-A      3.4836 eV  355.91 nm  f=0.0328  <S**2>=0.000
     240 -> 247        0.49277
     240 -> 249       -0.30671
     240 -> 251        0.11555
     244 -> 247        0.29887
     246 -> 248        0.11579

 Excited State   4:      Singlet-A      3.4980 eV  354.44 nm  f=0.5437  <S**2>=0.000
     239 -> 247       -0.10088
     244 -> 247       -0.30488
     245 -> 247       -0.26485
     246 -> 248        0.56227
     245 <- 247        0.10019

 Excited State   5:      Singlet-A      3.5170 eV  352.53 nm  f=0.0857  <S**2>=0.000
     240 -> 247       -0.21053
     240 -> 249        0.16415
     242 -> 247       -0.31165
     244 -> 247        0.49958
     246 -> 248        0.17460

 The electronic state is 1-A.
 Alpha  occ. eigenvalues --  -46.87867 -19.25428 -19.25181 -19.20746 -19.19469
 Alpha  occ. eigenvalues --  -19.18993 -19.17720 -14.42260 -14.41279 -14.39199
 Alpha  occ. eigenvalues --  -14.38669 -10.39982 -10.39264 -10.35243 -10.33401
 Alpha  occ. eigenvalues --  -10.32529 -10.31096 -10.30669 -10.30484 -10.30472
 Alpha  occ. eigenvalues --  -10.30248 -10.29777 -10.29756 -10.28515 -10.28393
 Alpha  occ. eigenvalues --  -10.28376 -10.28370 -10.28071 -10.27955 -10.27932
 Alpha  occ. eigenvalues --  -10.27838 -10.27817 -10.27751 -10.27710 -10.27673
 Alpha  occ. eigenvalues --  -10.27666 -10.26934 -10.26926 -10.26818 -10.26706
 Alpha  occ. eigenvalues --  -10.26266 -10.26144 -10.26061 -10.26027 -10.25999
 Alpha  occ. eigenvalues --  -10.25986 -10.25892 -10.25804 -10.25732 -10.25607
 Alpha  occ. eigenvalues --  -10.25607 -10.25324 -10.25280 -10.25239 -10.25153
 Alpha  occ. eigenvalues --  -10.25007 -10.24927 -10.24883 -10.24808 -10.24806
 Alpha  occ. eigenvalues --  -10.24801 -10.24665 -10.24607 -10.24531 -10.24434
 Alpha  occ. eigenvalues --  -10.24098  -3.16620  -1.91495  -1.91084  -1.90924
 Alpha  occ. eigenvalues --   -1.15326  -1.14687  -1.10231  -1.08482  -1.07335
 Alpha  occ. eigenvalues --   -1.07135  -1.04678  -1.03623  -1.03481  -1.02617
 Alpha  occ. eigenvalues --   -0.92740  -0.90711  -0.89430  -0.89369  -0.89221
 Alpha  occ. eigenvalues --   -0.88690  -0.88557  -0.87684  -0.87282  -0.87205
 Alpha  occ. eigenvalues --   -0.85689  -0.85135  -0.84204  -0.84028  -0.83012
 Alpha  occ. eigenvalues --   -0.82569  -0.82009  -0.81252  -0.80306  -0.80142
 Alpha  occ. eigenvalues --   -0.79529  -0.78615  -0.77937  -0.77330  -0.76193
 Alpha  occ. eigenvalues --   -0.75741  -0.75336  -0.75251  -0.75175  -0.74251
 Alpha  occ. eigenvalues --   -0.72885  -0.72350  -0.71642  -0.70753  -0.69132
 Alpha  occ. eigenvalues --   -0.68912  -0.68658  -0.67321  -0.66238  -0.65519
 Alpha  occ. eigenvalues --   -0.65207  -0.65140  -0.64521  -0.64359  -0.63452
 Alpha  occ. eigenvalues --   -0.63360  -0.63105  -0.62585  -0.61890  -0.60495
 Alpha  occ. eigenvalues --   -0.59646  -0.59127  -0.58962  -0.58121  -0.57794
 Alpha  occ. eigenvalues --   -0.57212  -0.56313  -0.56133  -0.55920  -0.55788
 Alpha  occ. eigenvalues --   -0.54737  -0.54577  -0.54386  -0.54040  -0.53929
 Alpha  occ. eigenvalues --   -0.53796  -0.53680  -0.53399  -0.53356  -0.53013
 Alpha  occ. eigenvalues --   -0.52564  -0.52454  -0.52332  -0.51937  -0.51772
 Alpha  occ. eigenvalues --   -0.51266  -0.51129  -0.51042  -0.50616  -0.50472
 Alpha  occ. eigenvalues --   -0.50389  -0.50334  -0.50003  -0.49931  -0.49878
 Alpha  occ. eigenvalues --   -0.49634  -0.49525  -0.49459  -0.48900  -0.48617
 Alpha  occ. eigenvalues --   -0.48441  -0.48169  -0.48089  -0.47747  -0.47474
 Alpha  occ. eigenvalues --   -0.47424  -0.47261  -0.47211  -0.47054  -0.46733
 Alpha  occ. eigenvalues --   -0.46433  -0.46212  -0.46084  -0.45885  -0.45833
 Alpha  occ. eigenvalues --   -0.45660  -0.45504  -0.45350  -0.45238  -0.44965
 Alpha  occ. eigenvalues --   -0.44644  -0.44498  -0.44245  -0.44051  -0.43657
 Alpha  occ. eigenvalues --   -0.43526  -0.43346  -0.43118  -0.42875  -0.42693
 Alpha  occ. eigenvalues --   -0.42650  -0.42444  -0.42391  -0.42148  -0.42069
 Alpha  occ. eigenvalues --   -0.41861  -0.41736  -0.41543  -0.41325  -0.41082
 Alpha  occ. eigenvalues --   -0.40790  -0.40691  -0.40574  -0.40275  -0.39837
 Alpha  occ. eigenvalues --   -0.39542  -0.39520  -0.39246  -0.39155  -0.38720
 Alpha  occ. eigenvalues --   -0.38147  -0.38048  -0.37706  -0.37391  -0.37259
 Alpha  occ. eigenvalues --   -0.37144  -0.37111  -0.36790  -0.36538  -0.36375
 Alpha  occ. eigenvalues --   -0.36243  -0.36049  -0.35383  -0.34446  -0.34276
 Alpha  occ. eigenvalues --   -0.34017  -0.33855  -0.33265  -0.31467  -0.30365
 Alpha  occ. eigenvalues --   -0.30219  -0.29939  -0.29890  -0.29436  -0.23880
 Alpha  occ. eigenvalues --   -0.20745
 Alpha virt. eigenvalues --   -0.08159  -0.01628   0.00486   0.02214   0.02595
 Alpha virt. eigenvalues --    0.03981   0.04904   0.05512   0.06097   0.07113
 Alpha virt. eigenvalues --    0.08098   0.08301   0.08966   0.09193   0.09329

 Mulliken charges:
               1
     1  Mg   0.847639
     2  C   -0.039233
     3  C   -0.084408
     4  C   -0.071929
     5  C   -0.119612
     6  N   -0.225511
     7  C   -0.075729
     8  C   -0.038608
     9  C   -0.081870
    10  C    0.007864
    11  C    0.093840
    12  C    0.096769
    13  C    0.085975
    14  C    0.171375
    15  O   -0.237941
    16  O   -0.366823
    17  N   -0.379653
    18  C    0.157093
    19  C   -0.144811
    20  C   -0.008767
    21  C    0.132724
    22  C    0.126786
    23  C   -0.026282
    24  O   -0.200707
    25  C    0.082576
    26  N   -0.359709
    27  C    0.037559
    28  C   -0.020026
    29  C   -0.062797
    30  C    0.075643
    31  C    0.083594
    32  C    0.061081
    33  C    0.002371
    34  N   -0.311247
    35  C    0.138696
    36  C   -0.163154
    37  C   -0.025467
    38  C    0.160667
    39  C    0.126931
    40  C    0.052647
    41  O   -0.174260
    42  C   -0.047025
    43  C    0.209328
    44  O   -0.230183
    45  O   -0.319073
    46  C    0.184803
    47  C    0.278278
    48  C   -0.119885
    49  C   -0.199427
    50  C    0.084341
    51  C    0.075576
    52  C    0.056160
    53  C   -0.022420
    54  C   -0.132662
    55  C    0.048165
    56  C    0.048147
    57  C    0.036253
    58  C    0.064761
    59  C   -0.162519
    60  C    0.050122
    61  C    0.044391
    62  C   -0.012867
    63  C    0.038965
    64  C   -0.149050
    65  C    0.036723
    66  C    0.067487
    67  H   -0.034855
    68  H   -0.005312
    69  H   -0.035506
    70  H    0.042784
    71  H    0.009283
    72  H    0.043617
    73  H    0.017919
    74  H    0.005647
    75  H    0.014976
    76  H    0.011694
    77  H    0.024309
    78  H    0.029170
    79  H    0.009942
    80  H    0.026386
    81  H    0.032835
    82  H    0.020740
    83  H    0.027224
    84  H    0.016980
    85  H    0.004459
    86  H    0.006160
    87  H    0.006415
    88  H    0.021366
    89  H    0.014086
    90  H   -0.007061
    91  H    0.011495
    92  H    0.017442
    93  H    0.014835
    94  H    0.023912
    95  H    0.022171
    96  H    0.021979
    97  H    0.036368
    98  H    0.044202
    99  H    0.035448
   100  H    0.039141
   101  H    0.030292
   102  H    0.020086
   103  H    0.037987
   104  H   -0.005557
   105  H    0.012278
   106  H    0.033258
   107  H    0.029182
   108  H    0.008799
   109  H   -0.000016
   110  H    0.005826
   111  H    0.017045
   112  H   -0.005897
   113  H    0.000014
   114  H   -0.020109
   115  H    0.005283
   116  H   -0.000828
   117  H    0.009931
   118  H   -0.009983
   119  H   -0.021058
   120  H    0.009151
   121  H    0.014345
   122  H   -0.004622
   123  H   -0.011632
   124  H   -0.010248
   125  H    0.002818
   126  H    0.012952
   127  H    0.017384
   128  H   -0.003647
   129  H   -0.017660
   130  H   -0.004797
   131  H   -0.011561
   132  H   -0.007016
   133  H   -0.006179
   134  H    0.006666
   135  H    0.001172
   136  H    0.004641
   137  H    0.024326
   138  H    0.017916
   139  H   -0.004007
   140  H    0.001542
 Sum of Mulliken charges =  -0.00000

 Dipole moment (field-independent basis, Debye):
    X=              5.0008    Y=              2.9954    Z=             -1.9115  Tot=              6.1347
 Quadrupole moment (field-independent basis, Debye-Ang):
   XX=           -380.0654   YY=           -426.5926   ZZ=           -407.6716
   XY=            -22.7447   XZ=              6.7004   YZ=              9.3488

 Normal termination of Gaussian 16 at Fri Apr 29 15:26:57 2022.
