 Gaussian 16, Revision A.03,
 Gaussian 16:  ES64L-G16RevA.03 25-Dec-2016

 ---------------------------------
 #p PBE1PBE/Def2SVP td=(nstates=5)
 ---------------------------------

 ----------------------------------------------------
 step_351_chromophore_6 TDDFT with PBE1PBE functional
 ----------------------------------------------------
 Symbolic Z-matrix:
 Charge =  0 Multiplicity = 1

                         Standard orientation:
 ---------------------------------------------------------------------
 Center     Atomic      Atomic             Coordinates (Angstroms)
 Number     Number       Type             X           Y           Z
 ---------------------------------------------------------------------
      1         12           0       -5.523032    1.179464   -0.355846
      2          6           0       -4.795075   -2.343668   -0.190200
      3          6           0       -2.078745    1.740856   -0.413976
      4          6           0       -6.078954    4.452754   -0.115287
      5          6           0       -8.759552    0.390273    0.228996
      6          7           0       -3.670695   -0.215168   -0.230031
      7          6           0       -3.600939   -1.550798   -0.245254
      8          6           0       -2.147986   -2.080109   -0.210851
      9          6           0       -1.314419   -0.709360   -0.034832
     10          6           0       -2.421139    0.342158   -0.212968
     11          6           0       -0.460082   -0.550180    1.273435
     12          6           0       -1.769575   -2.956822   -1.433618
     13          6           0       -1.081083   -4.310776   -1.211842
     14          6           0       -0.061873   -4.426614   -0.090825
     15          8           0       -0.261093   -5.053615    0.960544
     16          8           0        1.087019   -3.660139   -0.408653
     17          7           0       -4.304516    2.853403   -0.351206
     18          6           0       -2.918446    2.873850   -0.442174
     19          6           0       -2.459524    4.221447   -0.554222
     20          6           0       -3.587653    4.985685   -0.612254
     21          6           0       -4.736960    4.143809   -0.339643
     22          6           0       -1.015576    4.714353   -0.498333
     23          6           0       -3.785282    6.445301   -0.732230
     24          8           0       -4.860233    7.011363   -0.758761
     25          6           0       -2.666973    7.291196   -0.819010
     26          7           0       -7.093763    2.244202    0.213222
     27          6           0       -7.153488    3.596007    0.215492
     28          6           0       -8.508058    4.115329    0.628110
     29          6           0       -9.409641    2.844533    0.377624
     30          6           0       -8.370283    1.724696    0.241109
     31          6           0       -8.679859    4.771218    1.976078
     32          6           0      -10.491889    3.004585   -0.689288
     33          6           0      -11.841681    3.358950   -0.096414
     34          7           0       -6.641317   -0.559902    0.007237
     35          6           0       -7.966320   -0.717151    0.101977
     36          6           0       -8.299187   -2.121243    0.085609
     37          6           0       -7.032320   -2.786448    0.000385
     38          6           0       -6.071910   -1.778375   -0.024222
     39          6           0       -9.780963   -2.532423    0.151192
     40          6           0       -6.434547   -4.111863   -0.034023
     41          8           0       -6.952035   -5.233654    0.084649
     42          6           0       -4.853304   -3.830023   -0.214736
     43          6           0       -4.217001   -4.692429    0.880190
     44          8           0       -3.910215   -4.206047    1.971139
     45          8           0       -4.262567   -6.032695    0.535106
     46          6           0       -3.928705   -6.865178    1.687652
     47          6           0        2.168316   -3.809911    0.597403
     48          6           0        3.345166   -2.771535    0.382502
     49          6           0        4.701347   -3.029156    0.295753
     50          6           0        5.373241   -4.431835    0.332664
     51          6           0        5.633320   -1.813493    0.418399
     52          6           0        6.135479   -1.355173   -0.963908
     53          6           0        7.565368   -1.840729   -1.283757
     54          6           0        8.666139   -0.792019   -1.462448
     55          6           0        8.269634    0.152014   -2.640555
     56          6           0       10.052612   -1.378715   -1.533502
     57          6           0       11.119180   -0.916122   -0.487622
     58          6           0       12.586286   -0.985562   -1.202152
     59          6           0       13.472643    0.269785   -1.110672
     60          6           0       14.364731    0.542426   -2.382816
     61          6           0       14.316961    0.238386    0.187330
     62          6           0       14.878004    1.650753    0.481977
     63          6           0       14.266970    2.410933    1.744336
     64          6           0       15.263646    3.453471    2.253596
     65          6           0       15.150359    4.841187    1.471076
     66          6           0       15.062587    3.625605    3.768099
     67          1           0       -1.005007    1.937538   -0.453247
     68          1           0       -6.406500    5.489797   -0.009445
     69          1           0       -9.845872    0.281966    0.198800
     70          1           0       -2.116719   -2.581940    0.755783
     71          1           0       -0.681021   -0.529907   -0.903445
     72          1           0       -0.531427   -1.508013    1.787995
     73          1           0       -0.759300    0.374821    1.767445
     74          1           0        0.549877   -0.293899    0.952010
     75          1           0       -1.191750   -2.320273   -2.104302
     76          1           0       -2.707776   -3.212122   -1.925697
     77          1           0       -0.559999   -4.519540   -2.146285
     78          1           0       -1.781117   -5.136188   -1.084548
     79          1           0       -0.249390    3.976104   -0.259272
     80          1           0       -0.976183    5.395144    0.351308
     81          1           0       -0.720821    5.222563   -1.417540
     82          1           0       -2.043179    6.936887   -1.640416
     83          1           0       -2.132520    7.285968    0.130132
     84          1           0       -2.871962    8.349193   -0.982662
     85          1           0       -8.758448    4.912311   -0.073572
     86          1           0       -9.901631    2.587875    1.315691
     87          1           0       -8.716974    4.014474    2.759286
     88          1           0       -9.580822    5.383957    1.998274
     89          1           0       -7.829107    5.382460    2.277927
     90          1           0      -10.526191    1.987847   -1.081248
     91          1           0      -10.246749    3.713757   -1.480203
     92          1           0      -12.312618    2.378250   -0.159941
     93          1           0      -12.352604    4.075010   -0.740205
     94          1           0      -11.815100    3.758202    0.917728
     95          1           0      -10.359984   -1.998724   -0.602350
     96          1           0      -10.153258   -2.172021    1.110421
     97          1           0       -9.901082   -3.615055    0.102967
     98          1           0       -4.532394   -4.254994   -1.164991
     99          1           0       -4.733825   -6.844289    2.421619
    100          1           0       -3.044363   -6.591027    2.262928
    101          1           0       -3.660993   -7.869438    1.358625
    102          1           0        2.562463   -4.826112    0.627060
    103          1           0        1.867677   -3.474381    1.589400
    104          1           0        3.033961   -1.727299    0.362216
    105          1           0        4.668175   -5.259088    0.246630
    106          1           0        5.867956   -4.582431    1.292936
    107          1           0        6.053459   -4.355827   -0.515376
    108          1           0        6.439879   -2.126405    1.081337
    109          1           0        5.036209   -1.012879    0.855828
    110          1           0        6.119487   -0.264745   -0.972594
    111          1           0        5.642729   -1.868730   -1.789579
    112          1           0        7.522806   -2.295484   -2.274046
    113          1           0        7.999942   -2.519449   -0.549400
    114          1           0        8.571619   -0.098391   -0.627211
    115          1           0        7.862018    1.092326   -2.267724
    116          1           0        7.419682   -0.246969   -3.194997
    117          1           0        9.150068    0.273121   -3.271062
    118          1           0       10.401418   -1.404319   -2.565801
    119          1           0        9.953143   -2.447143   -1.343337
    120          1           0       11.088656   -1.685251    0.284221
    121          1           0       10.917025    0.100181   -0.149534
    122          1           0       12.588259   -1.308596   -2.242761
    123          1           0       13.115964   -1.706040   -0.578923
    124          1           0       12.820186    1.141224   -1.058913
    125          1           0       14.133877   -0.138490   -3.202847
    126          1           0       15.403935    0.386510   -2.096481
    127          1           0       14.166439    1.545488   -2.759186
    128          1           0       15.095760   -0.521255    0.125729
    129          1           0       13.790625   -0.015281    1.106704
    130          1           0       14.768727    2.241720   -0.427742
    131          1           0       15.943005    1.508025    0.664017
    132          1           0       13.959381    1.609129    2.415462
    133          1           0       13.310832    2.819298    1.419274
    134          1           0       16.290303    3.139896    2.066616
    135          1           0       16.167560    5.071517    1.153272
    136          1           0       15.002482    5.729552    2.084785
    137          1           0       14.420480    4.722226    0.670635
    138          1           0       14.448968    2.870856    4.259454
    139          1           0       14.631478    4.618601    3.892144
    140          1           0       16.063601    3.722072    4.189540
 ---------------------------------------------------------------------

 SCF Done:  E(RPBE1PBE) =  -3005.35368154     A.U. after   15 cycles

 Excitation energies and oscillator strengths:

 Excited State   1:      Singlet-A      1.8746 eV  661.40 nm  f=0.3695  <S**2>=0.000
     245 -> 248        0.18394
     246 -> 247        0.69067
     246 <- 247       -0.10371
 This state for optimization and/or second-order correction.
 Total Energy, E(TD-HF/TD-DFT) =  -3005.28479269
 Copying the excited state density for this state as the 1-particle RhoCI density.

 Excited State   2:      Singlet-A      2.2757 eV  544.82 nm  f=0.0847  <S**2>=0.000
     245 -> 247        0.63984
     246 -> 248       -0.29194

 Excited State   3:      Singlet-A      2.9867 eV  415.12 nm  f=0.0003  <S**2>=0.000
     244 -> 247        0.67658
     244 -> 249        0.13243
     244 -> 250        0.12385

 Excited State   4:      Singlet-A      3.0327 eV  408.82 nm  f=0.0003  <S**2>=0.000
     240 -> 247       -0.15353
     241 -> 247        0.57475
     241 -> 249       -0.17855
     243 -> 247        0.30329

 Excited State   5:      Singlet-A      3.1643 eV  391.82 nm  f=0.0002  <S**2>=0.000
     241 -> 247       -0.33475
     243 -> 247        0.60525

 The electronic state is 1-A.
 Alpha  occ. eigenvalues --  -46.91284 -19.26100 -19.25811 -19.21017 -19.19668
 Alpha  occ. eigenvalues --  -19.19268 -19.17882 -14.41654 -14.40904 -14.38839
 Alpha  occ. eigenvalues --  -14.38359 -10.37033 -10.36259 -10.32442 -10.30404
 Alpha  occ. eigenvalues --  -10.29935 -10.28827 -10.28489 -10.28296 -10.28127
 Alpha  occ. eigenvalues --  -10.27469 -10.27395 -10.27318 -10.26165 -10.26136
 Alpha  occ. eigenvalues --  -10.26122 -10.25871 -10.25789 -10.25781 -10.25651
 Alpha  occ. eigenvalues --  -10.25629 -10.25608 -10.25453 -10.25240 -10.25144
 Alpha  occ. eigenvalues --  -10.25010 -10.24819 -10.24750 -10.24306 -10.24198
 Alpha  occ. eigenvalues --  -10.23839 -10.23649 -10.23647 -10.23606 -10.23576
 Alpha  occ. eigenvalues --  -10.23567 -10.23552 -10.23544 -10.23307 -10.23298
 Alpha  occ. eigenvalues --  -10.23080 -10.23076 -10.23037 -10.22835 -10.22743
 Alpha  occ. eigenvalues --  -10.22576 -10.22475 -10.22383 -10.22231 -10.22221
 Alpha  occ. eigenvalues --  -10.22213 -10.22169 -10.22132 -10.21990 -10.21936
 Alpha  occ. eigenvalues --  -10.21487  -3.13609  -1.86425  -1.85993  -1.85836
 Alpha  occ. eigenvalues --   -1.10060  -1.09454  -1.04893  -1.03243  -1.02192
 Alpha  occ. eigenvalues --   -1.01918  -0.99405  -0.98271  -0.98086  -0.97272
 Alpha  occ. eigenvalues --   -0.87119  -0.84815  -0.83681  -0.83546  -0.83357
 Alpha  occ. eigenvalues --   -0.82940  -0.82687  -0.81988  -0.81517  -0.81383
 Alpha  occ. eigenvalues --   -0.80052  -0.79408  -0.78488  -0.78230  -0.77235
 Alpha  occ. eigenvalues --   -0.76803  -0.76182  -0.75532  -0.74566  -0.74415
 Alpha  occ. eigenvalues --   -0.73705  -0.72834  -0.72199  -0.71686  -0.70357
 Alpha  occ. eigenvalues --   -0.70070  -0.69607  -0.69425  -0.69295  -0.68419
 Alpha  occ. eigenvalues --   -0.67244  -0.66772  -0.66077  -0.65056  -0.63446
 Alpha  occ. eigenvalues --   -0.63260  -0.63111  -0.61780  -0.60489  -0.59972
 Alpha  occ. eigenvalues --   -0.59589  -0.59387  -0.59091  -0.58901  -0.57721
 Alpha  occ. eigenvalues --   -0.57624  -0.57400  -0.56781  -0.56483  -0.54989
 Alpha  occ. eigenvalues --   -0.54009  -0.53726  -0.53553  -0.52712  -0.52397
 Alpha  occ. eigenvalues --   -0.51578  -0.50863  -0.50643  -0.50328  -0.50208
 Alpha  occ. eigenvalues --   -0.49262  -0.49017  -0.48889  -0.48401  -0.48361
 Alpha  occ. eigenvalues --   -0.48323  -0.48133  -0.47986  -0.47842  -0.47487
 Alpha  occ. eigenvalues --   -0.47143  -0.47049  -0.46802  -0.46601  -0.46252
 Alpha  occ. eigenvalues --   -0.45838  -0.45720  -0.45595  -0.45199  -0.45043
 Alpha  occ. eigenvalues --   -0.44927  -0.44868  -0.44610  -0.44508  -0.44417
 Alpha  occ. eigenvalues --   -0.44187  -0.44178  -0.43952  -0.43519  -0.43234
 Alpha  occ. eigenvalues --   -0.43080  -0.42772  -0.42685  -0.42386  -0.42113
 Alpha  occ. eigenvalues --   -0.42058  -0.41922  -0.41819  -0.41754  -0.41350
 Alpha  occ. eigenvalues --   -0.41152  -0.40868  -0.40782  -0.40585  -0.40530
 Alpha  occ. eigenvalues --   -0.40335  -0.40281  -0.40162  -0.39963  -0.39740
 Alpha  occ. eigenvalues --   -0.39336  -0.39211  -0.39065  -0.38783  -0.38446
 Alpha  occ. eigenvalues --   -0.38387  -0.38155  -0.37936  -0.37595  -0.37463
 Alpha  occ. eigenvalues --   -0.37443  -0.37225  -0.37158  -0.36952  -0.36876
 Alpha  occ. eigenvalues --   -0.36633  -0.36562  -0.36338  -0.36178  -0.35914
 Alpha  occ. eigenvalues --   -0.35566  -0.35551  -0.35339  -0.35029  -0.34757
 Alpha  occ. eigenvalues --   -0.34457  -0.34285  -0.34232  -0.33987  -0.33536
 Alpha  occ. eigenvalues --   -0.32999  -0.32872  -0.32710  -0.32391  -0.32204
 Alpha  occ. eigenvalues --   -0.32169  -0.31927  -0.31634  -0.31382  -0.31357
 Alpha  occ. eigenvalues --   -0.31061  -0.31036  -0.30305  -0.29531  -0.29292
 Alpha  occ. eigenvalues --   -0.29132  -0.28991  -0.28309  -0.26979  -0.25643
 Alpha  occ. eigenvalues --   -0.25298  -0.25207  -0.25119  -0.24878  -0.20800
 Alpha  occ. eigenvalues --   -0.18403
 Alpha virt. eigenvalues --   -0.10685  -0.05094  -0.03736  -0.01866  -0.00660
 Alpha virt. eigenvalues --   -0.00400   0.00465   0.00938   0.01668   0.03463
 Alpha virt. eigenvalues --    0.04424   0.04694   0.05257   0.05758   0.05965

 Mulliken charges:
               1
     1  Mg   0.995190
     2  C   -0.041226
     3  C   -0.071943
     4  C   -0.063066
     5  C   -0.110759
     6  N   -0.331761
     7  C    0.010544
     8  C   -0.111037
     9  C   -0.148685
    10  C    0.047211
    11  C    0.031873
    12  C    0.042539
    13  C    0.009724
    14  C    0.232433
    15  O   -0.269731
    16  O   -0.392725
    17  N   -0.496289
    18  C    0.174420
    19  C   -0.167376
    20  C   -0.068074
    21  C    0.167224
    22  C    0.066570
    23  C    0.031506
    24  O   -0.241199
    25  C    0.005759
    26  N   -0.468397
    27  C    0.071982
    28  C   -0.093477
    29  C   -0.136739
    30  C    0.111367
    31  C    0.025075
    32  C   -0.003093
    33  C   -0.068838
    34  N   -0.443016
    35  C    0.158252
    36  C   -0.167888
    37  C   -0.078823
    38  C    0.199867
    39  C    0.071624
    40  C    0.146839
    41  O   -0.217894
    42  C   -0.145984
    43  C    0.285823
    44  O   -0.262758
    45  O   -0.348914
    46  C    0.128522
    47  C    0.234635
    48  C   -0.132582
    49  C   -0.236419
    50  C    0.017983
    51  C    0.008952
    52  C   -0.007588
    53  C   -0.079464
    54  C   -0.212573
    55  C   -0.010315
    56  C   -0.004163
    57  C   -0.030098
    58  C    0.010885
    59  C   -0.248555
    60  C   -0.009052
    61  C   -0.009536
    62  C   -0.073894
    63  C   -0.016117
    64  C   -0.242377
    65  C   -0.020623
    66  C    0.005878
    67  H   -0.002859
    68  H    0.026217
    69  H   -0.004334
    70  H    0.083192
    71  H    0.045985
    72  H    0.070051
    73  H    0.046362
    74  H    0.034075
    75  H    0.046310
    76  H    0.046371
    77  H    0.057401
    78  H    0.061827
    79  H    0.036355
    80  H    0.054079
    81  H    0.059611
    82  H    0.048209
    83  H    0.054609
    84  H    0.044931
    85  H    0.041891
    86  H    0.044623
    87  H    0.034468
    88  H    0.048847
    89  H    0.042371
    90  H    0.027685
    91  H    0.043540
    92  H    0.044924
    93  H    0.043101
    94  H    0.050748
    95  H    0.049605
    96  H    0.050724
    97  H    0.064981
    98  H    0.080246
    99  H    0.058311
   100  H    0.060813
   101  H    0.052356
   102  H    0.047244
   103  H    0.065277
   104  H    0.024977
   105  H    0.039681
   106  H    0.060134
   107  H    0.058861
   108  H    0.041405
   109  H    0.032237
   110  H    0.037970
   111  H    0.048956
   112  H    0.028268
   113  H    0.031329
   114  H    0.019528
   115  H    0.032202
   116  H    0.026840
   117  H    0.037658
   118  H    0.020828
   119  H    0.012552
   120  H    0.041592
   121  H    0.045157
   122  H    0.025488
   123  H    0.022639
   124  H    0.029650
   125  H    0.030297
   126  H    0.040757
   127  H    0.043780
   128  H    0.028399
   129  H    0.015892
   130  H    0.028709
   131  H    0.021509
   132  H    0.024728
   133  H    0.026742
   134  H    0.043452
   135  H    0.028464
   136  H    0.030857
   137  H    0.050527
   138  H    0.044245
   139  H    0.024043
   140  H    0.029875
 Sum of Mulliken charges =  -0.00000

 Dipole moment (field-independent basis, Debye):
    X=              4.7873    Y=              2.9608    Z=             -1.8443  Tot=              5.9233
 Quadrupole moment (field-independent basis, Debye-Ang):
   XX=           -371.8392   YY=           -423.9448   ZZ=           -405.4230
   XY=            -23.2989   XZ=              6.2684   YZ=              9.5921

 Normal termination of Gaussian 16 at Fri Apr 29 15:43:56 2022.
