 Gaussian 16, Revision A.03,
 Gaussian 16:  ES64L-G16RevA.03 25-Dec-2016

 --------------------------------
 #p wB97XD/Def2SVP td=(nstates=5)
 --------------------------------

 ---------------------------------------------------
 step_351_chromophore_6 TDDFT with wB97XD functional
 ---------------------------------------------------
 Symbolic Z-matrix:
 Charge =  0 Multiplicity = 1

                         Standard orientation:
 ---------------------------------------------------------------------
 Center     Atomic      Atomic             Coordinates (Angstroms)
 Number     Number       Type             X           Y           Z
 ---------------------------------------------------------------------
      1         12           0       -5.523032    1.179464   -0.355846
      2          6           0       -4.795075   -2.343668   -0.190200
      3          6           0       -2.078745    1.740856   -0.413976
      4          6           0       -6.078954    4.452754   -0.115287
      5          6           0       -8.759552    0.390273    0.228996
      6          7           0       -3.670695   -0.215168   -0.230031
      7          6           0       -3.600939   -1.550798   -0.245254
      8          6           0       -2.147986   -2.080109   -0.210851
      9          6           0       -1.314419   -0.709360   -0.034832
     10          6           0       -2.421139    0.342158   -0.212968
     11          6           0       -0.460082   -0.550180    1.273435
     12          6           0       -1.769575   -2.956822   -1.433618
     13          6           0       -1.081083   -4.310776   -1.211842
     14          6           0       -0.061873   -4.426614   -0.090825
     15          8           0       -0.261093   -5.053615    0.960544
     16          8           0        1.087019   -3.660139   -0.408653
     17          7           0       -4.304516    2.853403   -0.351206
     18          6           0       -2.918446    2.873850   -0.442174
     19          6           0       -2.459524    4.221447   -0.554222
     20          6           0       -3.587653    4.985685   -0.612254
     21          6           0       -4.736960    4.143809   -0.339643
     22          6           0       -1.015576    4.714353   -0.498333
     23          6           0       -3.785282    6.445301   -0.732230
     24          8           0       -4.860233    7.011363   -0.758761
     25          6           0       -2.666973    7.291196   -0.819010
     26          7           0       -7.093763    2.244202    0.213222
     27          6           0       -7.153488    3.596007    0.215492
     28          6           0       -8.508058    4.115329    0.628110
     29          6           0       -9.409641    2.844533    0.377624
     30          6           0       -8.370283    1.724696    0.241109
     31          6           0       -8.679859    4.771218    1.976078
     32          6           0      -10.491889    3.004585   -0.689288
     33          6           0      -11.841681    3.358950   -0.096414
     34          7           0       -6.641317   -0.559902    0.007237
     35          6           0       -7.966320   -0.717151    0.101977
     36          6           0       -8.299187   -2.121243    0.085609
     37          6           0       -7.032320   -2.786448    0.000385
     38          6           0       -6.071910   -1.778375   -0.024222
     39          6           0       -9.780963   -2.532423    0.151192
     40          6           0       -6.434547   -4.111863   -0.034023
     41          8           0       -6.952035   -5.233654    0.084649
     42          6           0       -4.853304   -3.830023   -0.214736
     43          6           0       -4.217001   -4.692429    0.880190
     44          8           0       -3.910215   -4.206047    1.971139
     45          8           0       -4.262567   -6.032695    0.535106
     46          6           0       -3.928705   -6.865178    1.687652
     47          6           0        2.168316   -3.809911    0.597403
     48          6           0        3.345166   -2.771535    0.382502
     49          6           0        4.701347   -3.029156    0.295753
     50          6           0        5.373241   -4.431835    0.332664
     51          6           0        5.633320   -1.813493    0.418399
     52          6           0        6.135479   -1.355173   -0.963908
     53          6           0        7.565368   -1.840729   -1.283757
     54          6           0        8.666139   -0.792019   -1.462448
     55          6           0        8.269634    0.152014   -2.640555
     56          6           0       10.052612   -1.378715   -1.533502
     57          6           0       11.119180   -0.916122   -0.487622
     58          6           0       12.586286   -0.985562   -1.202152
     59          6           0       13.472643    0.269785   -1.110672
     60          6           0       14.364731    0.542426   -2.382816
     61          6           0       14.316961    0.238386    0.187330
     62          6           0       14.878004    1.650753    0.481977
     63          6           0       14.266970    2.410933    1.744336
     64          6           0       15.263646    3.453471    2.253596
     65          6           0       15.150359    4.841187    1.471076
     66          6           0       15.062587    3.625605    3.768099
     67          1           0       -1.005007    1.937538   -0.453247
     68          1           0       -6.406500    5.489797   -0.009445
     69          1           0       -9.845872    0.281966    0.198800
     70          1           0       -2.116719   -2.581940    0.755783
     71          1           0       -0.681021   -0.529907   -0.903445
     72          1           0       -0.531427   -1.508013    1.787995
     73          1           0       -0.759300    0.374821    1.767445
     74          1           0        0.549877   -0.293899    0.952010
     75          1           0       -1.191750   -2.320273   -2.104302
     76          1           0       -2.707776   -3.212122   -1.925697
     77          1           0       -0.559999   -4.519540   -2.146285
     78          1           0       -1.781117   -5.136188   -1.084548
     79          1           0       -0.249390    3.976104   -0.259272
     80          1           0       -0.976183    5.395144    0.351308
     81          1           0       -0.720821    5.222563   -1.417540
     82          1           0       -2.043179    6.936887   -1.640416
     83          1           0       -2.132520    7.285968    0.130132
     84          1           0       -2.871962    8.349193   -0.982662
     85          1           0       -8.758448    4.912311   -0.073572
     86          1           0       -9.901631    2.587875    1.315691
     87          1           0       -8.716974    4.014474    2.759286
     88          1           0       -9.580822    5.383957    1.998274
     89          1           0       -7.829107    5.382460    2.277927
     90          1           0      -10.526191    1.987847   -1.081248
     91          1           0      -10.246749    3.713757   -1.480203
     92          1           0      -12.312618    2.378250   -0.159941
     93          1           0      -12.352604    4.075010   -0.740205
     94          1           0      -11.815100    3.758202    0.917728
     95          1           0      -10.359984   -1.998724   -0.602350
     96          1           0      -10.153258   -2.172021    1.110421
     97          1           0       -9.901082   -3.615055    0.102967
     98          1           0       -4.532394   -4.254994   -1.164991
     99          1           0       -4.733825   -6.844289    2.421619
    100          1           0       -3.044363   -6.591027    2.262928
    101          1           0       -3.660993   -7.869438    1.358625
    102          1           0        2.562463   -4.826112    0.627060
    103          1           0        1.867677   -3.474381    1.589400
    104          1           0        3.033961   -1.727299    0.362216
    105          1           0        4.668175   -5.259088    0.246630
    106          1           0        5.867956   -4.582431    1.292936
    107          1           0        6.053459   -4.355827   -0.515376
    108          1           0        6.439879   -2.126405    1.081337
    109          1           0        5.036209   -1.012879    0.855828
    110          1           0        6.119487   -0.264745   -0.972594
    111          1           0        5.642729   -1.868730   -1.789579
    112          1           0        7.522806   -2.295484   -2.274046
    113          1           0        7.999942   -2.519449   -0.549400
    114          1           0        8.571619   -0.098391   -0.627211
    115          1           0        7.862018    1.092326   -2.267724
    116          1           0        7.419682   -0.246969   -3.194997
    117          1           0        9.150068    0.273121   -3.271062
    118          1           0       10.401418   -1.404319   -2.565801
    119          1           0        9.953143   -2.447143   -1.343337
    120          1           0       11.088656   -1.685251    0.284221
    121          1           0       10.917025    0.100181   -0.149534
    122          1           0       12.588259   -1.308596   -2.242761
    123          1           0       13.115964   -1.706040   -0.578923
    124          1           0       12.820186    1.141224   -1.058913
    125          1           0       14.133877   -0.138490   -3.202847
    126          1           0       15.403935    0.386510   -2.096481
    127          1           0       14.166439    1.545488   -2.759186
    128          1           0       15.095760   -0.521255    0.125729
    129          1           0       13.790625   -0.015281    1.106704
    130          1           0       14.768727    2.241720   -0.427742
    131          1           0       15.943005    1.508025    0.664017
    132          1           0       13.959381    1.609129    2.415462
    133          1           0       13.310832    2.819298    1.419274
    134          1           0       16.290303    3.139896    2.066616
    135          1           0       16.167560    5.071517    1.153272
    136          1           0       15.002482    5.729552    2.084785
    137          1           0       14.420480    4.722226    0.670635
    138          1           0       14.448968    2.870856    4.259454
    139          1           0       14.631478    4.618601    3.892144
    140          1           0       16.063601    3.722072    4.189540
 ---------------------------------------------------------------------

 SCF Done:  E(RwB97XD) =  -3007.86156674     A.U. after   18 cycles

 Excitation energies and oscillator strengths:

 Excited State   1:      Singlet-A      1.6627 eV  745.67 nm  f=0.3785  <S**2>=0.000
     245 -> 248       -0.19523
     246 -> 247        0.68149
     245 <- 248       -0.11946
 This state for optimization and/or second-order correction.
 Total Energy, E(TD-HF/TD-DFT) =  -3007.80046243
 Copying the excited state density for this state as the 1-particle RhoCI density.

 Excited State   2:      Singlet-A      2.2268 eV  556.78 nm  f=0.0823  <S**2>=0.000
     245 -> 247        0.62404
     246 -> 248        0.32144

 Excited State   3:      Singlet-A      3.5063 eV  353.60 nm  f=0.5936  <S**2>=0.000
     239 -> 247       -0.11240
     240 -> 247        0.23518
     240 -> 249       -0.10519
     245 -> 247       -0.27308
     246 -> 248        0.56898
     245 <- 247        0.10787

 Excited State   4:      Singlet-A      3.5115 eV  353.09 nm  f=0.0311  <S**2>=0.000
     240 -> 247        0.37469
     240 -> 249       -0.24884
     240 -> 250        0.11679
     242 -> 249       -0.12061
     244 -> 247        0.44343
     246 -> 248       -0.15735

 Excited State   5:      Singlet-A      3.5393 eV  350.31 nm  f=0.0236  <S**2>=0.000
     240 -> 247       -0.19121
     240 -> 249        0.21347
     242 -> 247       -0.39973
     244 -> 247        0.45563

 The electronic state is 1-A.
 Alpha  occ. eigenvalues --  -46.94218 -19.30672 -19.30393 -19.25678 -19.24401
 Alpha  occ. eigenvalues --  -19.24056 -19.22751 -14.46856 -14.45848 -14.43819
 Alpha  occ. eigenvalues --  -14.43249 -10.43823 -10.43128 -10.39286 -10.37319
 Alpha  occ. eigenvalues --  -10.36450 -10.35142 -10.34669 -10.34508 -10.34482
 Alpha  occ. eigenvalues --  -10.33976 -10.33838 -10.33815 -10.32577 -10.32534
 Alpha  occ. eigenvalues --  -10.32363 -10.32348 -10.32113 -10.32078 -10.32033
 Alpha  occ. eigenvalues --  -10.31876 -10.31872 -10.31822 -10.31820 -10.31639
 Alpha  occ. eigenvalues --  -10.31585 -10.30962 -10.30953 -10.30687 -10.30668
 Alpha  occ. eigenvalues --  -10.30222 -10.30132 -10.29998 -10.29938 -10.29904
 Alpha  occ. eigenvalues --  -10.29897 -10.29852 -10.29787 -10.29684 -10.29584
 Alpha  occ. eigenvalues --  -10.29445 -10.29353 -10.29290 -10.29127 -10.29083
 Alpha  occ. eigenvalues --  -10.28941 -10.28831 -10.28774 -10.28760 -10.28647
 Alpha  occ. eigenvalues --  -10.28626 -10.28604 -10.28537 -10.28372 -10.28361
 Alpha  occ. eigenvalues --  -10.27911  -3.20390  -1.93958  -1.93522  -1.93369
 Alpha  occ. eigenvalues --   -1.17488  -1.16854  -1.12438  -1.10722  -1.09544
 Alpha  occ. eigenvalues --   -1.09319  -1.06688  -1.05665  -1.05477  -1.04658
 Alpha  occ. eigenvalues --   -0.94726  -0.92499  -0.91266  -0.91198  -0.91024
 Alpha  occ. eigenvalues --   -0.90613  -0.90364  -0.89631  -0.89138  -0.89054
 Alpha  occ. eigenvalues --   -0.87620  -0.87028  -0.86069  -0.85885  -0.84944
 Alpha  occ. eigenvalues --   -0.84503  -0.83859  -0.83165  -0.82203  -0.82070
 Alpha  occ. eigenvalues --   -0.81385  -0.80587  -0.79837  -0.79234  -0.78048
 Alpha  occ. eigenvalues --   -0.77682  -0.77184  -0.77129  -0.76994  -0.76089
 Alpha  occ. eigenvalues --   -0.74828  -0.74321  -0.73615  -0.72680  -0.71060
 Alpha  occ. eigenvalues --   -0.70824  -0.70637  -0.69317  -0.68125  -0.67470
 Alpha  occ. eigenvalues --   -0.67056  -0.67046  -0.66526  -0.66365  -0.65285
 Alpha  occ. eigenvalues --   -0.65242  -0.65028  -0.64429  -0.63883  -0.62491
 Alpha  occ. eigenvalues --   -0.61552  -0.61102  -0.60953  -0.60093  -0.59774
 Alpha  occ. eigenvalues --   -0.59154  -0.58309  -0.58061  -0.57811  -0.57682
 Alpha  occ. eigenvalues --   -0.56672  -0.56436  -0.56330  -0.55960  -0.55809
 Alpha  occ. eigenvalues --   -0.55696  -0.55604  -0.55338  -0.55279  -0.54897
 Alpha  occ. eigenvalues --   -0.54488  -0.54369  -0.54220  -0.53867  -0.53646
 Alpha  occ. eigenvalues --   -0.53188  -0.53076  -0.52959  -0.52544  -0.52389
 Alpha  occ. eigenvalues --   -0.52345  -0.52266  -0.51970  -0.51828  -0.51751
 Alpha  occ. eigenvalues --   -0.51516  -0.51437  -0.51316  -0.50840  -0.50554
 Alpha  occ. eigenvalues --   -0.50379  -0.50093  -0.50045  -0.49655  -0.49374
 Alpha  occ. eigenvalues --   -0.49331  -0.49192  -0.49142  -0.48954  -0.48618
 Alpha  occ. eigenvalues --   -0.48349  -0.48101  -0.47997  -0.47757  -0.47740
 Alpha  occ. eigenvalues --   -0.47532  -0.47416  -0.47258  -0.47145  -0.46863
 Alpha  occ. eigenvalues --   -0.46523  -0.46408  -0.46180  -0.45993  -0.45579
 Alpha  occ. eigenvalues --   -0.45472  -0.45251  -0.45053  -0.44747  -0.44679
 Alpha  occ. eigenvalues --   -0.44567  -0.44331  -0.44303  -0.44064  -0.43986
 Alpha  occ. eigenvalues --   -0.43738  -0.43642  -0.43461  -0.43283  -0.43071
 Alpha  occ. eigenvalues --   -0.42662  -0.42571  -0.42442  -0.42141  -0.41744
 Alpha  occ. eigenvalues --   -0.41410  -0.41386  -0.41155  -0.41018  -0.40579
 Alpha  occ. eigenvalues --   -0.40010  -0.39898  -0.39636  -0.39333  -0.39242
 Alpha  occ. eigenvalues --   -0.39183  -0.38990  -0.38638  -0.38398  -0.38342
 Alpha  occ. eigenvalues --   -0.38090  -0.38033  -0.37226  -0.36374  -0.36264
 Alpha  occ. eigenvalues --   -0.35972  -0.35858  -0.35346  -0.33647  -0.32374
 Alpha  occ. eigenvalues --   -0.32149  -0.32141  -0.31932  -0.31602  -0.25809
 Alpha  occ. eigenvalues --   -0.22557
 Alpha virt. eigenvalues --   -0.06514   0.00286   0.02550   0.04610   0.05463
 Alpha virt. eigenvalues --    0.06210   0.07143   0.07690   0.08446   0.09976
 Alpha virt. eigenvalues --    0.11052   0.11339   0.12045   0.12489   0.12732

 Mulliken charges:
               1
     1  Mg   0.984772
     2  C   -0.045835
     3  C   -0.089165
     4  C   -0.083696
     5  C   -0.129063
     6  N   -0.292954
     7  C   -0.025509
     8  C   -0.086649
     9  C   -0.125466
    10  C    0.030913
    11  C    0.045483
    12  C    0.055678
    13  C    0.027061
    14  C    0.220761
    15  O   -0.266867
    16  O   -0.392988
    17  N   -0.464152
    18  C    0.169907
    19  C   -0.158626
    20  C   -0.059696
    21  C    0.159283
    22  C    0.079662
    23  C    0.028508
    24  O   -0.233958
    25  C    0.016886
    26  N   -0.437515
    27  C    0.063000
    28  C   -0.070688
    29  C   -0.108501
    30  C    0.101838
    31  C    0.034743
    32  C    0.013275
    33  C   -0.053695
    34  N   -0.401359
    35  C    0.150086
    36  C   -0.170245
    37  C   -0.072629
    38  C    0.185230
    39  C    0.082404
    40  C    0.128030
    41  O   -0.208846
    42  C   -0.108215
    43  C    0.266316
    44  O   -0.256813
    45  O   -0.348830
    46  C    0.142544
    47  C    0.249956
    48  C   -0.140407
    49  C   -0.226217
    50  C    0.035368
    51  C    0.029066
    52  C    0.005606
    53  C   -0.056836
    54  C   -0.185723
    55  C   -0.000006
    56  C    0.010158
    57  C   -0.013210
    58  C    0.028100
    59  C   -0.216132
    60  C    0.000585
    61  C    0.004515
    62  C   -0.055771
    63  C   -0.000241
    64  C   -0.212654
    65  C   -0.009873
    66  C    0.019222
    67  H   -0.009720
    68  H    0.021312
    69  H   -0.011801
    70  H    0.066648
    71  H    0.034552
    72  H    0.064668
    73  H    0.039756
    74  H    0.027667
    75  H    0.040235
    76  H    0.035247
    77  H    0.052610
    78  H    0.055883
    79  H    0.033614
    80  H    0.047677
    81  H    0.055259
    82  H    0.040856
    83  H    0.049067
    84  H    0.044612
    85  H    0.031755
    86  H    0.030522
    87  H    0.028002
    88  H    0.043748
    89  H    0.036741
    90  H    0.016354
    91  H    0.036597
    92  H    0.038880
    93  H    0.038034
    94  H    0.043873
    95  H    0.043769
    96  H    0.044436
    97  H    0.061660
    98  H    0.072268
    99  H    0.054357
   100  H    0.057570
   101  H    0.049242
   102  H    0.041133
   103  H    0.059771
   104  H    0.020719
   105  H    0.034074
   106  H    0.054998
   107  H    0.050163
   108  H    0.032928
   109  H    0.025646
   110  H    0.030544
   111  H    0.040590
   112  H    0.016987
   113  H    0.018466
   114  H    0.005574
   115  H    0.027000
   116  H    0.019436
   117  H    0.032131
   118  H    0.011101
   119  H    0.003163
   120  H    0.034634
   121  H    0.035925
   122  H    0.015620
   123  H    0.012527
   124  H    0.014225
   125  H    0.024940
   126  H    0.033983
   127  H    0.038839
   128  H    0.020341
   129  H    0.004636
   130  H    0.016327
   131  H    0.012281
   132  H    0.014438
   133  H    0.017365
   134  H    0.031557
   135  H    0.022812
   136  H    0.025102
   137  H    0.044454
   138  H    0.039169
   139  H    0.016102
   140  H    0.024427
 Sum of Mulliken charges =  -0.00000

 Dipole moment (field-independent basis, Debye):
    X=              5.1003    Y=              3.1022    Z=             -1.9309  Tot=              6.2742
 Quadrupole moment (field-independent basis, Debye-Ang):
   XX=           -375.2677   YY=           -422.0019   ZZ=           -405.0010
   XY=            -22.9199   XZ=              6.7306   YZ=              9.4263

 Normal termination of Gaussian 16 at Fri Apr 29 16:11:30 2022.
