 Gaussian 16, Revision A.03,
 Gaussian 16:  ES64L-G16RevA.03 25-Dec-2016

 --------------------
 #p ZINDO=(nstates=5)
 --------------------

 ----------------------------
 step_351_chromophore_6 ZINDO
 ----------------------------
 Symbolic Z-matrix:
 Charge =  0 Multiplicity = 1

                         Standard orientation:
 ---------------------------------------------------------------------
 Center     Atomic      Atomic             Coordinates (Angstroms)
 Number     Number       Type             X           Y           Z
 ---------------------------------------------------------------------
      1         12           0       -5.523032    1.179464   -0.355846
      2          6           0       -4.795075   -2.343668   -0.190200
      3          6           0       -2.078745    1.740856   -0.413976
      4          6           0       -6.078954    4.452754   -0.115287
      5          6           0       -8.759552    0.390273    0.228996
      6          7           0       -3.670695   -0.215168   -0.230031
      7          6           0       -3.600939   -1.550798   -0.245254
      8          6           0       -2.147986   -2.080109   -0.210851
      9          6           0       -1.314419   -0.709360   -0.034832
     10          6           0       -2.421139    0.342158   -0.212968
     11          6           0       -0.460082   -0.550180    1.273435
     12          6           0       -1.769575   -2.956822   -1.433618
     13          6           0       -1.081083   -4.310776   -1.211842
     14          6           0       -0.061873   -4.426614   -0.090825
     15          8           0       -0.261093   -5.053615    0.960544
     16          8           0        1.087019   -3.660139   -0.408653
     17          7           0       -4.304516    2.853403   -0.351206
     18          6           0       -2.918446    2.873850   -0.442174
     19          6           0       -2.459524    4.221447   -0.554222
     20          6           0       -3.587653    4.985685   -0.612254
     21          6           0       -4.736960    4.143809   -0.339643
     22          6           0       -1.015576    4.714353   -0.498333
     23          6           0       -3.785282    6.445301   -0.732230
     24          8           0       -4.860233    7.011363   -0.758761
     25          6           0       -2.666973    7.291196   -0.819010
     26          7           0       -7.093763    2.244202    0.213222
     27          6           0       -7.153488    3.596007    0.215492
     28          6           0       -8.508058    4.115329    0.628110
     29          6           0       -9.409641    2.844533    0.377624
     30          6           0       -8.370283    1.724696    0.241109
     31          6           0       -8.679859    4.771218    1.976078
     32          6           0      -10.491889    3.004585   -0.689288
     33          6           0      -11.841681    3.358950   -0.096414
     34          7           0       -6.641317   -0.559902    0.007237
     35          6           0       -7.966320   -0.717151    0.101977
     36          6           0       -8.299187   -2.121243    0.085609
     37          6           0       -7.032320   -2.786448    0.000385
     38          6           0       -6.071910   -1.778375   -0.024222
     39          6           0       -9.780963   -2.532423    0.151192
     40          6           0       -6.434547   -4.111863   -0.034023
     41          8           0       -6.952035   -5.233654    0.084649
     42          6           0       -4.853304   -3.830023   -0.214736
     43          6           0       -4.217001   -4.692429    0.880190
     44          8           0       -3.910215   -4.206047    1.971139
     45          8           0       -4.262567   -6.032695    0.535106
     46          6           0       -3.928705   -6.865178    1.687652
     47          6           0        2.168316   -3.809911    0.597403
     48          6           0        3.345166   -2.771535    0.382502
     49          6           0        4.701347   -3.029156    0.295753
     50          6           0        5.373241   -4.431835    0.332664
     51          6           0        5.633320   -1.813493    0.418399
     52          6           0        6.135479   -1.355173   -0.963908
     53          6           0        7.565368   -1.840729   -1.283757
     54          6           0        8.666139   -0.792019   -1.462448
     55          6           0        8.269634    0.152014   -2.640555
     56          6           0       10.052612   -1.378715   -1.533502
     57          6           0       11.119180   -0.916122   -0.487622
     58          6           0       12.586286   -0.985562   -1.202152
     59          6           0       13.472643    0.269785   -1.110672
     60          6           0       14.364731    0.542426   -2.382816
     61          6           0       14.316961    0.238386    0.187330
     62          6           0       14.878004    1.650753    0.481977
     63          6           0       14.266970    2.410933    1.744336
     64          6           0       15.263646    3.453471    2.253596
     65          6           0       15.150359    4.841187    1.471076
     66          6           0       15.062587    3.625605    3.768099
     67          1           0       -1.005007    1.937538   -0.453247
     68          1           0       -6.406500    5.489797   -0.009445
     69          1           0       -9.845872    0.281966    0.198800
     70          1           0       -2.116719   -2.581940    0.755783
     71          1           0       -0.681021   -0.529907   -0.903445
     72          1           0       -0.531427   -1.508013    1.787995
     73          1           0       -0.759300    0.374821    1.767445
     74          1           0        0.549877   -0.293899    0.952010
     75          1           0       -1.191750   -2.320273   -2.104302
     76          1           0       -2.707776   -3.212122   -1.925697
     77          1           0       -0.559999   -4.519540   -2.146285
     78          1           0       -1.781117   -5.136188   -1.084548
     79          1           0       -0.249390    3.976104   -0.259272
     80          1           0       -0.976183    5.395144    0.351308
     81          1           0       -0.720821    5.222563   -1.417540
     82          1           0       -2.043179    6.936887   -1.640416
     83          1           0       -2.132520    7.285968    0.130132
     84          1           0       -2.871962    8.349193   -0.982662
     85          1           0       -8.758448    4.912311   -0.073572
     86          1           0       -9.901631    2.587875    1.315691
     87          1           0       -8.716974    4.014474    2.759286
     88          1           0       -9.580822    5.383957    1.998274
     89          1           0       -7.829107    5.382460    2.277927
     90          1           0      -10.526191    1.987847   -1.081248
     91          1           0      -10.246749    3.713757   -1.480203
     92          1           0      -12.312618    2.378250   -0.159941
     93          1           0      -12.352604    4.075010   -0.740205
     94          1           0      -11.815100    3.758202    0.917728
     95          1           0      -10.359984   -1.998724   -0.602350
     96          1           0      -10.153258   -2.172021    1.110421
     97          1           0       -9.901082   -3.615055    0.102967
     98          1           0       -4.532394   -4.254994   -1.164991
     99          1           0       -4.733825   -6.844289    2.421619
    100          1           0       -3.044363   -6.591027    2.262928
    101          1           0       -3.660993   -7.869438    1.358625
    102          1           0        2.562463   -4.826112    0.627060
    103          1           0        1.867677   -3.474381    1.589400
    104          1           0        3.033961   -1.727299    0.362216
    105          1           0        4.668175   -5.259088    0.246630
    106          1           0        5.867956   -4.582431    1.292936
    107          1           0        6.053459   -4.355827   -0.515376
    108          1           0        6.439879   -2.126405    1.081337
    109          1           0        5.036209   -1.012879    0.855828
    110          1           0        6.119487   -0.264745   -0.972594
    111          1           0        5.642729   -1.868730   -1.789579
    112          1           0        7.522806   -2.295484   -2.274046
    113          1           0        7.999942   -2.519449   -0.549400
    114          1           0        8.571619   -0.098391   -0.627211
    115          1           0        7.862018    1.092326   -2.267724
    116          1           0        7.419682   -0.246969   -3.194997
    117          1           0        9.150068    0.273121   -3.271062
    118          1           0       10.401418   -1.404319   -2.565801
    119          1           0        9.953143   -2.447143   -1.343337
    120          1           0       11.088656   -1.685251    0.284221
    121          1           0       10.917025    0.100181   -0.149534
    122          1           0       12.588259   -1.308596   -2.242761
    123          1           0       13.115964   -1.706040   -0.578923
    124          1           0       12.820186    1.141224   -1.058913
    125          1           0       14.133877   -0.138490   -3.202847
    126          1           0       15.403935    0.386510   -2.096481
    127          1           0       14.166439    1.545488   -2.759186
    128          1           0       15.095760   -0.521255    0.125729
    129          1           0       13.790625   -0.015281    1.106704
    130          1           0       14.768727    2.241720   -0.427742
    131          1           0       15.943005    1.508025    0.664017
    132          1           0       13.959381    1.609129    2.415462
    133          1           0       13.310832    2.819298    1.419274
    134          1           0       16.290303    3.139896    2.066616
    135          1           0       16.167560    5.071517    1.153272
    136          1           0       15.002482    5.729552    2.084785
    137          1           0       14.420480    4.722226    0.670635
    138          1           0       14.448968    2.870856    4.259454
    139          1           0       14.631478    4.618601    3.892144
    140          1           0       16.063601    3.722072    4.189540
 ---------------------------------------------------------------------

 SCF Done:  E(RZINDO/S) =  -474.285547754     A.U. after   20 cycles

 Excitation energies and oscillator strengths:

 Excited State   1:      Singlet-A      1.2591 eV  984.74 nm  f=0.5900  <S**2>=0.000
     175 ->178        -0.19570
     176 ->177         0.66222
 This state for optimization and/or second-order correction.
 Total Energy, E(CIS/TDA) =  -474.239278387
 Copying the excited state density for this state as the 1-particle RhoCI density.

 Excited State   2:      Singlet-A      1.9382 eV  639.69 nm  f=0.0163  <S**2>=0.000
     175 ->177         0.52014
     176 ->178         0.45550

 Excited State   3:      Singlet-A      2.8177 eV  440.02 nm  f=0.0018  <S**2>=0.000
     169 ->177        -0.14253
     169 ->179         0.16641
     169 ->181         0.16848
     169 ->186         0.11994
     170 ->177         0.17641
     170 ->179        -0.19178
     170 ->181        -0.20340
     170 ->186        -0.14001
     171 ->177        -0.23732
     171 ->179         0.22953
     171 ->181         0.23386
     171 ->183        -0.10795
     171 ->186         0.15681

 Excited State   4:      Singlet-A      2.9507 eV  420.18 nm  f=0.4157  <S**2>=0.000
     175 ->177        -0.26034
     176 ->178         0.35212
     176 ->179         0.50501

 Excited State   5:      Singlet-A      3.0186 eV  410.73 nm  f=0.0012  <S**2>=0.000
     169 ->177         0.26676
     169 ->178         0.13770
     169 ->179         0.32650
     169 ->181        -0.22624
     169 ->183         0.10708
     169 ->186         0.13788
     169 ->187        -0.12023
     170 ->177         0.17612
     170 ->179         0.21867
     170 ->181        -0.14460

 The electronic state is 1-A.
 Alpha  occ. eigenvalues --   -1.85303  -1.83127  -1.79833  -1.72135  -1.71197
 Alpha  occ. eigenvalues --   -1.68541  -1.64928  -1.62997  -1.61696  -1.56779
 Alpha  occ. eigenvalues --   -1.54097  -1.50954  -1.49598  -1.48244  -1.46933
 Alpha  occ. eigenvalues --   -1.44377  -1.43020  -1.41299  -1.39489  -1.38453
 Alpha  occ. eigenvalues --   -1.36550  -1.32471  -1.32341  -1.30778  -1.29459
 Alpha  occ. eigenvalues --   -1.26469  -1.24892  -1.22253  -1.19968  -1.17744
 Alpha  occ. eigenvalues --   -1.17157  -1.15525  -1.15435  -1.14666  -1.14010
 Alpha  occ. eigenvalues --   -1.12857  -1.11541  -1.10934  -1.05385  -1.03224
 Alpha  occ. eigenvalues --   -1.02390  -1.01301  -0.99708  -0.97361  -0.96130
 Alpha  occ. eigenvalues --   -0.94577  -0.94327  -0.93563  -0.93007  -0.91498
 Alpha  occ. eigenvalues --   -0.90941  -0.89728  -0.88964  -0.88018  -0.87118
 Alpha  occ. eigenvalues --   -0.85897  -0.83779  -0.83301  -0.81316  -0.80356
 Alpha  occ. eigenvalues --   -0.79648  -0.78627  -0.77831  -0.76722  -0.76070
 Alpha  occ. eigenvalues --   -0.75074  -0.74847  -0.74092  -0.73574  -0.72913
 Alpha  occ. eigenvalues --   -0.72811  -0.71792  -0.71486  -0.71231  -0.70834
 Alpha  occ. eigenvalues --   -0.70001  -0.69512  -0.68955  -0.68867  -0.68114
 Alpha  occ. eigenvalues --   -0.67616  -0.67562  -0.67294  -0.66938  -0.65691
 Alpha  occ. eigenvalues --   -0.64876  -0.64257  -0.64168  -0.63700  -0.63325
 Alpha  occ. eigenvalues --   -0.62798  -0.62092  -0.61885  -0.61740  -0.61625
 Alpha  occ. eigenvalues --   -0.61567  -0.61248  -0.60679  -0.60215  -0.59979
 Alpha  occ. eigenvalues --   -0.59212  -0.58920  -0.58756  -0.58692  -0.58455
 Alpha  occ. eigenvalues --   -0.58237  -0.57321  -0.56977  -0.56913  -0.56691
 Alpha  occ. eigenvalues --   -0.56160  -0.55967  -0.55635  -0.55264  -0.54886
 Alpha  occ. eigenvalues --   -0.54520  -0.54198  -0.53466  -0.53234  -0.52724
 Alpha  occ. eigenvalues --   -0.52454  -0.52322  -0.52147  -0.51586  -0.51084
 Alpha  occ. eigenvalues --   -0.50708  -0.50594  -0.50432  -0.50256  -0.50088
 Alpha  occ. eigenvalues --   -0.49779  -0.49373  -0.49194  -0.48975  -0.48822
 Alpha  occ. eigenvalues --   -0.48621  -0.48401  -0.48178  -0.47991  -0.47615
 Alpha  occ. eigenvalues --   -0.47252  -0.47037  -0.46877  -0.46605  -0.46569
 Alpha  occ. eigenvalues --   -0.46289  -0.45883  -0.45367  -0.45240  -0.45142
 Alpha  occ. eigenvalues --   -0.45004  -0.44711  -0.44358  -0.44260  -0.43996
 Alpha  occ. eigenvalues --   -0.43797  -0.43336  -0.42935  -0.42669  -0.42322
 Alpha  occ. eigenvalues --   -0.41849  -0.41595  -0.41261  -0.39364  -0.38885
 Alpha  occ. eigenvalues --   -0.37769  -0.36606  -0.35114  -0.34695  -0.34541
 Alpha  occ. eigenvalues --   -0.33711  -0.32133  -0.32068  -0.31704  -0.26402
 Alpha  occ. eigenvalues --   -0.21322
 Alpha virt. eigenvalues --   -0.07941  -0.01974  -0.00275   0.01166   0.01235
 Alpha virt. eigenvalues --    0.01999   0.03043   0.03272   0.04083   0.05318
 Alpha virt. eigenvalues --    0.06744   0.07396   0.07505   0.08114   0.08464

 Mulliken charges:
               1
     1  Mg   0.427681
     2  C   -0.032505
     3  C   -0.080140
     4  C   -0.083598
     5  C   -0.069692
     6  N   -0.263305
     7  C    0.104645
     8  C   -0.001338
     9  C   -0.007523
    10  C    0.126269
    11  C   -0.051533
    12  C   -0.010631
    13  C    0.010267
    14  C    0.464887
    15  O   -0.502127
    16  O   -0.274437
    17  N   -0.337284
    18  C    0.107235
    19  C    0.030013
    20  C   -0.038161
    21  C    0.156095
    22  C   -0.043064
    23  C    0.336868
    24  O   -0.536818
    25  C   -0.021798
    26  N   -0.272201
    27  C    0.162905
    28  C    0.008371
    29  C   -0.002908
    30  C    0.110694
    31  C   -0.041057
    32  C   -0.025270
    33  C   -0.060030
    34  N   -0.315949
    35  C    0.104926
    36  C    0.001455
    37  C   -0.049057
    38  C    0.107789
    39  C   -0.038035
    40  C    0.326406
    41  O   -0.521605
    42  C    0.055787
    43  C    0.481859
    44  O   -0.519832
    45  O   -0.248271
    46  C    0.075289
    47  C    0.096915
    48  C   -0.109842
    49  C   -0.016917
    50  C   -0.043847
    51  C   -0.019845
    52  C   -0.034334
    53  C   -0.039375
    54  C   -0.013536
    55  C   -0.064009
    56  C   -0.034814
    57  C   -0.038932
    58  C   -0.049282
    59  C   -0.011056
    60  C   -0.059316
    61  C   -0.036039
    62  C   -0.053398
    63  C   -0.033160
    64  C   -0.008637
    65  C   -0.067740
    66  C   -0.062254
    67  H    0.026512
    68  H    0.041033
    69  H    0.018776
    70  H    0.052266
    71  H    0.025938
    72  H    0.045803
    73  H    0.030905
    74  H    0.016127
    75  H    0.028588
    76  H    0.021894
    77  H    0.031399
    78  H    0.041190
    79  H    0.023603
    80  H    0.028203
    81  H    0.034282
    82  H    0.030520
    83  H    0.036614
    84  H    0.031344
    85  H    0.024103
    86  H    0.026056
    87  H    0.017323
    88  H    0.022816
    89  H    0.021465
    90  H    0.019308
    91  H    0.026110
    92  H    0.022589
    93  H    0.017556
    94  H    0.026803
    95  H    0.029223
    96  H    0.027738
    97  H    0.033296
    98  H    0.052899
    99  H    0.047597
   100  H    0.043144
   101  H    0.027821
   102  H    0.052799
   103  H    0.052745
   104  H    0.031359
   105  H    0.026296
   106  H    0.032272
   107  H    0.033172
   108  H    0.028961
   109  H    0.021175
   110  H    0.027865
   111  H    0.031953
   112  H    0.013702
   113  H    0.017530
   114  H    0.010440
   115  H    0.016169
   116  H    0.016283
   117  H    0.022417
   118  H    0.022070
   119  H    0.005916
   120  H    0.028133
   121  H    0.031745
   122  H    0.027839
   123  H    0.013222
   124  H    0.014939
   125  H    0.017032
   126  H    0.023336
   127  H    0.021376
   128  H    0.019147
   129  H    0.014908
   130  H    0.020378
   131  H    0.011801
   132  H    0.020843
   133  H    0.017787
   134  H    0.024272
   135  H    0.014256
   136  H    0.023818
   137  H    0.030052
   138  H    0.028721
   139  H    0.015816
   140  H    0.014754
 Sum of Mulliken charges =  -0.00000

 Dipole moment (field-independent basis, Debye):
    X=              7.3892    Y=              4.7480    Z=             -3.7914  Tot=              9.5665
 N-N= 4.234963545836D+03 E-N= 0.000000000000D+00  KE=-9.144584020704D+03
 Leave Link  601 at Fri Apr 29 16:24:42 2022, MaxMem=  6710886400 cpu:               0.8 elap:               0.1
 (Enter /sw/apps/gaussian-16.0/g16/l9999.exe)
 1\1\GINC-BP1-COMPUTE163\SP\RZINDO CIS\STO-3G\C55H74Mg1N4O6\OF15641\29-
 Apr-2022\0\\#p ZINDO=(nstates=5)\\step_351_chromophore_6 ZINDO\\0,1\Mg
 ,0,16.616,-2.149,27.835\C,0,15.825,0.07,30.559\C,0,18.539,-3.995,30.08
 8\C,0,17.719,-4.025,25.316\C,0,15.125,0.082,25.776\N,0,17.15,-1.882,30
 .079\C,0,16.684,-1.002,30.972\C,0,17.26,-1.219,32.391\C,0,18.326,-2.40
 1,32.124\C,0,18.007,-2.772,30.667\C,0,19.838,-2.083,32.406\C,0,16.182,
 -1.503,33.47\C,0,16.21,-0.725,34.793\C,0,17.56,-0.398,35.409\O,0,18.04

 Normal termination of Gaussian 16 at Fri Apr 29 16:24:42 2022.
