 Gaussian 16, Revision A.03,
 Gaussian 16:  ES64L-G16RevA.03 25-Dec-2016

 ------------------------------
 #p blyp/Def2SVP td=(nstates=5)
 ------------------------------

 -------------------------------------------------
 step_151_chromophore_9 TDDFT with blyp functional
 -------------------------------------------------
 Symbolic Z-matrix:
 Charge =  0 Multiplicity = 1

                         Standard orientation:
 ---------------------------------------------------------------------
 Center     Atomic      Atomic             Coordinates (Angstroms)
 Number     Number       Type             X           Y           Z
 ---------------------------------------------------------------------
      1         12           0       -5.066621    0.810749   -0.269595
      2          6           0       -3.787900   -2.448952    0.002977
      3          6           0       -1.933256    1.956332   -0.457067
      4          6           0       -6.323413    3.853822   -0.127123
      5          6           0       -8.291469   -0.524845    0.752769
      6          7           0       -3.098381   -0.159366   -0.067355
      7          6           0       -2.787763   -1.419880   -0.146387
      8          6           0       -1.284834   -1.717882   -0.175521
      9          6           0       -0.682139   -0.269100   -0.193768
     10          6           0       -1.986247    0.564775   -0.276203
     11          6           0        0.252942    0.026456    0.953701
     12          6           0       -0.910579   -2.391159   -1.569008
     13          6           0        0.219552   -3.410630   -1.515471
     14          6           0        1.273578   -3.253669   -0.433680
     15          8           0        1.103153   -3.748056    0.650078
     16          8           0        2.342935   -2.535122   -0.803798
     17          7           0       -4.201981    2.690958   -0.477001
     18          6           0       -2.932314    2.976826   -0.562118
     19          6           0       -2.748814    4.416882   -0.741376
     20          6           0       -4.055798    4.995742   -0.735155
     21          6           0       -4.970847    3.811313   -0.432592
     22          6           0       -1.368332    5.064353   -0.669993
     23          6           0       -4.436272    6.416588   -0.706113
     24          8           0       -5.569032    6.747390   -0.345497
     25          6           0       -3.479178    7.613454   -1.063771
     26          7           0       -7.067827    1.516489    0.009170
     27          6           0       -7.296522    2.890678    0.159955
     28          6           0       -8.753251    3.174322    0.579486
     29          6           0       -9.317791    1.772742    0.823874
     30          6           0       -8.158816    0.831997    0.518501
     31          6           0       -8.711596    4.020382    1.861985
     32          6           0      -10.584354    1.439472   -0.084381
     33          6           0      -10.251616    0.761505   -1.445015
     34          7           0       -5.958437   -1.074024    0.125263
     35          6           0       -7.282455   -1.502705    0.494028
     36          6           0       -7.213107   -2.912527    0.700842
     37          6           0       -5.929996   -3.305763    0.489081
     38          6           0       -5.195203   -2.184748    0.128134
     39          6           0       -8.338109   -3.752145    1.207263
     40          6           0       -5.108759   -4.533174    0.360791
     41          8           0       -5.361280   -5.729397    0.530763
     42          6           0       -3.649471   -4.002413   -0.117348
     43          6           0       -2.547630   -4.570307    0.788017
     44          8           0       -2.156381   -4.157705    1.872372
     45          8           0       -2.158285   -5.811429    0.238877
     46          6           0       -1.311430   -6.586553    1.144997
     47          6           0        3.416565   -2.502509    0.125672
     48          6           0        4.504346   -2.004378   -0.777752
     49          6           0        5.230124   -2.659264   -1.690782
     50          6           0        4.932143   -4.080831   -2.099299
     51          6           0        6.355623   -1.958305   -2.496768
     52          6           0        7.535513   -1.430063   -1.684700
     53          6           0        8.909110   -1.283806   -2.562309
     54          6           0        9.118747    0.168209   -3.082927
     55          6           0        8.560975    0.378547   -4.510786
     56          6           0       10.542731    0.658538   -2.985394
     57          6           0       10.736337    2.037806   -2.268985
     58          6           0       11.889151    2.017249   -1.245820
     59          6           0       11.457148    2.579993    0.171593
     60          6           0       12.677966    3.236872    0.786070
     61          6           0       10.903157    1.413883    1.092393
     62          6           0        9.853470    1.948634    2.105013
     63          6           0       10.363586    2.010949    3.596400
     64          6           0        9.752002    0.958582    4.630440
     65          6           0        9.592591    1.424185    6.072743
     66          6           0       10.741837   -0.254597    4.698643
     67          1           0       -0.890653    2.265472   -0.548423
     68          1           0       -6.693807    4.880834   -0.075540
     69          1           0       -9.241032   -0.775082    1.230084
     70          1           0       -1.053858   -2.316370    0.705816
     71          1           0       -0.125317   -0.097475   -1.114911
     72          1           0       -0.270848    0.493994    1.787755
     73          1           0        1.031649    0.711853    0.618361
     74          1           0        0.640384   -0.898097    1.380346
     75          1           0       -0.546287   -1.706252   -2.335285
     76          1           0       -1.820601   -2.889186   -1.902983
     77          1           0        0.754397   -3.252877   -2.451635
     78          1           0       -0.233899   -4.401226   -1.481155
     79          1           0       -1.495373    5.722797    0.189269
     80          1           0       -1.169089    5.674258   -1.551605
     81          1           0       -0.555297    4.342639   -0.595593
     82          1           0       -3.097494    7.943927   -0.097494
     83          1           0       -4.192671    8.330728   -1.466728
     84          1           0       -2.634056    7.561255   -1.749572
     85          1           0       -9.219871    3.580800   -0.318220
     86          1           0       -9.544249    1.595315    1.875523
     87          1           0       -9.048299    5.042652    1.693087
     88          1           0       -7.654465    4.015388    2.127033
     89          1           0       -9.340178    3.528734    2.604452
     90          1           0      -11.016974    2.424704   -0.261220
     91          1           0      -11.163178    0.833679    0.612138
     92          1           0      -10.905667    1.205174   -2.196105
     93          1           0      -10.511590   -0.292304   -1.338737
     94          1           0       -9.195356    0.936962   -1.644607
     95          1           0       -8.887912   -4.134223    0.346613
     96          1           0       -8.940421   -3.102944    1.842766
     97          1           0       -7.974194   -4.602675    1.784255
     98          1           0       -3.451033   -4.231556   -1.164432
     99          1           0       -0.273202   -6.284755    1.279737
    100          1           0       -1.336820   -7.645495    0.888819
    101          1           0       -1.724826   -6.513609    2.151720
    102          1           0        3.798801   -3.510995    0.285256
    103          1           0        3.194667   -1.887228    0.997274
    104          1           0        4.910625   -1.022412   -0.535015
    105          1           0        4.597704   -4.649549   -1.231014
    106          1           0        5.860107   -4.546410   -2.429404
    107          1           0        4.287466   -4.193271   -2.970888
    108          1           0        5.898053   -1.108289   -3.004229
    109          1           0        6.705279   -2.613424   -3.295674
    110          1           0        7.790019   -2.107855   -0.869810
    111          1           0        7.090978   -0.508394   -1.307979
    112          1           0        8.868046   -2.009507   -3.374809
    113          1           0        9.716798   -1.480562   -1.857257
    114          1           0        8.564958    0.840205   -2.426957
    115          1           0        9.338086    0.787738   -5.155611
    116          1           0        7.773666    1.131510   -4.470597
    117          1           0        8.155454   -0.518751   -4.977230
    118          1           0       11.116025    0.903096   -3.879753
    119          1           0       11.109978   -0.023150   -2.351190
    120          1           0        9.857526    2.330870   -1.695353
    121          1           0       10.925510    2.769294   -3.055076
    122          1           0       12.783828    2.532665   -1.593592
    123          1           0       12.238948    1.020836   -0.976022
    124          1           0       10.766128    3.422174    0.178514
    125          1           0       13.256866    2.533149    1.383426
    126          1           0       12.338522    3.961226    1.526067
    127          1           0       13.243659    3.832533    0.068984
    128          1           0       11.697808    0.887541    1.621239
    129          1           0       10.505657    0.714283    0.356269
    130          1           0        8.937842    1.362049    2.046777
    131          1           0        9.453273    2.946864    1.929515
    132          1           0        9.936997    2.965248    3.906008
    133          1           0       11.447853    2.128398    3.586828
    134          1           0        8.770348    0.671547    4.253288
    135          1           0       10.256383    2.275843    6.221093
    136          1           0        9.580342    0.726669    6.909536
    137          1           0        8.567205    1.794483    6.070474
    138          1           0       11.570470   -0.066828    4.016946
    139          1           0       10.214053   -1.074733    4.212197
    140          1           0       10.993541   -0.602049    5.699965
 ---------------------------------------------------------------------

 SCF Done:  E(RB-LYP) =  -3007.35802152     A.U. after   21 cycles

 Excitation energies and oscillator strengths:

 Excited State   1:      Singlet-A      1.7985 eV  689.37 nm  f=0.3287  <S**2>=0.000
     245 -> 248        0.16273
     245 -> 249       -0.10593
     246 -> 247        0.69013
     246 <- 247       -0.15366
 This state for optimization and/or second-order correction.
 Total Energy, E(TD-HF/TD-DFT) =  -3007.29192743
 Copying the excited state density for this state as the 1-particle RhoCI density.

 Excited State   2:      Singlet-A      1.9881 eV  623.63 nm  f=0.0773  <S**2>=0.000
     243 -> 247        0.12964
     245 -> 247        0.64173
     246 -> 248       -0.19220
     246 -> 249        0.12588

 Excited State   3:      Singlet-A      2.0759 eV  597.27 nm  f=0.0029  <S**2>=0.000
     244 -> 247        0.70267

 Excited State   4:      Singlet-A      2.1597 eV  574.08 nm  f=0.0023  <S**2>=0.000
     243 -> 247        0.69289
     245 -> 247       -0.11084

 Excited State   5:      Singlet-A      2.4324 eV  509.71 nm  f=0.0003  <S**2>=0.000
     241 -> 247        0.24356
     242 -> 247        0.66302

 The electronic state is 1-A.
 Alpha  occ. eigenvalues --  -46.27532 -18.83032 -18.81390 -18.77044 -18.76870
 Alpha  occ. eigenvalues --  -18.76449 -18.75510 -14.03467 -14.02906 -14.01326
 Alpha  occ. eigenvalues --  -14.00554 -10.03872 -10.03779 -10.00550 -10.00080
 Alpha  occ. eigenvalues --   -9.98427  -9.96395  -9.96313  -9.96242  -9.96118
 Alpha  occ. eigenvalues --   -9.95904  -9.95774  -9.95617  -9.95464  -9.94753
 Alpha  occ. eigenvalues --   -9.94327  -9.94202  -9.93736  -9.93617  -9.93594
 Alpha  occ. eigenvalues --   -9.93492  -9.93460  -9.93318  -9.93237  -9.93052
 Alpha  occ. eigenvalues --   -9.92922  -9.92904  -9.92756  -9.92678  -9.92649
 Alpha  occ. eigenvalues --   -9.92636  -9.92411  -9.92358  -9.92342  -9.92341
 Alpha  occ. eigenvalues --   -9.92270  -9.92155  -9.92000  -9.91986  -9.91835
 Alpha  occ. eigenvalues --   -9.91824  -9.91799  -9.91791  -9.91724  -9.91655
 Alpha  occ. eigenvalues --   -9.91601  -9.91568  -9.91489  -9.91205  -9.91084
 Alpha  occ. eigenvalues --   -9.91011  -9.90734  -9.90669  -9.90659  -9.90379
 Alpha  occ. eigenvalues --   -9.90339  -2.92072  -1.72516  -1.71949  -1.71775
 Alpha  occ. eigenvalues --   -1.00360  -0.96215  -0.91656  -0.91223  -0.90926
 Alpha  occ. eigenvalues --   -0.89079  -0.88239  -0.86869  -0.85198  -0.84247
 Alpha  occ. eigenvalues --   -0.74131  -0.73975  -0.73221  -0.72909  -0.72073
 Alpha  occ. eigenvalues --   -0.71997  -0.71456  -0.70963  -0.70724  -0.70362
 Alpha  occ. eigenvalues --   -0.70031  -0.69651  -0.68403  -0.67221  -0.66900
 Alpha  occ. eigenvalues --   -0.66635  -0.65668  -0.64939  -0.64523  -0.64336
 Alpha  occ. eigenvalues --   -0.63725  -0.62388  -0.62223  -0.61254  -0.60675
 Alpha  occ. eigenvalues --   -0.60171  -0.59824  -0.59622  -0.59390  -0.59174
 Alpha  occ. eigenvalues --   -0.58472  -0.57559  -0.56383  -0.55540  -0.54522
 Alpha  occ. eigenvalues --   -0.54000  -0.53672  -0.53329  -0.52543  -0.52035
 Alpha  occ. eigenvalues --   -0.51217  -0.51044  -0.50596  -0.50300  -0.50061
 Alpha  occ. eigenvalues --   -0.49710  -0.49073  -0.48984  -0.47629  -0.46784
 Alpha  occ. eigenvalues --   -0.46161  -0.45966  -0.45615  -0.45166  -0.44427
 Alpha  occ. eigenvalues --   -0.43938  -0.43685  -0.42998  -0.42667  -0.42515
 Alpha  occ. eigenvalues --   -0.42216  -0.41903  -0.41691  -0.41369  -0.41118
 Alpha  occ. eigenvalues --   -0.40719  -0.40409  -0.40210  -0.40008  -0.39887
 Alpha  occ. eigenvalues --   -0.39749  -0.39546  -0.39356  -0.39264  -0.39133
 Alpha  occ. eigenvalues --   -0.39021  -0.38928  -0.38530  -0.38368  -0.38315
 Alpha  occ. eigenvalues --   -0.37965  -0.37881  -0.37788  -0.37649  -0.37355
 Alpha  occ. eigenvalues --   -0.37164  -0.37034  -0.36833  -0.36740  -0.36691
 Alpha  occ. eigenvalues --   -0.36380  -0.36189  -0.36072  -0.35969  -0.35681
 Alpha  occ. eigenvalues --   -0.35293  -0.35060  -0.34845  -0.34814  -0.34573
 Alpha  occ. eigenvalues --   -0.34279  -0.34214  -0.33843  -0.33732  -0.33606
 Alpha  occ. eigenvalues --   -0.33598  -0.33450  -0.33254  -0.33171  -0.33151
 Alpha  occ. eigenvalues --   -0.32968  -0.32934  -0.32902  -0.32654  -0.32283
 Alpha  occ. eigenvalues --   -0.31915  -0.31813  -0.31648  -0.31530  -0.31295
 Alpha  occ. eigenvalues --   -0.31188  -0.31156  -0.30994  -0.30954  -0.30882
 Alpha  occ. eigenvalues --   -0.30798  -0.30584  -0.30369  -0.30287  -0.29603
 Alpha  occ. eigenvalues --   -0.29483  -0.29306  -0.29165  -0.29003  -0.28888
 Alpha  occ. eigenvalues --   -0.28574  -0.28272  -0.28044  -0.27940  -0.27474
 Alpha  occ. eigenvalues --   -0.27324  -0.27307  -0.27197  -0.26968  -0.26477
 Alpha  occ. eigenvalues --   -0.26234  -0.26169  -0.26004  -0.25595  -0.25538
 Alpha  occ. eigenvalues --   -0.25165  -0.24347  -0.24069  -0.23919  -0.23815
 Alpha  occ. eigenvalues --   -0.23189  -0.22480  -0.22168  -0.21758  -0.21071
 Alpha  occ. eigenvalues --   -0.20489  -0.20325  -0.19205  -0.18931  -0.17056
 Alpha  occ. eigenvalues --   -0.15618
 Alpha virt. eigenvalues --   -0.11415  -0.07013  -0.05897  -0.04955  -0.02933
 Alpha virt. eigenvalues --   -0.02802  -0.02606  -0.01873  -0.01074   0.00388
 Alpha virt. eigenvalues --    0.00964   0.01564   0.02092   0.02341   0.02619

 Mulliken charges:
               1
     1  Mg   0.685568
     2  C   -0.027743
     3  C   -0.053206
     4  C   -0.022630
     5  C   -0.059934
     6  N   -0.157359
     7  C   -0.053080
     8  C   -0.048139
     9  C    0.028251
    10  C   -0.024129
    11  C    0.133713
    12  C    0.078439
    13  C    0.172402
    14  C    0.037343
    15  O   -0.187136
    16  O   -0.233835
    17  N   -0.242363
    18  C    0.122879
    19  C   -0.147572
    20  C    0.077732
    21  C    0.079787
    22  C    0.172716
    23  C   -0.096883
    24  O   -0.186387
    25  C    0.104651
    26  N   -0.245245
    27  C   -0.032381
    28  C    0.074293
    29  C    0.000922
    30  C   -0.025726
    31  C    0.143300
    32  C    0.055324
    33  C    0.095067
    34  N   -0.283277
    35  C    0.134861
    36  C   -0.196684
    37  C    0.070734
    38  C    0.094620
    39  C    0.181977
    40  C    0.008905
    41  O   -0.129108
    42  C    0.017960
    43  C    0.144879
    44  O   -0.175212
    45  O   -0.286167
    46  C    0.220042
    47  C    0.342909
    48  C   -0.110932
    49  C   -0.146180
    50  C    0.145661
    51  C    0.127201
    52  C    0.036095
    53  C    0.110629
    54  C   -0.049176
    55  C    0.114719
    56  C    0.096025
    57  C    0.069388
    58  C    0.093429
    59  C   -0.113389
    60  C    0.102184
    61  C    0.114505
    62  C    0.083630
    63  C    0.063965
    64  C   -0.088727
    65  C    0.110740
    66  C    0.108676
    67  H   -0.086347
    68  H   -0.047233
    69  H   -0.065094
    70  H    0.039971
    71  H   -0.028748
    72  H   -0.015087
    73  H   -0.009571
    74  H    0.008751
    75  H   -0.012566
    76  H   -0.021040
    77  H   -0.026263
    78  H    0.002918
    79  H    0.013421
    80  H    0.001692
    81  H   -0.003852
    82  H    0.012194
    83  H    0.006364
    84  H   -0.009001
    85  H   -0.019100
    86  H   -0.031749
    87  H    0.003632
    88  H    0.004972
    89  H   -0.009952
    90  H   -0.019866
    91  H   -0.016918
    92  H   -0.008892
    93  H   -0.002213
    94  H    0.019289
    95  H    0.004689
    96  H   -0.007410
    97  H    0.004627
    98  H    0.019237
    99  H    0.016906
   100  H    0.003591
   101  H    0.002714
   102  H   -0.005965
   103  H    0.007394
   104  H   -0.053966
   105  H   -0.014325
   106  H   -0.022194
   107  H    0.012599
   108  H   -0.015331
   109  H   -0.047594
   110  H   -0.024534
   111  H   -0.008657
   112  H   -0.020726
   113  H   -0.031112
   114  H   -0.038868
   115  H   -0.022967
   116  H   -0.020482
   117  H   -0.015490
   118  H   -0.026813
   119  H   -0.040552
   120  H   -0.025564
   121  H   -0.027689
   122  H   -0.041485
   123  H   -0.034629
   124  H   -0.030106
   125  H   -0.022019
   126  H   -0.035357
   127  H   -0.014686
   128  H   -0.019181
   129  H   -0.035177
   130  H   -0.043372
   131  H   -0.032142
   132  H   -0.047639
   133  H   -0.018394
   134  H   -0.032138
   135  H   -0.010415
   136  H   -0.006742
   137  H   -0.033240
   138  H   -0.018480
   139  H   -0.030676
   140  H   -0.008873
 Sum of Mulliken charges =  -0.00000

 Dipole moment (field-independent basis, Debye):
    X=              3.4384    Y=              2.4595    Z=             -2.7743  Tot=              5.0565
 Quadrupole moment (field-independent basis, Debye-Ang):
   XX=           -386.4301   YY=           -435.3551   ZZ=           -405.4151
   XY=             -8.2310   XZ=             -6.3114   YZ=              7.6746

 Normal termination of Gaussian 16 at Thu Apr 28 11:57:52 2022.
