 Gaussian 16, Revision A.03,
 Gaussian 16:  ES64L-G16RevA.03 25-Dec-2016

 -----------------------------------
 #p cam-b3lyp/Def2SVP td=(nstates=5)
 -----------------------------------

 ------------------------------------------------------
 step_151_chromophore_9 TDDFT with cam-b3lyp functional
 ------------------------------------------------------
 Symbolic Z-matrix:
 Charge =  0 Multiplicity = 1

                         Standard orientation:
 ---------------------------------------------------------------------
 Center     Atomic      Atomic             Coordinates (Angstroms)
 Number     Number       Type             X           Y           Z
 ---------------------------------------------------------------------
      1         12           0       -5.066621    0.810749   -0.269595
      2          6           0       -3.787900   -2.448952    0.002977
      3          6           0       -1.933256    1.956332   -0.457067
      4          6           0       -6.323413    3.853822   -0.127123
      5          6           0       -8.291469   -0.524845    0.752769
      6          7           0       -3.098381   -0.159366   -0.067355
      7          6           0       -2.787763   -1.419880   -0.146387
      8          6           0       -1.284834   -1.717882   -0.175521
      9          6           0       -0.682139   -0.269100   -0.193768
     10          6           0       -1.986247    0.564775   -0.276203
     11          6           0        0.252942    0.026456    0.953701
     12          6           0       -0.910579   -2.391159   -1.569008
     13          6           0        0.219552   -3.410630   -1.515471
     14          6           0        1.273578   -3.253669   -0.433680
     15          8           0        1.103153   -3.748056    0.650078
     16          8           0        2.342935   -2.535122   -0.803798
     17          7           0       -4.201981    2.690958   -0.477001
     18          6           0       -2.932314    2.976826   -0.562118
     19          6           0       -2.748814    4.416882   -0.741376
     20          6           0       -4.055798    4.995742   -0.735155
     21          6           0       -4.970847    3.811313   -0.432592
     22          6           0       -1.368332    5.064353   -0.669993
     23          6           0       -4.436272    6.416588   -0.706113
     24          8           0       -5.569032    6.747390   -0.345497
     25          6           0       -3.479178    7.613454   -1.063771
     26          7           0       -7.067827    1.516489    0.009170
     27          6           0       -7.296522    2.890678    0.159955
     28          6           0       -8.753251    3.174322    0.579486
     29          6           0       -9.317791    1.772742    0.823874
     30          6           0       -8.158816    0.831997    0.518501
     31          6           0       -8.711596    4.020382    1.861985
     32          6           0      -10.584354    1.439472   -0.084381
     33          6           0      -10.251616    0.761505   -1.445015
     34          7           0       -5.958437   -1.074024    0.125263
     35          6           0       -7.282455   -1.502705    0.494028
     36          6           0       -7.213107   -2.912527    0.700842
     37          6           0       -5.929996   -3.305763    0.489081
     38          6           0       -5.195203   -2.184748    0.128134
     39          6           0       -8.338109   -3.752145    1.207263
     40          6           0       -5.108759   -4.533174    0.360791
     41          8           0       -5.361280   -5.729397    0.530763
     42          6           0       -3.649471   -4.002413   -0.117348
     43          6           0       -2.547630   -4.570307    0.788017
     44          8           0       -2.156381   -4.157705    1.872372
     45          8           0       -2.158285   -5.811429    0.238877
     46          6           0       -1.311430   -6.586553    1.144997
     47          6           0        3.416565   -2.502509    0.125672
     48          6           0        4.504346   -2.004378   -0.777752
     49          6           0        5.230124   -2.659264   -1.690782
     50          6           0        4.932143   -4.080831   -2.099299
     51          6           0        6.355623   -1.958305   -2.496768
     52          6           0        7.535513   -1.430063   -1.684700
     53          6           0        8.909110   -1.283806   -2.562309
     54          6           0        9.118747    0.168209   -3.082927
     55          6           0        8.560975    0.378547   -4.510786
     56          6           0       10.542731    0.658538   -2.985394
     57          6           0       10.736337    2.037806   -2.268985
     58          6           0       11.889151    2.017249   -1.245820
     59          6           0       11.457148    2.579993    0.171593
     60          6           0       12.677966    3.236872    0.786070
     61          6           0       10.903157    1.413883    1.092393
     62          6           0        9.853470    1.948634    2.105013
     63          6           0       10.363586    2.010949    3.596400
     64          6           0        9.752002    0.958582    4.630440
     65          6           0        9.592591    1.424185    6.072743
     66          6           0       10.741837   -0.254597    4.698643
     67          1           0       -0.890653    2.265472   -0.548423
     68          1           0       -6.693807    4.880834   -0.075540
     69          1           0       -9.241032   -0.775082    1.230084
     70          1           0       -1.053858   -2.316370    0.705816
     71          1           0       -0.125317   -0.097475   -1.114911
     72          1           0       -0.270848    0.493994    1.787755
     73          1           0        1.031649    0.711853    0.618361
     74          1           0        0.640384   -0.898097    1.380346
     75          1           0       -0.546287   -1.706252   -2.335285
     76          1           0       -1.820601   -2.889186   -1.902983
     77          1           0        0.754397   -3.252877   -2.451635
     78          1           0       -0.233899   -4.401226   -1.481155
     79          1           0       -1.495373    5.722797    0.189269
     80          1           0       -1.169089    5.674258   -1.551605
     81          1           0       -0.555297    4.342639   -0.595593
     82          1           0       -3.097494    7.943927   -0.097494
     83          1           0       -4.192671    8.330728   -1.466728
     84          1           0       -2.634056    7.561255   -1.749572
     85          1           0       -9.219871    3.580800   -0.318220
     86          1           0       -9.544249    1.595315    1.875523
     87          1           0       -9.048299    5.042652    1.693087
     88          1           0       -7.654465    4.015388    2.127033
     89          1           0       -9.340178    3.528734    2.604452
     90          1           0      -11.016974    2.424704   -0.261220
     91          1           0      -11.163178    0.833679    0.612138
     92          1           0      -10.905667    1.205174   -2.196105
     93          1           0      -10.511590   -0.292304   -1.338737
     94          1           0       -9.195356    0.936962   -1.644607
     95          1           0       -8.887912   -4.134223    0.346613
     96          1           0       -8.940421   -3.102944    1.842766
     97          1           0       -7.974194   -4.602675    1.784255
     98          1           0       -3.451033   -4.231556   -1.164432
     99          1           0       -0.273202   -6.284755    1.279737
    100          1           0       -1.336820   -7.645495    0.888819
    101          1           0       -1.724826   -6.513609    2.151720
    102          1           0        3.798801   -3.510995    0.285256
    103          1           0        3.194667   -1.887228    0.997274
    104          1           0        4.910625   -1.022412   -0.535015
    105          1           0        4.597704   -4.649549   -1.231014
    106          1           0        5.860107   -4.546410   -2.429404
    107          1           0        4.287466   -4.193271   -2.970888
    108          1           0        5.898053   -1.108289   -3.004229
    109          1           0        6.705279   -2.613424   -3.295674
    110          1           0        7.790019   -2.107855   -0.869810
    111          1           0        7.090978   -0.508394   -1.307979
    112          1           0        8.868046   -2.009507   -3.374809
    113          1           0        9.716798   -1.480562   -1.857257
    114          1           0        8.564958    0.840205   -2.426957
    115          1           0        9.338086    0.787738   -5.155611
    116          1           0        7.773666    1.131510   -4.470597
    117          1           0        8.155454   -0.518751   -4.977230
    118          1           0       11.116025    0.903096   -3.879753
    119          1           0       11.109978   -0.023150   -2.351190
    120          1           0        9.857526    2.330870   -1.695353
    121          1           0       10.925510    2.769294   -3.055076
    122          1           0       12.783828    2.532665   -1.593592
    123          1           0       12.238948    1.020836   -0.976022
    124          1           0       10.766128    3.422174    0.178514
    125          1           0       13.256866    2.533149    1.383426
    126          1           0       12.338522    3.961226    1.526067
    127          1           0       13.243659    3.832533    0.068984
    128          1           0       11.697808    0.887541    1.621239
    129          1           0       10.505657    0.714283    0.356269
    130          1           0        8.937842    1.362049    2.046777
    131          1           0        9.453273    2.946864    1.929515
    132          1           0        9.936997    2.965248    3.906008
    133          1           0       11.447853    2.128398    3.586828
    134          1           0        8.770348    0.671547    4.253288
    135          1           0       10.256383    2.275843    6.221093
    136          1           0        9.580342    0.726669    6.909536
    137          1           0        8.567205    1.794483    6.070474
    138          1           0       11.570470   -0.066828    4.016946
    139          1           0       10.214053   -1.074733    4.212197
    140          1           0       10.993541   -0.602049    5.699965
 ---------------------------------------------------------------------

 SCF Done:  E(RCAM-B3LYP) =  -3007.15269479     A.U. after   18 cycles

 Excitation energies and oscillator strengths:

 Excited State   1:      Singlet-A      1.6826 eV  736.87 nm  f=0.4005  <S**2>=0.000
     245 -> 248       -0.16684
     246 -> 247        0.68603
     245 <- 248       -0.10183
 This state for optimization and/or second-order correction.
 Total Energy, E(TD-HF/TD-DFT) =  -3007.09086130
 Copying the excited state density for this state as the 1-particle RhoCI density.

 Excited State   2:      Singlet-A      2.2114 eV  560.65 nm  f=0.1191  <S**2>=0.000
     245 -> 247        0.64276
     246 -> 248        0.27388

 Excited State   3:      Singlet-A      3.4149 eV  363.07 nm  f=0.0837  <S**2>=0.000
     244 -> 247        0.60712
     246 -> 248       -0.31189

 Excited State   4:      Singlet-A      3.5058 eV  353.65 nm  f=0.4388  <S**2>=0.000
     241 -> 247       -0.10925
     242 -> 247       -0.13456
     244 -> 247        0.33045
     245 -> 247       -0.23146
     246 -> 248        0.53798

 Excited State   5:      Singlet-A      3.6050 eV  343.92 nm  f=0.0047  <S**2>=0.000
     240 -> 247        0.26991
     240 -> 249        0.14536
     240 -> 250       -0.13980
     241 -> 247        0.46129
     241 -> 249        0.22211
     241 -> 250       -0.20843
     242 -> 247       -0.13714
     243 -> 247       -0.12740

 The electronic state is 1-A.
 Alpha  occ. eigenvalues --  -46.89053 -19.25919 -19.24311 -19.20269 -19.19798
 Alpha  occ. eigenvalues --  -19.19636 -19.18763 -14.42302 -14.41749 -14.39822
 Alpha  occ. eigenvalues --  -14.38887 -10.39447 -10.39032 -10.36036 -10.35433
 Alpha  occ. eigenvalues --  -10.32464 -10.30855 -10.30736 -10.30730 -10.30581
 Alpha  occ. eigenvalues --  -10.30060 -10.29904 -10.29826 -10.29642 -10.29288
 Alpha  occ. eigenvalues --  -10.29087 -10.28456 -10.28048 -10.27586 -10.27546
 Alpha  occ. eigenvalues --  -10.27528 -10.27492 -10.27457 -10.27392 -10.27162
 Alpha  occ. eigenvalues --  -10.26893 -10.26892 -10.26814 -10.26751 -10.26670
 Alpha  occ. eigenvalues --  -10.26423 -10.26337 -10.26111 -10.26101 -10.26085
 Alpha  occ. eigenvalues --  -10.26063 -10.26006 -10.25688 -10.25659 -10.25593
 Alpha  occ. eigenvalues --  -10.25561 -10.25560 -10.25440 -10.25428 -10.25423
 Alpha  occ. eigenvalues --  -10.25397 -10.25349 -10.25172 -10.24881 -10.24804
 Alpha  occ. eigenvalues --  -10.24652 -10.24611 -10.24398 -10.24247 -10.23991
 Alpha  occ. eigenvalues --  -10.23931  -3.17495  -1.92418  -1.91947  -1.91790
 Alpha  occ. eigenvalues --   -1.18856  -1.14779  -1.09678  -1.09589  -1.09290
 Alpha  occ. eigenvalues --   -1.07003  -1.06027  -1.04525  -1.02747  -1.01739
 Alpha  occ. eigenvalues --   -0.91163  -0.90848  -0.90034  -0.89706  -0.88724
 Alpha  occ. eigenvalues --   -0.88681  -0.88068  -0.87537  -0.87304  -0.87112
 Alpha  occ. eigenvalues --   -0.86495  -0.85994  -0.84652  -0.83349  -0.82988
 Alpha  occ. eigenvalues --   -0.82713  -0.81576  -0.81006  -0.80403  -0.80271
 Alpha  occ. eigenvalues --   -0.79583  -0.78172  -0.77841  -0.76662  -0.76042
 Alpha  occ. eigenvalues --   -0.75486  -0.75159  -0.74948  -0.74628  -0.74391
 Alpha  occ. eigenvalues --   -0.73559  -0.72535  -0.71248  -0.70368  -0.69103
 Alpha  occ. eigenvalues --   -0.68753  -0.68253  -0.67805  -0.66936  -0.66252
 Alpha  occ. eigenvalues --   -0.65428  -0.65099  -0.64462  -0.64251  -0.64116
 Alpha  occ. eigenvalues --   -0.63619  -0.63022  -0.62929  -0.61317  -0.60469
 Alpha  occ. eigenvalues --   -0.59807  -0.59490  -0.59017  -0.58550  -0.57745
 Alpha  occ. eigenvalues --   -0.57444  -0.57183  -0.56294  -0.55801  -0.55574
 Alpha  occ. eigenvalues --   -0.55138  -0.54989  -0.54679  -0.54483  -0.53951
 Alpha  occ. eigenvalues --   -0.53533  -0.53396  -0.53205  -0.52758  -0.52617
 Alpha  occ. eigenvalues --   -0.52386  -0.52324  -0.52213  -0.51985  -0.51758
 Alpha  occ. eigenvalues --   -0.51535  -0.51291  -0.51058  -0.50962  -0.50674
 Alpha  occ. eigenvalues --   -0.50475  -0.50252  -0.50221  -0.50067  -0.49557
 Alpha  occ. eigenvalues --   -0.49442  -0.49293  -0.49091  -0.49009  -0.48932
 Alpha  occ. eigenvalues --   -0.48881  -0.48425  -0.48213  -0.48137  -0.47996
 Alpha  occ. eigenvalues --   -0.47716  -0.47368  -0.47026  -0.46609  -0.46351
 Alpha  occ. eigenvalues --   -0.46163  -0.46135  -0.45689  -0.45572  -0.45419
 Alpha  occ. eigenvalues --   -0.45243  -0.45095  -0.44947  -0.44861  -0.44793
 Alpha  occ. eigenvalues --   -0.44700  -0.44692  -0.44514  -0.44421  -0.43971
 Alpha  occ. eigenvalues --   -0.43714  -0.43439  -0.43383  -0.42969  -0.42850
 Alpha  occ. eigenvalues --   -0.42706  -0.42573  -0.42449  -0.42369  -0.42320
 Alpha  occ. eigenvalues --   -0.42269  -0.42125  -0.41821  -0.41588  -0.41304
 Alpha  occ. eigenvalues --   -0.40821  -0.40709  -0.40464  -0.40214  -0.39929
 Alpha  occ. eigenvalues --   -0.39549  -0.39312  -0.38944  -0.38898  -0.38439
 Alpha  occ. eigenvalues --   -0.38169  -0.38146  -0.38058  -0.37873  -0.37814
 Alpha  occ. eigenvalues --   -0.37379  -0.36864  -0.36776  -0.36339  -0.36144
 Alpha  occ. eigenvalues --   -0.35830  -0.35690  -0.34589  -0.34576  -0.34382
 Alpha  occ. eigenvalues --   -0.34325  -0.34000  -0.32869  -0.31272  -0.31256
 Alpha  occ. eigenvalues --   -0.30871  -0.30431  -0.30376  -0.29709  -0.23761
 Alpha  occ. eigenvalues --   -0.20841
 Alpha virt. eigenvalues --   -0.08517  -0.01525   0.00381   0.01900   0.03097
 Alpha virt. eigenvalues --    0.04573   0.04752   0.05011   0.05675   0.06706
 Alpha virt. eigenvalues --    0.07988   0.08235   0.08454   0.08999   0.09116

 Mulliken charges:
               1
     1  Mg   0.818362
     2  C   -0.044277
     3  C   -0.064663
     4  C   -0.049224
     5  C   -0.067187
     6  N   -0.228805
     7  C   -0.007942
     8  C   -0.112121
     9  C   -0.021395
    10  C   -0.007121
    11  C    0.076626
    12  C    0.036315
    13  C    0.106733
    14  C    0.109731
    15  O   -0.226527
    16  O   -0.294001
    17  N   -0.332674
    18  C    0.128950
    19  C   -0.150186
    20  C    0.012748
    21  C    0.105737
    22  C    0.119697
    23  C   -0.026866
    24  O   -0.228676
    25  C    0.033465
    26  N   -0.313648
    27  C   -0.008412
    28  C    0.012526
    29  C   -0.050088
    30  C   -0.010141
    31  C    0.082814
    32  C    0.004407
    33  C    0.031988
    34  N   -0.369769
    35  C    0.137079
    36  C   -0.194091
    37  C   -0.007401
    38  C    0.127357
    39  C    0.130499
    40  C    0.108155
    41  O   -0.167372
    42  C   -0.055076
    43  C    0.230103
    44  O   -0.209902
    45  O   -0.348762
    46  C    0.179125
    47  C    0.303532
    48  C   -0.128933
    49  C   -0.168860
    50  C    0.084131
    51  C    0.073705
    52  C   -0.014083
    53  C    0.056689
    54  C   -0.106053
    55  C    0.057900
    56  C    0.040751
    57  C    0.018287
    58  C    0.037725
    59  C   -0.165897
    60  C    0.045190
    61  C    0.062736
    62  C    0.030914
    63  C    0.008268
    64  C   -0.142813
    65  C    0.047035
    66  C    0.049230
    67  H   -0.052434
    68  H   -0.005217
    69  H   -0.029349
    70  H    0.074782
    71  H    0.006462
    72  H    0.013051
    73  H    0.013263
    74  H    0.029488
    75  H    0.017410
    76  H    0.008244
    77  H    0.008651
    78  H    0.033619
    79  H    0.037660
    80  H    0.026587
    81  H    0.023430
    82  H    0.039767
    83  H    0.038672
    84  H    0.020873
    85  H    0.016144
    86  H    0.004261
    87  H    0.028138
    88  H    0.031533
    89  H    0.014356
    90  H    0.007850
    91  H    0.009862
    92  H    0.015695
    93  H    0.021052
    94  H    0.040221
    95  H    0.030998
    96  H    0.015209
    97  H    0.031876
    98  H    0.058847
    99  H    0.038942
   100  H    0.027670
   101  H    0.027599
   102  H    0.023974
   103  H    0.035824
   104  H   -0.021681
   105  H    0.008860
   106  H    0.003256
   107  H    0.036675
   108  H    0.013428
   109  H   -0.018382
   110  H    0.004981
   111  H    0.013622
   112  H    0.006300
   113  H   -0.001793
   114  H   -0.006814
   115  H    0.001809
   116  H    0.003473
   117  H    0.006828
   118  H    0.002226
   119  H   -0.012464
   120  H    0.000706
   121  H    0.000661
   122  H   -0.010459
   123  H   -0.006542
   124  H    0.000165
   125  H    0.000849
   126  H   -0.010251
   127  H    0.010551
   128  H    0.005532
   129  H   -0.009019
   130  H   -0.014012
   131  H   -0.003452
   132  H   -0.016885
   133  H    0.007074
   134  H   -0.001400
   135  H    0.013447
   136  H    0.018447
   137  H   -0.008651
   138  H    0.002581
   139  H   -0.005852
   140  H    0.015637
 Sum of Mulliken charges =  -0.00000

 Dipole moment (field-independent basis, Debye):
    X=              3.8579    Y=              3.0256    Z=             -2.9637  Tot=              5.7289
 Quadrupole moment (field-independent basis, Debye-Ang):
   XX=           -387.6264   YY=           -430.4094   ZZ=           -405.2229
   XY=             -9.3600   XZ=             -6.3901   YZ=              7.1019

 Normal termination of Gaussian 16 at Thu Apr 28 10:52:14 2022.
