 Gaussian 16, Revision A.03,
 Gaussian 16:  ES64L-G16RevA.03 25-Dec-2016

 ---------------------------------
 #p PBE1PBE/Def2SVP td=(nstates=5)
 ---------------------------------

 ----------------------------------------------------
 step_151_chromophore_9 TDDFT with PBE1PBE functional
 ----------------------------------------------------
 Symbolic Z-matrix:
 Charge =  0 Multiplicity = 1

                         Standard orientation:
 ---------------------------------------------------------------------
 Center     Atomic      Atomic             Coordinates (Angstroms)
 Number     Number       Type             X           Y           Z
 ---------------------------------------------------------------------
      1         12           0       -5.066621    0.810749   -0.269595
      2          6           0       -3.787900   -2.448952    0.002977
      3          6           0       -1.933256    1.956332   -0.457067
      4          6           0       -6.323413    3.853822   -0.127123
      5          6           0       -8.291469   -0.524845    0.752769
      6          7           0       -3.098381   -0.159366   -0.067355
      7          6           0       -2.787763   -1.419880   -0.146387
      8          6           0       -1.284834   -1.717882   -0.175521
      9          6           0       -0.682139   -0.269100   -0.193768
     10          6           0       -1.986247    0.564775   -0.276203
     11          6           0        0.252942    0.026456    0.953701
     12          6           0       -0.910579   -2.391159   -1.569008
     13          6           0        0.219552   -3.410630   -1.515471
     14          6           0        1.273578   -3.253669   -0.433680
     15          8           0        1.103153   -3.748056    0.650078
     16          8           0        2.342935   -2.535122   -0.803798
     17          7           0       -4.201981    2.690958   -0.477001
     18          6           0       -2.932314    2.976826   -0.562118
     19          6           0       -2.748814    4.416882   -0.741376
     20          6           0       -4.055798    4.995742   -0.735155
     21          6           0       -4.970847    3.811313   -0.432592
     22          6           0       -1.368332    5.064353   -0.669993
     23          6           0       -4.436272    6.416588   -0.706113
     24          8           0       -5.569032    6.747390   -0.345497
     25          6           0       -3.479178    7.613454   -1.063771
     26          7           0       -7.067827    1.516489    0.009170
     27          6           0       -7.296522    2.890678    0.159955
     28          6           0       -8.753251    3.174322    0.579486
     29          6           0       -9.317791    1.772742    0.823874
     30          6           0       -8.158816    0.831997    0.518501
     31          6           0       -8.711596    4.020382    1.861985
     32          6           0      -10.584354    1.439472   -0.084381
     33          6           0      -10.251616    0.761505   -1.445015
     34          7           0       -5.958437   -1.074024    0.125263
     35          6           0       -7.282455   -1.502705    0.494028
     36          6           0       -7.213107   -2.912527    0.700842
     37          6           0       -5.929996   -3.305763    0.489081
     38          6           0       -5.195203   -2.184748    0.128134
     39          6           0       -8.338109   -3.752145    1.207263
     40          6           0       -5.108759   -4.533174    0.360791
     41          8           0       -5.361280   -5.729397    0.530763
     42          6           0       -3.649471   -4.002413   -0.117348
     43          6           0       -2.547630   -4.570307    0.788017
     44          8           0       -2.156381   -4.157705    1.872372
     45          8           0       -2.158285   -5.811429    0.238877
     46          6           0       -1.311430   -6.586553    1.144997
     47          6           0        3.416565   -2.502509    0.125672
     48          6           0        4.504346   -2.004378   -0.777752
     49          6           0        5.230124   -2.659264   -1.690782
     50          6           0        4.932143   -4.080831   -2.099299
     51          6           0        6.355623   -1.958305   -2.496768
     52          6           0        7.535513   -1.430063   -1.684700
     53          6           0        8.909110   -1.283806   -2.562309
     54          6           0        9.118747    0.168209   -3.082927
     55          6           0        8.560975    0.378547   -4.510786
     56          6           0       10.542731    0.658538   -2.985394
     57          6           0       10.736337    2.037806   -2.268985
     58          6           0       11.889151    2.017249   -1.245820
     59          6           0       11.457148    2.579993    0.171593
     60          6           0       12.677966    3.236872    0.786070
     61          6           0       10.903157    1.413883    1.092393
     62          6           0        9.853470    1.948634    2.105013
     63          6           0       10.363586    2.010949    3.596400
     64          6           0        9.752002    0.958582    4.630440
     65          6           0        9.592591    1.424185    6.072743
     66          6           0       10.741837   -0.254597    4.698643
     67          1           0       -0.890653    2.265472   -0.548423
     68          1           0       -6.693807    4.880834   -0.075540
     69          1           0       -9.241032   -0.775082    1.230084
     70          1           0       -1.053858   -2.316370    0.705816
     71          1           0       -0.125317   -0.097475   -1.114911
     72          1           0       -0.270848    0.493994    1.787755
     73          1           0        1.031649    0.711853    0.618361
     74          1           0        0.640384   -0.898097    1.380346
     75          1           0       -0.546287   -1.706252   -2.335285
     76          1           0       -1.820601   -2.889186   -1.902983
     77          1           0        0.754397   -3.252877   -2.451635
     78          1           0       -0.233899   -4.401226   -1.481155
     79          1           0       -1.495373    5.722797    0.189269
     80          1           0       -1.169089    5.674258   -1.551605
     81          1           0       -0.555297    4.342639   -0.595593
     82          1           0       -3.097494    7.943927   -0.097494
     83          1           0       -4.192671    8.330728   -1.466728
     84          1           0       -2.634056    7.561255   -1.749572
     85          1           0       -9.219871    3.580800   -0.318220
     86          1           0       -9.544249    1.595315    1.875523
     87          1           0       -9.048299    5.042652    1.693087
     88          1           0       -7.654465    4.015388    2.127033
     89          1           0       -9.340178    3.528734    2.604452
     90          1           0      -11.016974    2.424704   -0.261220
     91          1           0      -11.163178    0.833679    0.612138
     92          1           0      -10.905667    1.205174   -2.196105
     93          1           0      -10.511590   -0.292304   -1.338737
     94          1           0       -9.195356    0.936962   -1.644607
     95          1           0       -8.887912   -4.134223    0.346613
     96          1           0       -8.940421   -3.102944    1.842766
     97          1           0       -7.974194   -4.602675    1.784255
     98          1           0       -3.451033   -4.231556   -1.164432
     99          1           0       -0.273202   -6.284755    1.279737
    100          1           0       -1.336820   -7.645495    0.888819
    101          1           0       -1.724826   -6.513609    2.151720
    102          1           0        3.798801   -3.510995    0.285256
    103          1           0        3.194667   -1.887228    0.997274
    104          1           0        4.910625   -1.022412   -0.535015
    105          1           0        4.597704   -4.649549   -1.231014
    106          1           0        5.860107   -4.546410   -2.429404
    107          1           0        4.287466   -4.193271   -2.970888
    108          1           0        5.898053   -1.108289   -3.004229
    109          1           0        6.705279   -2.613424   -3.295674
    110          1           0        7.790019   -2.107855   -0.869810
    111          1           0        7.090978   -0.508394   -1.307979
    112          1           0        8.868046   -2.009507   -3.374809
    113          1           0        9.716798   -1.480562   -1.857257
    114          1           0        8.564958    0.840205   -2.426957
    115          1           0        9.338086    0.787738   -5.155611
    116          1           0        7.773666    1.131510   -4.470597
    117          1           0        8.155454   -0.518751   -4.977230
    118          1           0       11.116025    0.903096   -3.879753
    119          1           0       11.109978   -0.023150   -2.351190
    120          1           0        9.857526    2.330870   -1.695353
    121          1           0       10.925510    2.769294   -3.055076
    122          1           0       12.783828    2.532665   -1.593592
    123          1           0       12.238948    1.020836   -0.976022
    124          1           0       10.766128    3.422174    0.178514
    125          1           0       13.256866    2.533149    1.383426
    126          1           0       12.338522    3.961226    1.526067
    127          1           0       13.243659    3.832533    0.068984
    128          1           0       11.697808    0.887541    1.621239
    129          1           0       10.505657    0.714283    0.356269
    130          1           0        8.937842    1.362049    2.046777
    131          1           0        9.453273    2.946864    1.929515
    132          1           0        9.936997    2.965248    3.906008
    133          1           0       11.447853    2.128398    3.586828
    134          1           0        8.770348    0.671547    4.253288
    135          1           0       10.256383    2.275843    6.221093
    136          1           0        9.580342    0.726669    6.909536
    137          1           0        8.567205    1.794483    6.070474
    138          1           0       11.570470   -0.066828    4.016946
    139          1           0       10.214053   -1.074733    4.212197
    140          1           0       10.993541   -0.602049    5.699965
 ---------------------------------------------------------------------

 SCF Done:  E(RPBE1PBE) =  -3005.34186980     A.U. after   15 cycles

 Excitation energies and oscillator strengths:

 Excited State   1:      Singlet-A      1.8439 eV  672.42 nm  f=0.3917  <S**2>=0.000
     245 -> 248        0.15261
     246 -> 247        0.69369
     246 <- 247       -0.11075
 This state for optimization and/or second-order correction.
 Total Energy, E(TD-HF/TD-DFT) =  -3005.27410927
 Copying the excited state density for this state as the 1-particle RhoCI density.

 Excited State   2:      Singlet-A      2.2173 eV  559.18 nm  f=0.1133  <S**2>=0.000
     245 -> 247        0.65416
     246 -> 248       -0.23758
     246 -> 249       -0.10277

 Excited State   3:      Singlet-A      3.1017 eV  399.73 nm  f=0.0097  <S**2>=0.000
     241 -> 247        0.16184
     242 -> 247       -0.12861
     244 -> 247        0.62143
     246 -> 248        0.19913

 Excited State   4:      Singlet-A      3.1474 eV  393.92 nm  f=0.0029  <S**2>=0.000
     241 -> 247        0.56296
     241 -> 249       -0.11143
     241 -> 250       -0.10035
     242 -> 247       -0.27477
     244 -> 247       -0.22764

 Excited State   5:      Singlet-A      3.1737 eV  390.66 nm  f=0.0032  <S**2>=0.000
     240 -> 247        0.28027
     240 -> 248       -0.10027
     241 -> 247        0.28672
     242 -> 247        0.51554
     246 -> 248        0.11798

 The electronic state is 1-A.
 Alpha  occ. eigenvalues --  -46.92458 -19.26552 -19.24961 -19.20459 -19.20035
 Alpha  occ. eigenvalues --  -19.19881 -19.18987 -14.41758 -14.41319 -14.39406
 Alpha  occ. eigenvalues --  -14.38639 -10.36451 -10.36035 -10.33211 -10.32534
 Alpha  occ. eigenvalues --  -10.29834 -10.28590 -10.28505 -10.28457 -10.28265
 Alpha  occ. eigenvalues --  -10.27891 -10.27556 -10.27462 -10.27057 -10.26934
 Alpha  occ. eigenvalues --  -10.26699 -10.26169 -10.25935 -10.25387 -10.25377
 Alpha  occ. eigenvalues --  -10.25192 -10.25171 -10.25079 -10.24991 -10.24857
 Alpha  occ. eigenvalues --  -10.24645 -10.24590 -10.24539 -10.24356 -10.24285
 Alpha  occ. eigenvalues --  -10.24035 -10.23774 -10.23745 -10.23688 -10.23656
 Alpha  occ. eigenvalues --  -10.23566 -10.23458 -10.23398 -10.23329 -10.23243
 Alpha  occ. eigenvalues --  -10.23139 -10.23103 -10.23005 -10.22981 -10.22945
 Alpha  occ. eigenvalues --  -10.22907 -10.22871 -10.22623 -10.22444 -10.22408
 Alpha  occ. eigenvalues --  -10.22405 -10.22004 -10.21988 -10.21632 -10.21384
 Alpha  occ. eigenvalues --  -10.21321  -3.14484  -1.87347  -1.86854  -1.86700
 Alpha  occ. eigenvalues --   -1.13664  -1.09498  -1.04426  -1.04382  -1.04042
 Alpha  occ. eigenvalues --   -1.01813  -1.00675  -0.99220  -0.97432  -0.96377
 Alpha  occ. eigenvalues --   -0.85493  -0.85025  -0.84190  -0.83868  -0.83033
 Alpha  occ. eigenvalues --   -0.82807  -0.82417  -0.81850  -0.81423  -0.81339
 Alpha  occ. eigenvalues --   -0.80883  -0.80261  -0.78870  -0.77607  -0.77297
 Alpha  occ. eigenvalues --   -0.76958  -0.75781  -0.75220  -0.74571  -0.74493
 Alpha  occ. eigenvalues --   -0.73867  -0.72401  -0.72121  -0.70996  -0.70204
 Alpha  occ. eigenvalues --   -0.69840  -0.69262  -0.69055  -0.68963  -0.68595
 Alpha  occ. eigenvalues --   -0.67858  -0.67010  -0.65680  -0.64679  -0.63467
 Alpha  occ. eigenvalues --   -0.63142  -0.62505  -0.62325  -0.61170  -0.60682
 Alpha  occ. eigenvalues --   -0.59705  -0.59655  -0.58938  -0.58723  -0.58232
 Alpha  occ. eigenvalues --   -0.58201  -0.57184  -0.57126  -0.55909  -0.54822
 Alpha  occ. eigenvalues --   -0.54331  -0.54021  -0.53610  -0.52934  -0.52406
 Alpha  occ. eigenvalues --   -0.51982  -0.51607  -0.50817  -0.50345  -0.50125
 Alpha  occ. eigenvalues --   -0.49713  -0.49559  -0.49044  -0.49000  -0.48484
 Alpha  occ. eigenvalues --   -0.48046  -0.47946  -0.47797  -0.47237  -0.47192
 Alpha  occ. eigenvalues --   -0.46932  -0.46843  -0.46660  -0.46445  -0.46304
 Alpha  occ. eigenvalues --   -0.46065  -0.45801  -0.45646  -0.45549  -0.45215
 Alpha  occ. eigenvalues --   -0.45093  -0.44762  -0.44728  -0.44618  -0.44137
 Alpha  occ. eigenvalues --   -0.44014  -0.43870  -0.43676  -0.43614  -0.43527
 Alpha  occ. eigenvalues --   -0.43467  -0.43096  -0.42862  -0.42731  -0.42587
 Alpha  occ. eigenvalues --   -0.42373  -0.42032  -0.41700  -0.41236  -0.40962
 Alpha  occ. eigenvalues --   -0.40869  -0.40854  -0.40490  -0.40316  -0.40149
 Alpha  occ. eigenvalues --   -0.39896  -0.39833  -0.39643  -0.39597  -0.39543
 Alpha  occ. eigenvalues --   -0.39413  -0.39377  -0.39149  -0.39092  -0.38789
 Alpha  occ. eigenvalues --   -0.38462  -0.38260  -0.38162  -0.37731  -0.37631
 Alpha  occ. eigenvalues --   -0.37549  -0.37305  -0.37270  -0.37246  -0.37112
 Alpha  occ. eigenvalues --   -0.37028  -0.36905  -0.36731  -0.36337  -0.36048
 Alpha  occ. eigenvalues --   -0.35655  -0.35500  -0.35362  -0.35143  -0.34721
 Alpha  occ. eigenvalues --   -0.34358  -0.34271  -0.33787  -0.33712  -0.33416
 Alpha  occ. eigenvalues --   -0.33186  -0.32972  -0.32850  -0.32746  -0.32599
 Alpha  occ. eigenvalues --   -0.32417  -0.31852  -0.31692  -0.31403  -0.31097
 Alpha  occ. eigenvalues --   -0.30745  -0.30628  -0.29569  -0.29481  -0.29376
 Alpha  occ. eigenvalues --   -0.29322  -0.28835  -0.28448  -0.26837  -0.26209
 Alpha  occ. eigenvalues --   -0.25930  -0.25836  -0.25670  -0.25370  -0.20716
 Alpha  occ. eigenvalues --   -0.18514
 Alpha virt. eigenvalues --   -0.10989  -0.05168  -0.03737  -0.02472   0.00088
 Alpha virt. eigenvalues --    0.00188   0.00397   0.00580   0.01730   0.03082
 Alpha virt. eigenvalues --    0.03814   0.04659   0.04920   0.05357   0.05556

 Mulliken charges:
               1
     1  Mg   0.965784
     2  C   -0.031386
     3  C   -0.060327
     4  C   -0.044846
     5  C   -0.058428
     6  N   -0.337248
     7  C    0.063350
     8  C   -0.195603
     9  C   -0.091707
    10  C    0.029474
    11  C    0.019732
    12  C   -0.006158
    13  C    0.030205
    14  C    0.179250
    15  O   -0.259459
    16  O   -0.327061
    17  N   -0.454900
    18  C    0.160214
    19  C   -0.179595
    20  C   -0.031707
    21  C    0.135983
    22  C    0.060939
    23  C    0.016695
    24  O   -0.263134
    25  C   -0.035600
    26  N   -0.410253
    27  C    0.023555
    28  C   -0.073450
    29  C   -0.114209
    30  C    0.016359
    31  C    0.025806
    32  C   -0.055022
    33  C   -0.045584
    34  N   -0.489752
    35  C    0.164868
    36  C   -0.222113
    37  C   -0.048428
    38  C    0.170450
    39  C    0.077233
    40  C    0.199433
    41  O   -0.211923
    42  C   -0.162951
    43  C    0.312390
    44  O   -0.244537
    45  O   -0.378915
    46  C    0.122799
    47  C    0.254199
    48  C   -0.139544
    49  C   -0.210341
    50  C    0.021164
    51  C    0.013430
    52  C   -0.077153
    53  C   -0.002438
    54  C   -0.191644
    55  C    0.002407
    56  C   -0.013523
    57  C   -0.043345
    58  C   -0.018140
    59  C   -0.251343
    60  C   -0.011448
    61  C    0.001915
    62  C   -0.022773
    63  C   -0.052189
    64  C   -0.231581
    65  C   -0.016190
    66  C   -0.011287
    67  H   -0.017542
    68  H    0.028561
    69  H    0.001841
    70  H    0.111847
    71  H    0.042884
    72  H    0.041495
    73  H    0.039568
    74  H    0.057624
    75  H    0.047555
    76  H    0.044039
    77  H    0.042473
    78  H    0.066855
    79  H    0.065814
    80  H    0.054193
    81  H    0.049811
    82  H    0.066426
    83  H    0.064824
    84  H    0.045838
    85  H    0.052843
    86  H    0.041009
    87  H    0.055600
    88  H    0.061073
    89  H    0.041875
    90  H    0.041551
    91  H    0.041615
    92  H    0.044640
    93  H    0.049242
    94  H    0.071531
    95  H    0.059571
    96  H    0.042419
    97  H    0.059533
    98  H    0.094184
    99  H    0.061982
   100  H    0.050338
   101  H    0.049917
   102  H    0.052863
   103  H    0.061370
   104  H    0.009901
   105  H    0.036245
   106  H    0.031652
   107  H    0.064025
   108  H    0.047414
   109  H    0.012700
   110  H    0.038177
   111  H    0.044174
   112  H    0.037721
   113  H    0.031169
   114  H    0.032584
   115  H    0.029068
   116  H    0.030612
   117  H    0.033163
   118  H    0.034161
   119  H    0.020325
   120  H    0.032886
   121  H    0.033787
   122  H    0.021756
   123  H    0.025507
   124  H    0.036732
   125  H    0.028054
   126  H    0.018875
   127  H    0.038016
   128  H    0.037712
   129  H    0.027767
   130  H    0.017726
   131  H    0.027107
   132  H    0.017722
   133  H    0.038761
   134  H    0.034747
   135  H    0.041279
   136  H    0.045159
   137  H    0.020160
   138  H    0.030645
   139  H    0.022833
   140  H    0.042019
 Sum of Mulliken charges =  -0.00000

 Dipole moment (field-independent basis, Debye):
    X=              3.7546    Y=              2.9557    Z=             -2.8990  Tot=              5.5891
 Quadrupole moment (field-independent basis, Debye-Ang):
   XX=           -381.3599   YY=           -428.1260   ZZ=           -402.7411
   XY=             -9.0900   XZ=             -7.2889   YZ=              7.3880

 Normal termination of Gaussian 16 at Thu Apr 28 11:13:24 2022.
