 Gaussian 16, Revision A.03,
 Gaussian 16:  ES64L-G16RevA.03 25-Dec-2016

 --------------------------------
 #p wB97XD/Def2SVP td=(nstates=5)
 --------------------------------

 ---------------------------------------------------
 step_151_chromophore_9 TDDFT with wB97XD functional
 ---------------------------------------------------
 Symbolic Z-matrix:
 Charge =  0 Multiplicity = 1

                         Standard orientation:
 ---------------------------------------------------------------------
 Center     Atomic      Atomic             Coordinates (Angstroms)
 Number     Number       Type             X           Y           Z
 ---------------------------------------------------------------------
      1         12           0       -5.066621    0.810749   -0.269595
      2          6           0       -3.787900   -2.448952    0.002977
      3          6           0       -1.933256    1.956332   -0.457067
      4          6           0       -6.323413    3.853822   -0.127123
      5          6           0       -8.291469   -0.524845    0.752769
      6          7           0       -3.098381   -0.159366   -0.067355
      7          6           0       -2.787763   -1.419880   -0.146387
      8          6           0       -1.284834   -1.717882   -0.175521
      9          6           0       -0.682139   -0.269100   -0.193768
     10          6           0       -1.986247    0.564775   -0.276203
     11          6           0        0.252942    0.026456    0.953701
     12          6           0       -0.910579   -2.391159   -1.569008
     13          6           0        0.219552   -3.410630   -1.515471
     14          6           0        1.273578   -3.253669   -0.433680
     15          8           0        1.103153   -3.748056    0.650078
     16          8           0        2.342935   -2.535122   -0.803798
     17          7           0       -4.201981    2.690958   -0.477001
     18          6           0       -2.932314    2.976826   -0.562118
     19          6           0       -2.748814    4.416882   -0.741376
     20          6           0       -4.055798    4.995742   -0.735155
     21          6           0       -4.970847    3.811313   -0.432592
     22          6           0       -1.368332    5.064353   -0.669993
     23          6           0       -4.436272    6.416588   -0.706113
     24          8           0       -5.569032    6.747390   -0.345497
     25          6           0       -3.479178    7.613454   -1.063771
     26          7           0       -7.067827    1.516489    0.009170
     27          6           0       -7.296522    2.890678    0.159955
     28          6           0       -8.753251    3.174322    0.579486
     29          6           0       -9.317791    1.772742    0.823874
     30          6           0       -8.158816    0.831997    0.518501
     31          6           0       -8.711596    4.020382    1.861985
     32          6           0      -10.584354    1.439472   -0.084381
     33          6           0      -10.251616    0.761505   -1.445015
     34          7           0       -5.958437   -1.074024    0.125263
     35          6           0       -7.282455   -1.502705    0.494028
     36          6           0       -7.213107   -2.912527    0.700842
     37          6           0       -5.929996   -3.305763    0.489081
     38          6           0       -5.195203   -2.184748    0.128134
     39          6           0       -8.338109   -3.752145    1.207263
     40          6           0       -5.108759   -4.533174    0.360791
     41          8           0       -5.361280   -5.729397    0.530763
     42          6           0       -3.649471   -4.002413   -0.117348
     43          6           0       -2.547630   -4.570307    0.788017
     44          8           0       -2.156381   -4.157705    1.872372
     45          8           0       -2.158285   -5.811429    0.238877
     46          6           0       -1.311430   -6.586553    1.144997
     47          6           0        3.416565   -2.502509    0.125672
     48          6           0        4.504346   -2.004378   -0.777752
     49          6           0        5.230124   -2.659264   -1.690782
     50          6           0        4.932143   -4.080831   -2.099299
     51          6           0        6.355623   -1.958305   -2.496768
     52          6           0        7.535513   -1.430063   -1.684700
     53          6           0        8.909110   -1.283806   -2.562309
     54          6           0        9.118747    0.168209   -3.082927
     55          6           0        8.560975    0.378547   -4.510786
     56          6           0       10.542731    0.658538   -2.985394
     57          6           0       10.736337    2.037806   -2.268985
     58          6           0       11.889151    2.017249   -1.245820
     59          6           0       11.457148    2.579993    0.171593
     60          6           0       12.677966    3.236872    0.786070
     61          6           0       10.903157    1.413883    1.092393
     62          6           0        9.853470    1.948634    2.105013
     63          6           0       10.363586    2.010949    3.596400
     64          6           0        9.752002    0.958582    4.630440
     65          6           0        9.592591    1.424185    6.072743
     66          6           0       10.741837   -0.254597    4.698643
     67          1           0       -0.890653    2.265472   -0.548423
     68          1           0       -6.693807    4.880834   -0.075540
     69          1           0       -9.241032   -0.775082    1.230084
     70          1           0       -1.053858   -2.316370    0.705816
     71          1           0       -0.125317   -0.097475   -1.114911
     72          1           0       -0.270848    0.493994    1.787755
     73          1           0        1.031649    0.711853    0.618361
     74          1           0        0.640384   -0.898097    1.380346
     75          1           0       -0.546287   -1.706252   -2.335285
     76          1           0       -1.820601   -2.889186   -1.902983
     77          1           0        0.754397   -3.252877   -2.451635
     78          1           0       -0.233899   -4.401226   -1.481155
     79          1           0       -1.495373    5.722797    0.189269
     80          1           0       -1.169089    5.674258   -1.551605
     81          1           0       -0.555297    4.342639   -0.595593
     82          1           0       -3.097494    7.943927   -0.097494
     83          1           0       -4.192671    8.330728   -1.466728
     84          1           0       -2.634056    7.561255   -1.749572
     85          1           0       -9.219871    3.580800   -0.318220
     86          1           0       -9.544249    1.595315    1.875523
     87          1           0       -9.048299    5.042652    1.693087
     88          1           0       -7.654465    4.015388    2.127033
     89          1           0       -9.340178    3.528734    2.604452
     90          1           0      -11.016974    2.424704   -0.261220
     91          1           0      -11.163178    0.833679    0.612138
     92          1           0      -10.905667    1.205174   -2.196105
     93          1           0      -10.511590   -0.292304   -1.338737
     94          1           0       -9.195356    0.936962   -1.644607
     95          1           0       -8.887912   -4.134223    0.346613
     96          1           0       -8.940421   -3.102944    1.842766
     97          1           0       -7.974194   -4.602675    1.784255
     98          1           0       -3.451033   -4.231556   -1.164432
     99          1           0       -0.273202   -6.284755    1.279737
    100          1           0       -1.336820   -7.645495    0.888819
    101          1           0       -1.724826   -6.513609    2.151720
    102          1           0        3.798801   -3.510995    0.285256
    103          1           0        3.194667   -1.887228    0.997274
    104          1           0        4.910625   -1.022412   -0.535015
    105          1           0        4.597704   -4.649549   -1.231014
    106          1           0        5.860107   -4.546410   -2.429404
    107          1           0        4.287466   -4.193271   -2.970888
    108          1           0        5.898053   -1.108289   -3.004229
    109          1           0        6.705279   -2.613424   -3.295674
    110          1           0        7.790019   -2.107855   -0.869810
    111          1           0        7.090978   -0.508394   -1.307979
    112          1           0        8.868046   -2.009507   -3.374809
    113          1           0        9.716798   -1.480562   -1.857257
    114          1           0        8.564958    0.840205   -2.426957
    115          1           0        9.338086    0.787738   -5.155611
    116          1           0        7.773666    1.131510   -4.470597
    117          1           0        8.155454   -0.518751   -4.977230
    118          1           0       11.116025    0.903096   -3.879753
    119          1           0       11.109978   -0.023150   -2.351190
    120          1           0        9.857526    2.330870   -1.695353
    121          1           0       10.925510    2.769294   -3.055076
    122          1           0       12.783828    2.532665   -1.593592
    123          1           0       12.238948    1.020836   -0.976022
    124          1           0       10.766128    3.422174    0.178514
    125          1           0       13.256866    2.533149    1.383426
    126          1           0       12.338522    3.961226    1.526067
    127          1           0       13.243659    3.832533    0.068984
    128          1           0       11.697808    0.887541    1.621239
    129          1           0       10.505657    0.714283    0.356269
    130          1           0        8.937842    1.362049    2.046777
    131          1           0        9.453273    2.946864    1.929515
    132          1           0        9.936997    2.965248    3.906008
    133          1           0       11.447853    2.128398    3.586828
    134          1           0        8.770348    0.671547    4.253288
    135          1           0       10.256383    2.275843    6.221093
    136          1           0        9.580342    0.726669    6.909536
    137          1           0        8.567205    1.794483    6.070474
    138          1           0       11.570470   -0.066828    4.016946
    139          1           0       10.214053   -1.074733    4.212197
    140          1           0       10.993541   -0.602049    5.699965
 ---------------------------------------------------------------------

 SCF Done:  E(RwB97XD) =  -3007.85342396     A.U. after   19 cycles

 Excitation energies and oscillator strengths:

 Excited State   1:      Singlet-A      1.6227 eV  764.08 nm  f=0.3986  <S**2>=0.000
     245 -> 248       -0.17360
     246 -> 247        0.68384
     245 <- 248       -0.11196
 This state for optimization and/or second-order correction.
 Total Energy, E(TD-HF/TD-DFT) =  -3007.79379201
 Copying the excited state density for this state as the 1-particle RhoCI density.

 Excited State   2:      Singlet-A      2.1564 eV  574.96 nm  f=0.1156  <S**2>=0.000
     245 -> 247        0.64089
     246 -> 248        0.27811

 Excited State   3:      Singlet-A      3.4274 eV  361.74 nm  f=0.0795  <S**2>=0.000
     244 -> 247        0.60929
     246 -> 248       -0.30051

 Excited State   4:      Singlet-A      3.5385 eV  350.38 nm  f=0.4901  <S**2>=0.000
     241 -> 247       -0.10418
     242 -> 247       -0.16582
     244 -> 247        0.31433
     245 -> 247       -0.24061
     246 -> 248        0.53970

 Excited State   5:      Singlet-A      3.6381 eV  340.80 nm  f=0.0033  <S**2>=0.000
     239 -> 247       -0.16354
     241 -> 247        0.48780
     241 -> 249        0.26727
     241 -> 250        0.23912
     242 -> 247       -0.20034

 The electronic state is 1-A.
 Alpha  occ. eigenvalues --  -46.95387 -19.31104 -19.29533 -19.25192 -19.24703
 Alpha  occ. eigenvalues --  -19.24683 -19.23805 -14.46861 -14.46356 -14.44384
 Alpha  occ. eigenvalues --  -14.43514 -10.43314 -10.42806 -10.40089 -10.39418
 Alpha  occ. eigenvalues --  -10.36334 -10.34853 -10.34760 -10.34756 -10.34630
 Alpha  occ. eigenvalues --  -10.34059 -10.33913 -10.33684 -10.33566 -10.33360
 Alpha  occ. eigenvalues --  -10.33253 -10.32457 -10.32211 -10.31626 -10.31615
 Alpha  occ. eigenvalues --  -10.31569 -10.31525 -10.31423 -10.31395 -10.31182
 Alpha  occ. eigenvalues --  -10.30977 -10.30955 -10.30785 -10.30699 -10.30695
 Alpha  occ. eigenvalues --  -10.30295 -10.30277 -10.30084 -10.30049 -10.30036
 Alpha  occ. eigenvalues --  -10.29941 -10.29895 -10.29679 -10.29602 -10.29580
 Alpha  occ. eigenvalues --  -10.29500 -10.29494 -10.29363 -10.29340 -10.29289
 Alpha  occ. eigenvalues --  -10.29289 -10.29252 -10.28995 -10.28799 -10.28748
 Alpha  occ. eigenvalues --  -10.28684 -10.28438 -10.28341 -10.28055 -10.27817
 Alpha  occ. eigenvalues --  -10.27737  -3.21274  -1.94886  -1.94391  -1.94238
 Alpha  occ. eigenvalues --   -1.21015  -1.16923  -1.11895  -1.11740  -1.11545
 Alpha  occ. eigenvalues --   -1.09200  -1.08029  -1.06566  -1.04764  -1.03742
 Alpha  occ. eigenvalues --   -0.93117  -0.92677  -0.91830  -0.91510  -0.90595
 Alpha  occ. eigenvalues --   -0.90466  -0.89985  -0.89438  -0.89084  -0.89057
 Alpha  occ. eigenvalues --   -0.88444  -0.87877  -0.86509  -0.85226  -0.84889
 Alpha  occ. eigenvalues --   -0.84587  -0.83429  -0.82924  -0.82279  -0.82148
 Alpha  occ. eigenvalues --   -0.81526  -0.80115  -0.79741  -0.78573  -0.77882
 Alpha  occ. eigenvalues --   -0.77431  -0.76946  -0.76746  -0.76551  -0.76245
 Alpha  occ. eigenvalues --   -0.75462  -0.74520  -0.73208  -0.72289  -0.71026
 Alpha  occ. eigenvalues --   -0.70739  -0.70137  -0.69816  -0.68802  -0.68181
 Alpha  occ. eigenvalues --   -0.67299  -0.67101  -0.66413  -0.66189  -0.65919
 Alpha  occ. eigenvalues --   -0.65616  -0.64842  -0.64765  -0.63318  -0.62352
 Alpha  occ. eigenvalues --   -0.61799  -0.61441  -0.60997  -0.60431  -0.59760
 Alpha  occ. eigenvalues --   -0.59403  -0.59144  -0.58231  -0.57737  -0.57517
 Alpha  occ. eigenvalues --   -0.57074  -0.56950  -0.56521  -0.56418  -0.55859
 Alpha  occ. eigenvalues --   -0.55438  -0.55333  -0.55165  -0.54622  -0.54519
 Alpha  occ. eigenvalues --   -0.54268  -0.54222  -0.54130  -0.53905  -0.53644
 Alpha  occ. eigenvalues --   -0.53412  -0.53172  -0.53004  -0.52888  -0.52553
 Alpha  occ. eigenvalues --   -0.52418  -0.52161  -0.52104  -0.51980  -0.51457
 Alpha  occ. eigenvalues --   -0.51333  -0.51207  -0.50976  -0.50911  -0.50821
 Alpha  occ. eigenvalues --   -0.50781  -0.50348  -0.50152  -0.50084  -0.49859
 Alpha  occ. eigenvalues --   -0.49659  -0.49313  -0.48920  -0.48476  -0.48207
 Alpha  occ. eigenvalues --   -0.48117  -0.48050  -0.47609  -0.47498  -0.47321
 Alpha  occ. eigenvalues --   -0.47101  -0.46992  -0.46830  -0.46773  -0.46699
 Alpha  occ. eigenvalues --   -0.46576  -0.46561  -0.46361  -0.46306  -0.45896
 Alpha  occ. eigenvalues --   -0.45631  -0.45413  -0.45304  -0.44859  -0.44751
 Alpha  occ. eigenvalues --   -0.44630  -0.44423  -0.44365  -0.44275  -0.44256
 Alpha  occ. eigenvalues --   -0.44159  -0.44070  -0.43803  -0.43468  -0.43244
 Alpha  occ. eigenvalues --   -0.42676  -0.42580  -0.42373  -0.42096  -0.41786
 Alpha  occ. eigenvalues --   -0.41418  -0.41196  -0.40805  -0.40759  -0.40374
 Alpha  occ. eigenvalues --   -0.40092  -0.39993  -0.39912  -0.39805  -0.39672
 Alpha  occ. eigenvalues --   -0.39301  -0.38841  -0.38722  -0.38305  -0.38007
 Alpha  occ. eigenvalues --   -0.37822  -0.37534  -0.36508  -0.36419  -0.36332
 Alpha  occ. eigenvalues --   -0.36227  -0.35910  -0.35111  -0.33432  -0.33231
 Alpha  occ. eigenvalues --   -0.32918  -0.32589  -0.32412  -0.31881  -0.25679
 Alpha  occ. eigenvalues --   -0.22637
 Alpha virt. eigenvalues --   -0.06869   0.00417   0.02415   0.03999   0.06214
 Alpha virt. eigenvalues --    0.06811   0.06994   0.07378   0.08352   0.09314
 Alpha virt. eigenvalues --    0.10595   0.11514   0.11573   0.12213   0.12278

 Mulliken charges:
               1
     1  Mg   0.956580
     2  C   -0.045237
     3  C   -0.074268
     4  C   -0.063788
     5  C   -0.078630
     6  N   -0.300839
     7  C    0.035251
     8  C   -0.165123
     9  C   -0.067203
    10  C    0.014226
    11  C    0.030696
    12  C    0.004923
    13  C    0.048049
    14  C    0.161587
    15  O   -0.254369
    16  O   -0.322884
    17  N   -0.418798
    18  C    0.148656
    19  C   -0.169147
    20  C   -0.027113
    21  C    0.127181
    22  C    0.074416
    23  C    0.014341
    24  O   -0.258510
    25  C   -0.026188
    26  N   -0.382894
    27  C    0.018665
    28  C   -0.049590
    29  C   -0.093931
    30  C    0.014377
    31  C    0.037029
    32  C   -0.042300
    33  C   -0.023539
    34  N   -0.455258
    35  C    0.152567
    36  C   -0.211646
    37  C   -0.047430
    38  C    0.158184
    39  C    0.087084
    40  C    0.181141
    41  O   -0.202368
    42  C   -0.123754
    43  C    0.289335
    44  O   -0.237588
    45  O   -0.377658
    46  C    0.138611
    47  C    0.269243
    48  C   -0.147201
    49  C   -0.198426
    50  C    0.035372
    51  C    0.031103
    52  C   -0.059169
    53  C    0.015365
    54  C   -0.161539
    55  C    0.012904
    56  C    0.004634
    57  C   -0.026695
    58  C   -0.000183
    59  C   -0.220841
    60  C   -0.000856
    61  C    0.022182
    62  C   -0.011040
    63  C   -0.034701
    64  C   -0.203313
    65  C   -0.004868
    66  C    0.001844
    67  H   -0.027496
    68  H    0.022894
    69  H   -0.003174
    70  H    0.096214
    71  H    0.032107
    72  H    0.036049
    73  H    0.034694
    74  H    0.049301
    75  H    0.040861
    76  H    0.031800
    77  H    0.036802
    78  H    0.060198
    79  H    0.059612
    80  H    0.048557
    81  H    0.046735
    82  H    0.062647
    83  H    0.062990
    84  H    0.042616
    85  H    0.042956
    86  H    0.029987
    87  H    0.050973
    88  H    0.052984
    89  H    0.036060
    90  H    0.032638
    91  H    0.034552
    92  H    0.039712
    93  H    0.042925
    94  H    0.059052
    95  H    0.054729
    96  H    0.036108
    97  H    0.055863
    98  H    0.087177
    99  H    0.058348
   100  H    0.047109
   101  H    0.044564
   102  H    0.044570
   103  H    0.059175
   104  H    0.005072
   105  H    0.029742
   106  H    0.025371
   107  H    0.059269
   108  H    0.038784
   109  H    0.003142
   110  H    0.030505
   111  H    0.033784
   112  H    0.028851
   113  H    0.022923
   114  H    0.015684
   115  H    0.022821
   116  H    0.025402
   117  H    0.026764
   118  H    0.026375
   119  H    0.005779
   120  H    0.020575
   121  H    0.027101
   122  H    0.014387
   123  H    0.014016
   124  H    0.023885
   125  H    0.021109
   126  H    0.012049
   127  H    0.032229
   128  H    0.025635
   129  H    0.014502
   130  H    0.010246
   131  H    0.019355
   132  H    0.008367
   133  H    0.027872
   134  H    0.024378
   135  H    0.035020
   136  H    0.040368
   137  H    0.013584
   138  H    0.022137
   139  H    0.016504
   140  H    0.036855
 Sum of Mulliken charges =  -0.00000

 Dipole moment (field-independent basis, Debye):
    X=              3.8974    Y=              3.0991    Z=             -2.9908  Tot=              5.8085
 Quadrupole moment (field-independent basis, Debye-Ang):
   XX=           -383.1168   YY=           -425.8686   ZZ=           -402.2137
   XY=             -9.2425   XZ=             -6.7749   YZ=              7.0845

 Normal termination of Gaussian 16 at Thu Apr 28 11:45:39 2022.
