 Gaussian 16, Revision A.03,
 Gaussian 16:  ES64L-G16RevA.03 25-Dec-2016

 --------------------
 #p ZINDO=(nstates=5)
 --------------------

 ----------------------------
 step_151_chromophore_9 ZINDO
 ----------------------------
 Symbolic Z-matrix:
 Charge =  0 Multiplicity = 1

                         Standard orientation:
 ---------------------------------------------------------------------
 Center     Atomic      Atomic             Coordinates (Angstroms)
 Number     Number       Type             X           Y           Z
 ---------------------------------------------------------------------
      1         12           0       -5.066621    0.810749   -0.269595
      2          6           0       -3.787900   -2.448952    0.002977
      3          6           0       -1.933256    1.956332   -0.457067
      4          6           0       -6.323413    3.853822   -0.127123
      5          6           0       -8.291469   -0.524845    0.752769
      6          7           0       -3.098381   -0.159366   -0.067355
      7          6           0       -2.787763   -1.419880   -0.146387
      8          6           0       -1.284834   -1.717882   -0.175521
      9          6           0       -0.682139   -0.269100   -0.193768
     10          6           0       -1.986247    0.564775   -0.276203
     11          6           0        0.252942    0.026456    0.953701
     12          6           0       -0.910579   -2.391159   -1.569008
     13          6           0        0.219552   -3.410630   -1.515471
     14          6           0        1.273578   -3.253669   -0.433680
     15          8           0        1.103153   -3.748056    0.650078
     16          8           0        2.342935   -2.535122   -0.803798
     17          7           0       -4.201981    2.690958   -0.477001
     18          6           0       -2.932314    2.976826   -0.562118
     19          6           0       -2.748814    4.416882   -0.741376
     20          6           0       -4.055798    4.995742   -0.735155
     21          6           0       -4.970847    3.811313   -0.432592
     22          6           0       -1.368332    5.064353   -0.669993
     23          6           0       -4.436272    6.416588   -0.706113
     24          8           0       -5.569032    6.747390   -0.345497
     25          6           0       -3.479178    7.613454   -1.063771
     26          7           0       -7.067827    1.516489    0.009170
     27          6           0       -7.296522    2.890678    0.159955
     28          6           0       -8.753251    3.174322    0.579486
     29          6           0       -9.317791    1.772742    0.823874
     30          6           0       -8.158816    0.831997    0.518501
     31          6           0       -8.711596    4.020382    1.861985
     32          6           0      -10.584354    1.439472   -0.084381
     33          6           0      -10.251616    0.761505   -1.445015
     34          7           0       -5.958437   -1.074024    0.125263
     35          6           0       -7.282455   -1.502705    0.494028
     36          6           0       -7.213107   -2.912527    0.700842
     37          6           0       -5.929996   -3.305763    0.489081
     38          6           0       -5.195203   -2.184748    0.128134
     39          6           0       -8.338109   -3.752145    1.207263
     40          6           0       -5.108759   -4.533174    0.360791
     41          8           0       -5.361280   -5.729397    0.530763
     42          6           0       -3.649471   -4.002413   -0.117348
     43          6           0       -2.547630   -4.570307    0.788017
     44          8           0       -2.156381   -4.157705    1.872372
     45          8           0       -2.158285   -5.811429    0.238877
     46          6           0       -1.311430   -6.586553    1.144997
     47          6           0        3.416565   -2.502509    0.125672
     48          6           0        4.504346   -2.004378   -0.777752
     49          6           0        5.230124   -2.659264   -1.690782
     50          6           0        4.932143   -4.080831   -2.099299
     51          6           0        6.355623   -1.958305   -2.496768
     52          6           0        7.535513   -1.430063   -1.684700
     53          6           0        8.909110   -1.283806   -2.562309
     54          6           0        9.118747    0.168209   -3.082927
     55          6           0        8.560975    0.378547   -4.510786
     56          6           0       10.542731    0.658538   -2.985394
     57          6           0       10.736337    2.037806   -2.268985
     58          6           0       11.889151    2.017249   -1.245820
     59          6           0       11.457148    2.579993    0.171593
     60          6           0       12.677966    3.236872    0.786070
     61          6           0       10.903157    1.413883    1.092393
     62          6           0        9.853470    1.948634    2.105013
     63          6           0       10.363586    2.010949    3.596400
     64          6           0        9.752002    0.958582    4.630440
     65          6           0        9.592591    1.424185    6.072743
     66          6           0       10.741837   -0.254597    4.698643
     67          1           0       -0.890653    2.265472   -0.548423
     68          1           0       -6.693807    4.880834   -0.075540
     69          1           0       -9.241032   -0.775082    1.230084
     70          1           0       -1.053858   -2.316370    0.705816
     71          1           0       -0.125317   -0.097475   -1.114911
     72          1           0       -0.270848    0.493994    1.787755
     73          1           0        1.031649    0.711853    0.618361
     74          1           0        0.640384   -0.898097    1.380346
     75          1           0       -0.546287   -1.706252   -2.335285
     76          1           0       -1.820601   -2.889186   -1.902983
     77          1           0        0.754397   -3.252877   -2.451635
     78          1           0       -0.233899   -4.401226   -1.481155
     79          1           0       -1.495373    5.722797    0.189269
     80          1           0       -1.169089    5.674258   -1.551605
     81          1           0       -0.555297    4.342639   -0.595593
     82          1           0       -3.097494    7.943927   -0.097494
     83          1           0       -4.192671    8.330728   -1.466728
     84          1           0       -2.634056    7.561255   -1.749572
     85          1           0       -9.219871    3.580800   -0.318220
     86          1           0       -9.544249    1.595315    1.875523
     87          1           0       -9.048299    5.042652    1.693087
     88          1           0       -7.654465    4.015388    2.127033
     89          1           0       -9.340178    3.528734    2.604452
     90          1           0      -11.016974    2.424704   -0.261220
     91          1           0      -11.163178    0.833679    0.612138
     92          1           0      -10.905667    1.205174   -2.196105
     93          1           0      -10.511590   -0.292304   -1.338737
     94          1           0       -9.195356    0.936962   -1.644607
     95          1           0       -8.887912   -4.134223    0.346613
     96          1           0       -8.940421   -3.102944    1.842766
     97          1           0       -7.974194   -4.602675    1.784255
     98          1           0       -3.451033   -4.231556   -1.164432
     99          1           0       -0.273202   -6.284755    1.279737
    100          1           0       -1.336820   -7.645495    0.888819
    101          1           0       -1.724826   -6.513609    2.151720
    102          1           0        3.798801   -3.510995    0.285256
    103          1           0        3.194667   -1.887228    0.997274
    104          1           0        4.910625   -1.022412   -0.535015
    105          1           0        4.597704   -4.649549   -1.231014
    106          1           0        5.860107   -4.546410   -2.429404
    107          1           0        4.287466   -4.193271   -2.970888
    108          1           0        5.898053   -1.108289   -3.004229
    109          1           0        6.705279   -2.613424   -3.295674
    110          1           0        7.790019   -2.107855   -0.869810
    111          1           0        7.090978   -0.508394   -1.307979
    112          1           0        8.868046   -2.009507   -3.374809
    113          1           0        9.716798   -1.480562   -1.857257
    114          1           0        8.564958    0.840205   -2.426957
    115          1           0        9.338086    0.787738   -5.155611
    116          1           0        7.773666    1.131510   -4.470597
    117          1           0        8.155454   -0.518751   -4.977230
    118          1           0       11.116025    0.903096   -3.879753
    119          1           0       11.109978   -0.023150   -2.351190
    120          1           0        9.857526    2.330870   -1.695353
    121          1           0       10.925510    2.769294   -3.055076
    122          1           0       12.783828    2.532665   -1.593592
    123          1           0       12.238948    1.020836   -0.976022
    124          1           0       10.766128    3.422174    0.178514
    125          1           0       13.256866    2.533149    1.383426
    126          1           0       12.338522    3.961226    1.526067
    127          1           0       13.243659    3.832533    0.068984
    128          1           0       11.697808    0.887541    1.621239
    129          1           0       10.505657    0.714283    0.356269
    130          1           0        8.937842    1.362049    2.046777
    131          1           0        9.453273    2.946864    1.929515
    132          1           0        9.936997    2.965248    3.906008
    133          1           0       11.447853    2.128398    3.586828
    134          1           0        8.770348    0.671547    4.253288
    135          1           0       10.256383    2.275843    6.221093
    136          1           0        9.580342    0.726669    6.909536
    137          1           0        8.567205    1.794483    6.070474
    138          1           0       11.570470   -0.066828    4.016946
    139          1           0       10.214053   -1.074733    4.212197
    140          1           0       10.993541   -0.602049    5.699965
 ---------------------------------------------------------------------

 SCF Done:  E(RZINDO/S) =  -474.282430200     A.U. after   19 cycles

 Excitation energies and oscillator strengths:

 Excited State   1:      Singlet-A      1.2022 eV 1031.28 nm  f=0.6194  <S**2>=0.000
     175 ->178         0.18719
     176 ->177         0.66281
 This state for optimization and/or second-order correction.
 Total Energy, E(CIS/TDA) =  -474.238248854
 Copying the excited state density for this state as the 1-particle RhoCI density.

 Excited State   2:      Singlet-A      1.8933 eV  654.87 nm  f=0.0494  <S**2>=0.000
     175 ->177         0.55001
     176 ->178        -0.41912

 Excited State   3:      Singlet-A      2.9011 eV  427.37 nm  f=0.2038  <S**2>=0.000
     175 ->177         0.18918
     176 ->178         0.30900
     176 ->179         0.53968
     176 ->180        -0.11864

 Excited State   4:      Singlet-A      2.9641 eV  418.29 nm  f=0.0127  <S**2>=0.000
     168 ->177        -0.10248
     168 ->179         0.12522
     169 ->177         0.28630
     169 ->178        -0.17499
     169 ->179        -0.37314
     169 ->180         0.22668
     169 ->186        -0.23070
     169 ->187        -0.13533
     176 ->179        -0.13243

 Excited State   5:      Singlet-A      3.0005 eV  413.22 nm  f=0.8284  <S**2>=0.000
     175 ->177         0.33378
     176 ->178         0.42960
     176 ->179        -0.37515
     176 ->180        -0.10368

 The electronic state is 1-A.
 Alpha  occ. eigenvalues --   -1.84295  -1.81753  -1.81192  -1.77768  -1.72383
 Alpha  occ. eigenvalues --   -1.69712  -1.64896  -1.59560  -1.58585  -1.55793
 Alpha  occ. eigenvalues --   -1.55207  -1.53045  -1.49184  -1.47104  -1.46136
 Alpha  occ. eigenvalues --   -1.44893  -1.42540  -1.40696  -1.38386  -1.38276
 Alpha  occ. eigenvalues --   -1.36653  -1.33493  -1.32954  -1.32138  -1.28032
 Alpha  occ. eigenvalues --   -1.27559  -1.24625  -1.21918  -1.19981  -1.18119
 Alpha  occ. eigenvalues --   -1.16872  -1.15640  -1.15047  -1.14419  -1.13296
 Alpha  occ. eigenvalues --   -1.12094  -1.10733  -1.09874  -1.03827  -1.03314
 Alpha  occ. eigenvalues --   -1.02437  -1.00605  -0.98538  -0.97357  -0.96974
 Alpha  occ. eigenvalues --   -0.95845  -0.94822  -0.93707  -0.93388  -0.92624
 Alpha  occ. eigenvalues --   -0.90461  -0.89733  -0.88501  -0.88382  -0.87591
 Alpha  occ. eigenvalues --   -0.85012  -0.84589  -0.83306  -0.81238  -0.79741
 Alpha  occ. eigenvalues --   -0.79100  -0.78334  -0.78252  -0.77021  -0.76469
 Alpha  occ. eigenvalues --   -0.75633  -0.74963  -0.74362  -0.73960  -0.73611
 Alpha  occ. eigenvalues --   -0.73147  -0.72100  -0.71909  -0.71458  -0.71277
 Alpha  occ. eigenvalues --   -0.70242  -0.69612  -0.69076  -0.68806  -0.68494
 Alpha  occ. eigenvalues --   -0.67209  -0.66513  -0.66358  -0.65768  -0.65619
 Alpha  occ. eigenvalues --   -0.65041  -0.64238  -0.64113  -0.63708  -0.63624
 Alpha  occ. eigenvalues --   -0.63169  -0.62795  -0.62101  -0.62067  -0.61729
 Alpha  occ. eigenvalues --   -0.61431  -0.61222  -0.60564  -0.60231  -0.60078
 Alpha  occ. eigenvalues --   -0.59805  -0.59071  -0.58555  -0.58324  -0.57972
 Alpha  occ. eigenvalues --   -0.57524  -0.57367  -0.57230  -0.56952  -0.56213
 Alpha  occ. eigenvalues --   -0.56158  -0.55934  -0.55660  -0.55079  -0.54994
 Alpha  occ. eigenvalues --   -0.54742  -0.54427  -0.53933  -0.53398  -0.52930
 Alpha  occ. eigenvalues --   -0.52662  -0.52088  -0.51556  -0.51432  -0.51345
 Alpha  occ. eigenvalues --   -0.51058  -0.50955  -0.50446  -0.50362  -0.49612
 Alpha  occ. eigenvalues --   -0.49434  -0.49372  -0.48903  -0.48848  -0.48663
 Alpha  occ. eigenvalues --   -0.48282  -0.48179  -0.47921  -0.47418  -0.47245
 Alpha  occ. eigenvalues --   -0.46869  -0.46690  -0.46594  -0.46300  -0.46123
 Alpha  occ. eigenvalues --   -0.46079  -0.46012  -0.45365  -0.45318  -0.45110
 Alpha  occ. eigenvalues --   -0.44922  -0.44750  -0.44663  -0.44285  -0.43816
 Alpha  occ. eigenvalues --   -0.43485  -0.42931  -0.42527  -0.42272  -0.42211
 Alpha  occ. eigenvalues --   -0.41823  -0.41769  -0.41203  -0.38659  -0.38533
 Alpha  occ. eigenvalues --   -0.38124  -0.37018  -0.35302  -0.35080  -0.34346
 Alpha  occ. eigenvalues --   -0.33200  -0.32702  -0.32570  -0.31986  -0.26163
 Alpha  occ. eigenvalues --   -0.21218
 Alpha virt. eigenvalues --   -0.08240  -0.01622  -0.00421   0.01170   0.02493
 Alpha virt. eigenvalues --    0.02715   0.02875   0.03356   0.04629   0.05067
 Alpha virt. eigenvalues --    0.06311   0.06766   0.07280   0.07544   0.08758

 Mulliken charges:
               1
     1  Mg   0.427252
     2  C   -0.076608
     3  C   -0.094011
     4  C   -0.065338
     5  C   -0.070515
     6  N   -0.248477
     7  C    0.135781
     8  C   -0.004966
     9  C    0.004182
    10  C    0.123173
    11  C   -0.046660
    12  C   -0.024119
    13  C    0.000688
    14  C    0.468433
    15  O   -0.517912
    16  O   -0.255128
    17  N   -0.294212
    18  C    0.118176
    19  C    0.011284
    20  C   -0.054790
    21  C    0.134402
    22  C   -0.042908
    23  C    0.328640
    24  O   -0.535521
    25  C   -0.039152
    26  N   -0.292691
    27  C    0.138606
    28  C    0.007359
    29  C   -0.008455
    30  C    0.129266
    31  C   -0.050754
    32  C   -0.038668
    33  C   -0.055009
    34  N   -0.345715
    35  C    0.073387
    36  C    0.038118
    37  C   -0.042609
    38  C    0.119860
    39  C   -0.042395
    40  C    0.330284
    41  O   -0.507823
    42  C    0.050731
    43  C    0.477332
    44  O   -0.498043
    45  O   -0.270606
    46  C    0.071624
    47  C    0.106354
    48  C   -0.082472
    49  C   -0.010171
    50  C   -0.044862
    51  C   -0.021418
    52  C   -0.041329
    53  C   -0.039491
    54  C   -0.004772
    55  C   -0.058557
    56  C   -0.042158
    57  C   -0.041985
    58  C   -0.038994
    59  C   -0.022969
    60  C   -0.061392
    61  C   -0.032354
    62  C   -0.039182
    63  C   -0.041652
    64  C   -0.009155
    65  C   -0.057598
    66  C   -0.066839
    67  H    0.013328
    68  H    0.041019
    69  H    0.030012
    70  H    0.073552
    71  H    0.025903
    72  H    0.020752
    73  H    0.018090
    74  H    0.031255
    75  H    0.029295
    76  H    0.022376
    77  H    0.020659
    78  H    0.045637
    79  H    0.036506
    80  H    0.027297
    81  H    0.032965
    82  H    0.039837
    83  H    0.038509
    84  H    0.031968
    85  H    0.042780
    86  H    0.029129
    87  H    0.025870
    88  H    0.034247
    89  H    0.023104
    90  H    0.020599
    91  H    0.024653
    92  H    0.016448
    93  H    0.024624
    94  H    0.038670
    95  H    0.034349
    96  H    0.023410
    97  H    0.034489
    98  H    0.060311
    99  H    0.049007
   100  H    0.028360
   101  H    0.040186
   102  H    0.056397
   103  H    0.058879
   104  H    0.014160
   105  H    0.026555
   106  H    0.013421
   107  H    0.034829
   108  H    0.019875
   109  H    0.015506
   110  H    0.020382
   111  H    0.029310
   112  H    0.030881
   113  H    0.019553
   114  H    0.021269
   115  H    0.018051
   116  H    0.013943
   117  H    0.021137
   118  H    0.026613
   119  H    0.016288
   120  H    0.020422
   121  H    0.018214
   122  H    0.018689
   123  H    0.019704
   124  H    0.027844
   125  H    0.020374
   126  H    0.001819
   127  H    0.020446
   128  H    0.027250
   129  H    0.015827
   130  H    0.013284
   131  H    0.020755
   132  H    0.003520
   133  H    0.031335
   134  H    0.026254
   135  H    0.022289
   136  H    0.031017
   137  H    0.001702
   138  H    0.022742
   139  H    0.005558
   140  H    0.030215
 Sum of Mulliken charges =  -0.00000

 Dipole moment (field-independent basis, Debye):
    X=              5.2949    Y=              4.6102    Z=             -4.7050  Tot=              8.4515
 N-N= 4.375061135558D+03 E-N= 0.000000000000D+00  KE=-9.424880814542D+03
 Leave Link  601 at Thu Apr 28 11:57:58 2022, MaxMem=  6710886400 cpu:               1.9 elap:               0.1
 (Enter /sw/apps/gaussian-16.0/g16/l9999.exe)
 1\1\GINC-BP1-COMPUTE134\SP\RZINDO CIS\STO-3G\C55H74Mg1N4O6\OF15641\28-
 Apr-2022\0\\#p ZINDO=(nstates=5)\\step_151_chromophore_9 ZINDO\\0,1\Mg
 ,0,35.96,1.746,30.004\C,0,33.751,2.709,32.559\C,0,38.444,1.744,32.239\
 C,0,38.028,1.228,27.491\C,0,33.342,2.586,27.623\N,0,36.074,2.34,32.123
 \C,0,35.115,2.51,32.985\C,0,35.572,2.71,34.434\C,0,37.124,2.522,34.298
 \C,0,37.22,2.147,32.797\C,0,37.934,3.707,34.765\C,0,35.037,1.503,35.32
 4\C,0,34.693,1.86,36.764\C,0,35.433,3.018,37.41\O,0,35.018,4.141,37.28

 Normal termination of Gaussian 16 at Thu Apr 28 11:57:58 2022.
