 Gaussian 16, Revision A.03,
 Gaussian 16:  ES64L-G16RevA.03 25-Dec-2016

 ------------------------------
 #p blyp/Def2SVP td=(nstates=5)
 ------------------------------

 -------------------------------------------------
 step_801_chromophore_2 TDDFT with blyp functional
 -------------------------------------------------
 Symbolic Z-matrix:
 Charge =  0 Multiplicity = 1

                         Standard orientation:
 ---------------------------------------------------------------------
 Center     Atomic      Atomic             Coordinates (Angstroms)
 Number     Number       Type             X           Y           Z
 ---------------------------------------------------------------------
      1         12           0       -4.751689    1.162126    0.646911
      2          6           0       -5.170840   -2.301536    0.457201
      3          6           0       -2.391871    0.689741    3.148317
      4          6           0       -3.761883    4.449861    0.335484
      5          6           0       -6.650484    1.428251   -2.330541
      6          7           0       -3.897246   -0.564975    1.611104
      7          6           0       -4.169230   -1.898834    1.332194
      8          6           0       -3.545986   -2.820862    2.372511
      9          6           0       -2.925304   -1.760674    3.435186
     10          6           0       -3.094810   -0.454945    2.743948
     11          6           0       -3.552947   -1.740658    4.866415
     12          6           0       -2.451541   -3.822053    1.716021
     13          6           0       -1.835018   -3.461823    0.354886
     14          6           0       -0.593963   -4.177810   -0.156036
     15          8           0       -0.329391   -5.341804    0.004379
     16          8           0        0.174967   -3.367518   -0.962826
     17          7           0       -3.390368    2.480012    1.679264
     18          6           0       -2.511581    2.055833    2.646368
     19          6           0       -1.695561    3.157644    3.035390
     20          6           0       -2.121853    4.274028    2.259475
     21          6           0       -3.158588    3.800737    1.386791
     22          6           0       -0.627381    3.114781    4.180653
     23          6           0       -1.450089    5.726900    2.241457
     24          8           0       -0.530734    5.942091    3.003198
     25          6           0       -2.004869    6.940091    1.513366
     26          7           0       -4.973589    2.677637   -0.888840
     27          6           0       -4.597561    3.988029   -0.684823
     28          6           0       -5.106662    4.810594   -1.837619
     29          6           0       -6.214840    3.957055   -2.565201
     30          6           0       -5.932535    2.596598   -1.921612
     31          6           0       -5.497790    6.233955   -1.603834
     32          6           0       -6.262339    4.042287   -4.175765
     33          6           0       -7.621648    4.216365   -4.762214
     34          7           0       -5.681440   -0.082927   -0.745202
     35          6           0       -6.541697    0.150036   -1.801923
     36          6           0       -7.219980   -1.037939   -2.186289
     37          6           0       -6.672814   -2.065699   -1.433051
     38          6           0       -5.801467   -1.422504   -0.529136
     39          6           0       -8.156503   -1.174535   -3.329140
     40          6           0       -6.670868   -3.502330   -1.092537
     41          8           0       -7.196666   -4.430726   -1.659793
     42          6           0       -5.746106   -3.638404    0.157402
     43          6           0       -6.371916   -4.311797    1.315778
     44          8           0       -6.290528   -5.518959    1.468124
     45          8           0       -6.994297   -3.504924    2.202901
     46          6           0       -7.547699   -4.142312    3.423589
     47          6           0        1.304200   -3.909874   -1.656597
     48          6           0        2.442689   -2.870272   -1.792668
     49          6           0        3.225281   -2.858701   -2.928380
     50          6           0        3.271525   -4.022226   -3.922434
     51          6           0        4.207644   -1.709131   -3.139100
     52          6           0        5.274013   -1.453865   -2.022352
     53          6           0        6.497576   -0.632432   -2.515368
     54          6           0        6.902642    0.527236   -1.527309
     55          6           0        6.337433    1.915304   -1.796293
     56          6           0        8.439596    0.644025   -1.305964
     57          6           0        8.944127    0.333909    0.188957
     58          6           0       10.166542    1.101488    0.662643
     59          6           0       11.294245    0.258363    1.189758
     60          6           0       11.010858   -0.135025    2.618845
     61          6           0       12.648504    0.882117    1.074244
     62          6           0       13.413415    0.386256   -0.198938
     63          6           0       14.696510   -0.386405    0.246851
     64          6           0       16.028340    0.015790   -0.425393
     65          6           0       17.024272   -1.159592   -0.564507
     66          6           0       16.481426    1.395486    0.159180
     67          1           0       -1.756531    0.456524    4.004880
     68          1           0       -3.510304    5.501404    0.180739
     69          1           0       -7.380566    1.543990   -3.134503
     70          1           0       -4.396085   -3.349883    2.804130
     71          1           0       -1.874141   -2.005446    3.583798
     72          1           0       -4.612982   -1.565818    4.681377
     73          1           0       -2.975210   -0.941589    5.331579
     74          1           0       -3.411478   -2.675691    5.408009
     75          1           0       -3.095780   -4.699545    1.643780
     76          1           0       -1.675747   -3.995889    2.462640
     77          1           0       -1.767251   -2.393863    0.150525
     78          1           0       -2.515943   -3.808468   -0.421257
     79          1           0        0.327658    3.112612    3.654874
     80          1           0       -0.670757    2.188744    4.753129
     81          1           0       -0.651654    4.045124    4.747914
     82          1           0       -3.089063    6.986584    1.613512
     83          1           0       -1.635738    6.707021    0.514498
     84          1           0       -1.651664    7.866254    1.967168
     85          1           0       -4.148122    4.869836   -2.353890
     86          1           0       -7.146759    4.243393   -2.076035
     87          1           0       -5.787604    6.419125   -0.570376
     88          1           0       -6.277143    6.474400   -2.326693
     89          1           0       -4.630648    6.781500   -1.973425
     90          1           0       -5.679839    3.190579   -4.525753
     91          1           0       -5.693671    4.897442   -4.541447
     92          1           0       -8.325149    4.477795   -3.971188
     93          1           0       -7.865888    3.270824   -5.244778
     94          1           0       -7.714798    5.082336   -5.416342
     95          1           0       -7.737609   -0.910308   -4.299909
     96          1           0       -9.056363   -0.609557   -3.088492
     97          1           0       -8.425221   -2.209563   -3.539166
     98          1           0       -5.127589   -4.396867   -0.322836
     99          1           0       -6.827217   -4.064646    4.237158
    100          1           0       -7.792241   -5.189276    3.245469
    101          1           0       -8.435753   -3.589454    3.728391
    102          1           0        0.989365   -4.050588   -2.691055
    103          1           0        1.700155   -4.844928   -1.260739
    104          1           0        2.518910   -2.012384   -1.124782
    105          1           0        2.744642   -3.776361   -4.845511
    106          1           0        2.935069   -4.931513   -3.424498
    107          1           0        4.275165   -4.236142   -4.287975
    108          1           0        3.540021   -0.857653   -3.267755
    109          1           0        4.675585   -1.909404   -4.102944
    110          1           0        5.652756   -2.400021   -1.637005
    111          1           0        4.730175   -0.911237   -1.249592
    112          1           0        6.377985   -0.234628   -3.522645
    113          1           0        7.362659   -1.291647   -2.584797
    114          1           0        6.616420    0.243643   -0.514063
    115          1           0        6.143905    2.444266   -0.862828
    116          1           0        5.384070    1.846110   -2.319687
    117          1           0        7.027660    2.406096   -2.482190
    118          1           0        8.855895    1.542786   -1.760367
    119          1           0        9.002939   -0.107783   -1.858622
    120          1           0        8.981076   -0.755121    0.202253
    121          1           0        8.162725    0.468232    0.937650
    122          1           0        9.880328    1.752134    1.489115
    123          1           0       10.545279    1.681919   -0.178121
    124          1           0       11.321713   -0.741827    0.756202
    125          1           0       11.191977   -1.209172    2.624181
    126          1           0        9.955439    0.035321    2.830930
    127          1           0       11.723813    0.352420    3.283729
    128          1           0       13.195397    0.787203    2.013084
    129          1           0       12.583800    1.962482    0.942025
    130          1           0       13.736245    1.230779   -0.807842
    131          1           0       12.848277   -0.390616   -0.711982
    132          1           0       14.515895   -1.426888   -0.021382
    133          1           0       14.956885   -0.319722    1.303500
    134          1           0       15.713372    0.150046   -1.460566
    135          1           0       16.639182   -2.155967   -0.347977
    136          1           0       17.982441   -1.115198   -0.046667
    137          1           0       17.234498   -1.174527   -1.634226
    138          1           0       17.554391    1.443835    0.343319
    139          1           0       15.928540    1.663660    1.059969
    140          1           0       16.174499    2.070622   -0.640007
 ---------------------------------------------------------------------

 SCF Done:  E(RB-LYP) =  -3007.35976914     A.U. after   21 cycles

 Excitation energies and oscillator strengths:

 Excited State   1:      Singlet-A      1.7718 eV  699.78 nm  f=0.2824  <S**2>=0.000
     244 -> 247        0.11089
     245 -> 248        0.18695
     246 -> 247        0.68640
     246 <- 247       -0.15540
 This state for optimization and/or second-order correction.
 Total Energy, E(TD-HF/TD-DFT) =  -3007.29465771
 Copying the excited state density for this state as the 1-particle RhoCI density.

 Excited State   2:      Singlet-A      1.7956 eV  690.49 nm  f=0.0090  <S**2>=0.000
     244 -> 247        0.69491
     246 -> 247       -0.10741

 Excited State   3:      Singlet-A      1.9100 eV  649.15 nm  f=0.0003  <S**2>=0.000
     243 -> 247        0.70663

 Excited State   4:      Singlet-A      1.9955 eV  621.33 nm  f=0.0652  <S**2>=0.000
     242 -> 247       -0.27608
     245 -> 247        0.59813
     246 -> 248       -0.22192

 Excited State   5:      Singlet-A      2.0711 eV  598.65 nm  f=0.0125  <S**2>=0.000
     242 -> 247        0.64981
     245 -> 247        0.24329
     246 -> 248       -0.11889

 The electronic state is 1-A.
 Alpha  occ. eigenvalues --  -46.27571 -18.82745 -18.81224 -18.76627 -18.76055
 Alpha  occ. eigenvalues --  -18.75932 -18.75733 -14.03570 -14.03422 -14.00973
 Alpha  occ. eigenvalues --  -14.00901 -10.03798 -10.03754 -10.00566 -10.00355
 Alpha  occ. eigenvalues --   -9.98431  -9.97341  -9.97116  -9.96827  -9.96806
 Alpha  occ. eigenvalues --   -9.96677  -9.95896  -9.95613  -9.95073  -9.94858
 Alpha  occ. eigenvalues --   -9.94640  -9.94624  -9.94142  -9.94044  -9.93781
 Alpha  occ. eigenvalues --   -9.93772  -9.93724  -9.93697  -9.93583  -9.93573
 Alpha  occ. eigenvalues --   -9.93537  -9.93443  -9.93195  -9.93175  -9.92912
 Alpha  occ. eigenvalues --   -9.92715  -9.92689  -9.92650  -9.92570  -9.92384
 Alpha  occ. eigenvalues --   -9.92274  -9.92253  -9.92081  -9.91876  -9.91691
 Alpha  occ. eigenvalues --   -9.91609  -9.91527  -9.91448  -9.91363  -9.91343
 Alpha  occ. eigenvalues --   -9.91075  -9.91070  -9.90925  -9.90838  -9.90780
 Alpha  occ. eigenvalues --   -9.90543  -9.90521  -9.90298  -9.90172  -9.90167
 Alpha  occ. eigenvalues --   -9.89900  -2.92111  -1.72515  -1.71968  -1.71853
 Alpha  occ. eigenvalues --   -0.98404  -0.97700  -0.92849  -0.92242  -0.89843
 Alpha  occ. eigenvalues --   -0.89540  -0.86429  -0.85590  -0.85023  -0.84446
 Alpha  occ. eigenvalues --   -0.75998  -0.73589  -0.72668  -0.72632  -0.72294
 Alpha  occ. eigenvalues --   -0.71861  -0.71499  -0.71371  -0.70851  -0.70550
 Alpha  occ. eigenvalues --   -0.69523  -0.68730  -0.68420  -0.67973  -0.67298
 Alpha  occ. eigenvalues --   -0.66354  -0.66060  -0.65440  -0.65115  -0.64524
 Alpha  occ. eigenvalues --   -0.63966  -0.62922  -0.62560  -0.61890  -0.61270
 Alpha  occ. eigenvalues --   -0.60498  -0.60418  -0.59984  -0.59213  -0.58746
 Alpha  occ. eigenvalues --   -0.58469  -0.57718  -0.57126  -0.55434  -0.55021
 Alpha  occ. eigenvalues --   -0.54137  -0.53605  -0.52498  -0.52365  -0.51644
 Alpha  occ. eigenvalues --   -0.51241  -0.50927  -0.50674  -0.50455  -0.50025
 Alpha  occ. eigenvalues --   -0.49421  -0.48928  -0.48884  -0.48265  -0.46484
 Alpha  occ. eigenvalues --   -0.45846  -0.45392  -0.45205  -0.44898  -0.44800
 Alpha  occ. eigenvalues --   -0.44105  -0.43644  -0.43187  -0.42869  -0.42401
 Alpha  occ. eigenvalues --   -0.42349  -0.41961  -0.41579  -0.41105  -0.40932
 Alpha  occ. eigenvalues --   -0.40793  -0.40634  -0.40501  -0.40336  -0.40129
 Alpha  occ. eigenvalues --   -0.39927  -0.39835  -0.39812  -0.39650  -0.39054
 Alpha  occ. eigenvalues --   -0.38975  -0.38632  -0.38630  -0.38436  -0.38193
 Alpha  occ. eigenvalues --   -0.38126  -0.37978  -0.37831  -0.37703  -0.37517
 Alpha  occ. eigenvalues --   -0.37504  -0.37271  -0.37044  -0.36653  -0.36554
 Alpha  occ. eigenvalues --   -0.36523  -0.36110  -0.35978  -0.35950  -0.35594
 Alpha  occ. eigenvalues --   -0.35396  -0.35317  -0.35011  -0.34881  -0.34701
 Alpha  occ. eigenvalues --   -0.34600  -0.34501  -0.34481  -0.34212  -0.34155
 Alpha  occ. eigenvalues --   -0.34128  -0.33670  -0.33583  -0.33454  -0.33261
 Alpha  occ. eigenvalues --   -0.32866  -0.32796  -0.32582  -0.32477  -0.32344
 Alpha  occ. eigenvalues --   -0.32181  -0.31975  -0.31886  -0.31717  -0.31626
 Alpha  occ. eigenvalues --   -0.31307  -0.31180  -0.31065  -0.30977  -0.30670
 Alpha  occ. eigenvalues --   -0.30642  -0.30342  -0.30284  -0.29987  -0.29684
 Alpha  occ. eigenvalues --   -0.29499  -0.29399  -0.29352  -0.29233  -0.29108
 Alpha  occ. eigenvalues --   -0.28825  -0.28592  -0.28063  -0.27719  -0.27521
 Alpha  occ. eigenvalues --   -0.27268  -0.26959  -0.26713  -0.26451  -0.26230
 Alpha  occ. eigenvalues --   -0.26108  -0.25829  -0.25782  -0.25495  -0.25358
 Alpha  occ. eigenvalues --   -0.24754  -0.24471  -0.24055  -0.23994  -0.23524
 Alpha  occ. eigenvalues --   -0.23284  -0.22390  -0.21583  -0.21507  -0.21150
 Alpha  occ. eigenvalues --   -0.20117  -0.19465  -0.19010  -0.18533  -0.17595
 Alpha  occ. eigenvalues --   -0.16098
 Alpha virt. eigenvalues --   -0.11991  -0.07058  -0.06115  -0.04689  -0.03695
 Alpha virt. eigenvalues --   -0.02468  -0.02065  -0.01983  -0.01381  -0.00376
 Alpha virt. eigenvalues --    0.00788   0.01615   0.01901   0.02658   0.03051

 Mulliken charges:
               1
     1  Mg   0.686420
     2  C    0.093968
     3  C   -0.051970
     4  C   -0.059118
     5  C   -0.086957
     6  N   -0.259642
     7  C   -0.080284
     8  C   -0.011394
     9  C   -0.000441
    10  C    0.012747
    11  C    0.129314
    12  C    0.124136
    13  C    0.121853
    14  C    0.055517
    15  O   -0.166587
    16  O   -0.267700
    17  N   -0.269872
    18  C    0.140948
    19  C   -0.164309
    20  C    0.007056
    21  C    0.154771
    22  C    0.200486
    23  C   -0.083773
    24  O   -0.160454
    25  C    0.153961
    26  N   -0.240904
    27  C   -0.015102
    28  C   -0.033731
    29  C    0.064487
    30  C    0.010130
    31  C    0.175414
    32  C    0.099314
    33  C    0.078072
    34  N   -0.255327
    35  C    0.129308
    36  C   -0.191583
    37  C    0.106970
    38  C    0.014834
    39  C    0.165892
    40  C   -0.065466
    41  O   -0.096017
    42  C    0.061133
    43  C    0.078259
    44  O   -0.176688
    45  O   -0.269183
    46  C    0.206051
    47  C    0.299982
    48  C   -0.088132
    49  C   -0.198137
    50  C    0.137595
    51  C    0.122008
    52  C    0.086903
    53  C    0.129431
    54  C   -0.080850
    55  C    0.133453
    56  C    0.064474
    57  C    0.040600
    58  C    0.165447
    59  C   -0.117615
    60  C    0.122204
    61  C    0.125502
    62  C    0.093270
    63  C    0.036955
    64  C   -0.096746
    65  C    0.102056
    66  C    0.116880
    67  H   -0.056012
    68  H   -0.104939
    69  H   -0.070974
    70  H   -0.014325
    71  H   -0.030256
    72  H    0.000132
    73  H   -0.007200
    74  H    0.000437
    75  H    0.001432
    76  H   -0.008450
    77  H    0.006382
    78  H    0.005334
    79  H   -0.002352
    80  H   -0.019201
    81  H    0.013116
    82  H    0.016527
    83  H    0.020846
    84  H    0.000559
    85  H   -0.012235
    86  H   -0.022645
    87  H    0.002902
    88  H   -0.019304
    89  H   -0.018226
    90  H   -0.015419
    91  H   -0.025840
    92  H   -0.014125
    93  H    0.010275
    94  H   -0.010099
    95  H    0.000946
    96  H   -0.000167
    97  H   -0.005638
    98  H    0.007841
    99  H    0.014530
   100  H    0.034728
   101  H    0.017382
   102  H   -0.002250
   103  H    0.018208
   104  H   -0.037724
   105  H    0.004058
   106  H    0.000664
   107  H   -0.013565
   108  H   -0.011902
   109  H   -0.045607
   110  H   -0.021740
   111  H   -0.011525
   112  H   -0.035026
   113  H   -0.042111
   114  H   -0.038013
   115  H   -0.006573
   116  H   -0.029951
   117  H   -0.014295
   118  H   -0.037052
   119  H   -0.042787
   120  H   -0.034039
   121  H   -0.033024
   122  H   -0.033386
   123  H   -0.036321
   124  H   -0.046584
   125  H   -0.027787
   126  H   -0.023307
   127  H   -0.017323
   128  H   -0.037037
   129  H   -0.048998
   130  H   -0.025688
   131  H   -0.016621
   132  H   -0.047245
   133  H   -0.025554
   134  H   -0.041424
   135  H   -0.023379
   136  H   -0.018758
   137  H   -0.021232
   138  H   -0.011466
   139  H   -0.009106
   140  H   -0.010313
 Sum of Mulliken charges =  -0.00000

 Dipole moment (field-independent basis, Debye):
    X=             -1.7016    Y=              5.8360    Z=             -0.9871  Tot=              6.1586
 Quadrupole moment (field-independent basis, Debye-Ang):
   XX=           -385.9618   YY=           -443.6422   ZZ=           -383.5748
   XY=            -50.9619   XZ=            -17.8269   YZ=            -26.3710

 Normal termination of Gaussian 16 at Thu May  5 10:18:03 2022.
