 Gaussian 16, Revision A.03,
 Gaussian 16:  ES64L-G16RevA.03 25-Dec-2016

 -----------------------------------
 #p cam-b3lyp/Def2SVP td=(nstates=5)
 -----------------------------------

 ------------------------------------------------------
 step_801_chromophore_2 TDDFT with cam-b3lyp functional
 ------------------------------------------------------
 Symbolic Z-matrix:
 Charge =  0 Multiplicity = 1

                         Standard orientation:
 ---------------------------------------------------------------------
 Center     Atomic      Atomic             Coordinates (Angstroms)
 Number     Number       Type             X           Y           Z
 ---------------------------------------------------------------------
      1         12           0       -4.751689    1.162126    0.646911
      2          6           0       -5.170840   -2.301536    0.457201
      3          6           0       -2.391871    0.689741    3.148317
      4          6           0       -3.761883    4.449861    0.335484
      5          6           0       -6.650484    1.428251   -2.330541
      6          7           0       -3.897246   -0.564975    1.611104
      7          6           0       -4.169230   -1.898834    1.332194
      8          6           0       -3.545986   -2.820862    2.372511
      9          6           0       -2.925304   -1.760674    3.435186
     10          6           0       -3.094810   -0.454945    2.743948
     11          6           0       -3.552947   -1.740658    4.866415
     12          6           0       -2.451541   -3.822053    1.716021
     13          6           0       -1.835018   -3.461823    0.354886
     14          6           0       -0.593963   -4.177810   -0.156036
     15          8           0       -0.329391   -5.341804    0.004379
     16          8           0        0.174967   -3.367518   -0.962826
     17          7           0       -3.390368    2.480012    1.679264
     18          6           0       -2.511581    2.055833    2.646368
     19          6           0       -1.695561    3.157644    3.035390
     20          6           0       -2.121853    4.274028    2.259475
     21          6           0       -3.158588    3.800737    1.386791
     22          6           0       -0.627381    3.114781    4.180653
     23          6           0       -1.450089    5.726900    2.241457
     24          8           0       -0.530734    5.942091    3.003198
     25          6           0       -2.004869    6.940091    1.513366
     26          7           0       -4.973589    2.677637   -0.888840
     27          6           0       -4.597561    3.988029   -0.684823
     28          6           0       -5.106662    4.810594   -1.837619
     29          6           0       -6.214840    3.957055   -2.565201
     30          6           0       -5.932535    2.596598   -1.921612
     31          6           0       -5.497790    6.233955   -1.603834
     32          6           0       -6.262339    4.042287   -4.175765
     33          6           0       -7.621648    4.216365   -4.762214
     34          7           0       -5.681440   -0.082927   -0.745202
     35          6           0       -6.541697    0.150036   -1.801923
     36          6           0       -7.219980   -1.037939   -2.186289
     37          6           0       -6.672814   -2.065699   -1.433051
     38          6           0       -5.801467   -1.422504   -0.529136
     39          6           0       -8.156503   -1.174535   -3.329140
     40          6           0       -6.670868   -3.502330   -1.092537
     41          8           0       -7.196666   -4.430726   -1.659793
     42          6           0       -5.746106   -3.638404    0.157402
     43          6           0       -6.371916   -4.311797    1.315778
     44          8           0       -6.290528   -5.518959    1.468124
     45          8           0       -6.994297   -3.504924    2.202901
     46          6           0       -7.547699   -4.142312    3.423589
     47          6           0        1.304200   -3.909874   -1.656597
     48          6           0        2.442689   -2.870272   -1.792668
     49          6           0        3.225281   -2.858701   -2.928380
     50          6           0        3.271525   -4.022226   -3.922434
     51          6           0        4.207644   -1.709131   -3.139100
     52          6           0        5.274013   -1.453865   -2.022352
     53          6           0        6.497576   -0.632432   -2.515368
     54          6           0        6.902642    0.527236   -1.527309
     55          6           0        6.337433    1.915304   -1.796293
     56          6           0        8.439596    0.644025   -1.305964
     57          6           0        8.944127    0.333909    0.188957
     58          6           0       10.166542    1.101488    0.662643
     59          6           0       11.294245    0.258363    1.189758
     60          6           0       11.010858   -0.135025    2.618845
     61          6           0       12.648504    0.882117    1.074244
     62          6           0       13.413415    0.386256   -0.198938
     63          6           0       14.696510   -0.386405    0.246851
     64          6           0       16.028340    0.015790   -0.425393
     65          6           0       17.024272   -1.159592   -0.564507
     66          6           0       16.481426    1.395486    0.159180
     67          1           0       -1.756531    0.456524    4.004880
     68          1           0       -3.510304    5.501404    0.180739
     69          1           0       -7.380566    1.543990   -3.134503
     70          1           0       -4.396085   -3.349883    2.804130
     71          1           0       -1.874141   -2.005446    3.583798
     72          1           0       -4.612982   -1.565818    4.681377
     73          1           0       -2.975210   -0.941589    5.331579
     74          1           0       -3.411478   -2.675691    5.408009
     75          1           0       -3.095780   -4.699545    1.643780
     76          1           0       -1.675747   -3.995889    2.462640
     77          1           0       -1.767251   -2.393863    0.150525
     78          1           0       -2.515943   -3.808468   -0.421257
     79          1           0        0.327658    3.112612    3.654874
     80          1           0       -0.670757    2.188744    4.753129
     81          1           0       -0.651654    4.045124    4.747914
     82          1           0       -3.089063    6.986584    1.613512
     83          1           0       -1.635738    6.707021    0.514498
     84          1           0       -1.651664    7.866254    1.967168
     85          1           0       -4.148122    4.869836   -2.353890
     86          1           0       -7.146759    4.243393   -2.076035
     87          1           0       -5.787604    6.419125   -0.570376
     88          1           0       -6.277143    6.474400   -2.326693
     89          1           0       -4.630648    6.781500   -1.973425
     90          1           0       -5.679839    3.190579   -4.525753
     91          1           0       -5.693671    4.897442   -4.541447
     92          1           0       -8.325149    4.477795   -3.971188
     93          1           0       -7.865888    3.270824   -5.244778
     94          1           0       -7.714798    5.082336   -5.416342
     95          1           0       -7.737609   -0.910308   -4.299909
     96          1           0       -9.056363   -0.609557   -3.088492
     97          1           0       -8.425221   -2.209563   -3.539166
     98          1           0       -5.127589   -4.396867   -0.322836
     99          1           0       -6.827217   -4.064646    4.237158
    100          1           0       -7.792241   -5.189276    3.245469
    101          1           0       -8.435753   -3.589454    3.728391
    102          1           0        0.989365   -4.050588   -2.691055
    103          1           0        1.700155   -4.844928   -1.260739
    104          1           0        2.518910   -2.012384   -1.124782
    105          1           0        2.744642   -3.776361   -4.845511
    106          1           0        2.935069   -4.931513   -3.424498
    107          1           0        4.275165   -4.236142   -4.287975
    108          1           0        3.540021   -0.857653   -3.267755
    109          1           0        4.675585   -1.909404   -4.102944
    110          1           0        5.652756   -2.400021   -1.637005
    111          1           0        4.730175   -0.911237   -1.249592
    112          1           0        6.377985   -0.234628   -3.522645
    113          1           0        7.362659   -1.291647   -2.584797
    114          1           0        6.616420    0.243643   -0.514063
    115          1           0        6.143905    2.444266   -0.862828
    116          1           0        5.384070    1.846110   -2.319687
    117          1           0        7.027660    2.406096   -2.482190
    118          1           0        8.855895    1.542786   -1.760367
    119          1           0        9.002939   -0.107783   -1.858622
    120          1           0        8.981076   -0.755121    0.202253
    121          1           0        8.162725    0.468232    0.937650
    122          1           0        9.880328    1.752134    1.489115
    123          1           0       10.545279    1.681919   -0.178121
    124          1           0       11.321713   -0.741827    0.756202
    125          1           0       11.191977   -1.209172    2.624181
    126          1           0        9.955439    0.035321    2.830930
    127          1           0       11.723813    0.352420    3.283729
    128          1           0       13.195397    0.787203    2.013084
    129          1           0       12.583800    1.962482    0.942025
    130          1           0       13.736245    1.230779   -0.807842
    131          1           0       12.848277   -0.390616   -0.711982
    132          1           0       14.515895   -1.426888   -0.021382
    133          1           0       14.956885   -0.319722    1.303500
    134          1           0       15.713372    0.150046   -1.460566
    135          1           0       16.639182   -2.155967   -0.347977
    136          1           0       17.982441   -1.115198   -0.046667
    137          1           0       17.234498   -1.174527   -1.634226
    138          1           0       17.554391    1.443835    0.343319
    139          1           0       15.928540    1.663660    1.059969
    140          1           0       16.174499    2.070622   -0.640007
 ---------------------------------------------------------------------

 SCF Done:  E(RCAM-B3LYP) =  -3007.15306593     A.U. after   19 cycles

 Excitation energies and oscillator strengths:

 Excited State   1:      Singlet-A      1.6441 eV  754.10 nm  f=0.3636  <S**2>=0.000
     245 -> 248       -0.17089
     246 -> 247        0.68896
     245 <- 248       -0.10918
 This state for optimization and/or second-order correction.
 Total Energy, E(TD-HF/TD-DFT) =  -3007.09264507
 Copying the excited state density for this state as the 1-particle RhoCI density.

 Excited State   2:      Singlet-A      2.2007 eV  563.39 nm  f=0.1119  <S**2>=0.000
     245 -> 247        0.64175
     246 -> 248        0.28585

 Excited State   3:      Singlet-A      3.1661 eV  391.60 nm  f=0.0018  <S**2>=0.000
     243 -> 247        0.69270

 Excited State   4:      Singlet-A      3.4718 eV  357.12 nm  f=0.0938  <S**2>=0.000
     242 -> 247        0.59181
     245 -> 247       -0.10422
     246 -> 248        0.35116

 Excited State   5:      Singlet-A      3.5886 eV  345.49 nm  f=0.0713  <S**2>=0.000
     241 -> 247        0.54533
     241 -> 248       -0.11568
     241 -> 249       -0.20148
     241 -> 251        0.27072
     246 -> 248       -0.17517

 The electronic state is 1-A.
 Alpha  occ. eigenvalues --  -46.89197 -19.25688 -19.23975 -19.19756 -19.19064
 Alpha  occ. eigenvalues --  -19.19039 -19.18974 -14.42500 -14.42360 -14.39520
 Alpha  occ. eigenvalues --  -14.39307 -10.39189 -10.38992 -10.35856 -10.35631
 Alpha  occ. eigenvalues --  -10.32468 -10.31539 -10.31425 -10.31311 -10.31269
 Alpha  occ. eigenvalues --  -10.31262 -10.30416 -10.30116 -10.29201 -10.29132
 Alpha  occ. eigenvalues --  -10.28768 -10.28643 -10.28303 -10.28158 -10.28154
 Alpha  occ. eigenvalues --  -10.27935 -10.27786 -10.27698 -10.27673 -10.27652
 Alpha  occ. eigenvalues --  -10.27587 -10.27410 -10.27354 -10.27263 -10.27214
 Alpha  occ. eigenvalues --  -10.26928 -10.26837 -10.26722 -10.26401 -10.26000
 Alpha  occ. eigenvalues --  -10.25959 -10.25951 -10.25887 -10.25537 -10.25413
 Alpha  occ. eigenvalues --  -10.25376 -10.25374 -10.25317 -10.25251 -10.25042
 Alpha  occ. eigenvalues --  -10.24758 -10.24757 -10.24546 -10.24524 -10.24323
 Alpha  occ. eigenvalues --  -10.24142 -10.24118 -10.23940 -10.23837 -10.23768
 Alpha  occ. eigenvalues --  -10.23451  -3.17630  -1.92513  -1.92059  -1.91952
 Alpha  occ. eigenvalues --   -1.16961  -1.16118  -1.11242  -1.10762  -1.07657
 Alpha  occ. eigenvalues --   -1.07516  -1.04088  -1.03300  -1.02677  -1.02011
 Alpha  occ. eigenvalues --   -0.93132  -0.90443  -0.89463  -0.89322  -0.89058
 Alpha  occ. eigenvalues --   -0.88526  -0.88130  -0.88035  -0.87454  -0.87052
 Alpha  occ. eigenvalues --   -0.85946  -0.85149  -0.84837  -0.84192  -0.83484
 Alpha  occ. eigenvalues --   -0.82449  -0.82154  -0.81484  -0.80881  -0.80311
 Alpha  occ. eigenvalues --   -0.79716  -0.78510  -0.78165  -0.77462  -0.76807
 Alpha  occ. eigenvalues --   -0.75850  -0.75812  -0.75339  -0.74482  -0.73987
 Alpha  occ. eigenvalues --   -0.73553  -0.72700  -0.72067  -0.70190  -0.69627
 Alpha  occ. eigenvalues --   -0.68756  -0.68158  -0.66872  -0.66723  -0.65855
 Alpha  occ. eigenvalues --   -0.65494  -0.64964  -0.64778  -0.64428  -0.63811
 Alpha  occ. eigenvalues --   -0.63386  -0.62844  -0.62583  -0.62166  -0.60153
 Alpha  occ. eigenvalues --   -0.59427  -0.58868  -0.58716  -0.58379  -0.58150
 Alpha  occ. eigenvalues --   -0.57519  -0.56948  -0.56392  -0.56082  -0.55589
 Alpha  occ. eigenvalues --   -0.55386  -0.55011  -0.54523  -0.53841  -0.53783
 Alpha  occ. eigenvalues --   -0.53719  -0.53619  -0.53278  -0.53108  -0.52972
 Alpha  occ. eigenvalues --   -0.52713  -0.52525  -0.52412  -0.52370  -0.51580
 Alpha  occ. eigenvalues --   -0.51514  -0.51284  -0.51056  -0.50999  -0.50586
 Alpha  occ. eigenvalues --   -0.50435  -0.50381  -0.50147  -0.50064  -0.49924
 Alpha  occ. eigenvalues --   -0.49777  -0.49705  -0.49601  -0.49325  -0.49230
 Alpha  occ. eigenvalues --   -0.48701  -0.48625  -0.48162  -0.47932  -0.47536
 Alpha  occ. eigenvalues --   -0.47467  -0.47319  -0.47194  -0.46915  -0.46698
 Alpha  occ. eigenvalues --   -0.46480  -0.46427  -0.46391  -0.46026  -0.45951
 Alpha  occ. eigenvalues --   -0.45881  -0.45678  -0.45351  -0.45310  -0.45038
 Alpha  occ. eigenvalues --   -0.44631  -0.44442  -0.44285  -0.44106  -0.43905
 Alpha  occ. eigenvalues --   -0.43833  -0.43460  -0.43375  -0.43242  -0.43040
 Alpha  occ. eigenvalues --   -0.42795  -0.42755  -0.42530  -0.42325  -0.42235
 Alpha  occ. eigenvalues --   -0.42209  -0.41898  -0.41800  -0.41695  -0.41265
 Alpha  occ. eigenvalues --   -0.40692  -0.40517  -0.40467  -0.40405  -0.40330
 Alpha  occ. eigenvalues --   -0.39875  -0.39587  -0.39231  -0.38734  -0.38411
 Alpha  occ. eigenvalues --   -0.38087  -0.37980  -0.37751  -0.37251  -0.37082
 Alpha  occ. eigenvalues --   -0.36920  -0.36826  -0.36685  -0.36595  -0.36233
 Alpha  occ. eigenvalues --   -0.35572  -0.35342  -0.34613  -0.34578  -0.34315
 Alpha  occ. eigenvalues --   -0.33729  -0.33660  -0.33287  -0.31398  -0.31283
 Alpha  occ. eigenvalues --   -0.30765  -0.30474  -0.29615  -0.28563  -0.24430
 Alpha  occ. eigenvalues --   -0.21418
 Alpha virt. eigenvalues --   -0.09245  -0.01984   0.00579   0.01280   0.02499
 Alpha virt. eigenvalues --    0.05025   0.05268   0.05484   0.06513   0.06634
 Alpha virt. eigenvalues --    0.07398   0.08136   0.08529   0.08585   0.09271

 Mulliken charges:
               1
     1  Mg   0.815704
     2  C    0.063860
     3  C   -0.064507
     4  C   -0.081247
     5  C   -0.087561
     6  N   -0.330072
     7  C   -0.031105
     8  C   -0.062843
     9  C   -0.060172
    10  C    0.033646
    11  C    0.079234
    12  C    0.081818
    13  C    0.043076
    14  C    0.145132
    15  O   -0.208632
    16  O   -0.333413
    17  N   -0.357261
    18  C    0.149385
    19  C   -0.172013
    20  C   -0.055077
    21  C    0.181476
    22  C    0.148768
    23  C   -0.004526
    24  O   -0.198548
    25  C    0.068201
    26  N   -0.307870
    27  C    0.014589
    28  C   -0.082698
    29  C    0.000039
    30  C    0.029941
    31  C    0.107548
    32  C    0.041419
    33  C    0.013311
    34  N   -0.341531
    35  C    0.126603
    36  C   -0.182199
    37  C    0.027350
    38  C    0.049030
    39  C    0.106758
    40  C    0.038628
    41  O   -0.135561
    42  C   -0.020286
    43  C    0.166822
    44  O   -0.215643
    45  O   -0.331286
    46  C    0.170140
    47  C    0.266419
    48  C   -0.108272
    49  C   -0.215771
    50  C    0.069616
    51  C    0.065781
    52  C    0.031677
    53  C    0.074882
    54  C   -0.139950
    55  C    0.076072
    56  C    0.015242
    57  C   -0.008915
    58  C    0.103824
    59  C   -0.168795
    60  C    0.063712
    61  C    0.067036
    62  C    0.035208
    63  C   -0.009302
    64  C   -0.156106
    65  C    0.042284
    66  C    0.056046
    67  H   -0.023227
    68  H   -0.065228
    69  H   -0.034002
    70  H    0.018292
    71  H    0.005462
    72  H    0.021459
    73  H    0.015374
    74  H    0.025057
    75  H    0.029976
    76  H    0.020371
    77  H    0.040752
    78  H    0.034190
    79  H    0.025409
    80  H    0.005893
    81  H    0.040991
    82  H    0.042188
    83  H    0.045413
    84  H    0.036410
    85  H    0.021606
    86  H    0.011323
    87  H    0.027863
    88  H    0.007492
    89  H    0.007216
    90  H    0.015515
    91  H    0.003681
    92  H    0.009525
    93  H    0.031524
    94  H    0.015438
    95  H    0.026702
    96  H    0.024773
    97  H    0.023987
    98  H    0.048083
    99  H    0.033163
   100  H    0.061272
   101  H    0.040399
   102  H    0.024672
   103  H    0.047975
   104  H   -0.002413
   105  H    0.029244
   106  H    0.024097
   107  H    0.012747
   108  H    0.016820
   109  H   -0.015617
   110  H    0.007730
   111  H    0.012980
   112  H   -0.006248
   113  H   -0.011193
   114  H   -0.006141
   115  H    0.017425
   116  H   -0.005644
   117  H    0.007883
   118  H   -0.009264
   119  H   -0.013697
   120  H   -0.006317
   121  H   -0.006753
   122  H   -0.002895
   123  H   -0.007950
   124  H   -0.014755
   125  H   -0.002712
   126  H    0.000720
   127  H    0.006784
   128  H   -0.008007
   129  H   -0.017467
   130  H    0.002158
   131  H    0.010958
   132  H   -0.018065
   133  H    0.000222
   134  H   -0.009720
   135  H    0.002133
   136  H    0.005492
   137  H    0.002666
   138  H    0.013112
   139  H    0.013081
   140  H    0.012501
 Sum of Mulliken charges =  -0.00000

 Dipole moment (field-independent basis, Debye):
    X=             -1.7070    Y=              6.3680    Z=             -0.8000  Tot=              6.6412
 Quadrupole moment (field-independent basis, Debye-Ang):
   XX=           -384.8525   YY=           -441.0402   ZZ=           -381.4089
   XY=            -53.5833   XZ=            -18.4583   YZ=            -27.3459

 Normal termination of Gaussian 16 at Thu May  5 09:23:20 2022.
