 Gaussian 16, Revision A.03,
 Gaussian 16:  ES64L-G16RevA.03 25-Dec-2016

 ---------------------------------
 #p PBE1PBE/Def2SVP td=(nstates=5)
 ---------------------------------

 ----------------------------------------------------
 step_801_chromophore_2 TDDFT with PBE1PBE functional
 ----------------------------------------------------
 Symbolic Z-matrix:
 Charge =  0 Multiplicity = 1

                         Standard orientation:
 ---------------------------------------------------------------------
 Center     Atomic      Atomic             Coordinates (Angstroms)
 Number     Number       Type             X           Y           Z
 ---------------------------------------------------------------------
      1         12           0       -4.751689    1.162126    0.646911
      2          6           0       -5.170840   -2.301536    0.457201
      3          6           0       -2.391871    0.689741    3.148317
      4          6           0       -3.761883    4.449861    0.335484
      5          6           0       -6.650484    1.428251   -2.330541
      6          7           0       -3.897246   -0.564975    1.611104
      7          6           0       -4.169230   -1.898834    1.332194
      8          6           0       -3.545986   -2.820862    2.372511
      9          6           0       -2.925304   -1.760674    3.435186
     10          6           0       -3.094810   -0.454945    2.743948
     11          6           0       -3.552947   -1.740658    4.866415
     12          6           0       -2.451541   -3.822053    1.716021
     13          6           0       -1.835018   -3.461823    0.354886
     14          6           0       -0.593963   -4.177810   -0.156036
     15          8           0       -0.329391   -5.341804    0.004379
     16          8           0        0.174967   -3.367518   -0.962826
     17          7           0       -3.390368    2.480012    1.679264
     18          6           0       -2.511581    2.055833    2.646368
     19          6           0       -1.695561    3.157644    3.035390
     20          6           0       -2.121853    4.274028    2.259475
     21          6           0       -3.158588    3.800737    1.386791
     22          6           0       -0.627381    3.114781    4.180653
     23          6           0       -1.450089    5.726900    2.241457
     24          8           0       -0.530734    5.942091    3.003198
     25          6           0       -2.004869    6.940091    1.513366
     26          7           0       -4.973589    2.677637   -0.888840
     27          6           0       -4.597561    3.988029   -0.684823
     28          6           0       -5.106662    4.810594   -1.837619
     29          6           0       -6.214840    3.957055   -2.565201
     30          6           0       -5.932535    2.596598   -1.921612
     31          6           0       -5.497790    6.233955   -1.603834
     32          6           0       -6.262339    4.042287   -4.175765
     33          6           0       -7.621648    4.216365   -4.762214
     34          7           0       -5.681440   -0.082927   -0.745202
     35          6           0       -6.541697    0.150036   -1.801923
     36          6           0       -7.219980   -1.037939   -2.186289
     37          6           0       -6.672814   -2.065699   -1.433051
     38          6           0       -5.801467   -1.422504   -0.529136
     39          6           0       -8.156503   -1.174535   -3.329140
     40          6           0       -6.670868   -3.502330   -1.092537
     41          8           0       -7.196666   -4.430726   -1.659793
     42          6           0       -5.746106   -3.638404    0.157402
     43          6           0       -6.371916   -4.311797    1.315778
     44          8           0       -6.290528   -5.518959    1.468124
     45          8           0       -6.994297   -3.504924    2.202901
     46          6           0       -7.547699   -4.142312    3.423589
     47          6           0        1.304200   -3.909874   -1.656597
     48          6           0        2.442689   -2.870272   -1.792668
     49          6           0        3.225281   -2.858701   -2.928380
     50          6           0        3.271525   -4.022226   -3.922434
     51          6           0        4.207644   -1.709131   -3.139100
     52          6           0        5.274013   -1.453865   -2.022352
     53          6           0        6.497576   -0.632432   -2.515368
     54          6           0        6.902642    0.527236   -1.527309
     55          6           0        6.337433    1.915304   -1.796293
     56          6           0        8.439596    0.644025   -1.305964
     57          6           0        8.944127    0.333909    0.188957
     58          6           0       10.166542    1.101488    0.662643
     59          6           0       11.294245    0.258363    1.189758
     60          6           0       11.010858   -0.135025    2.618845
     61          6           0       12.648504    0.882117    1.074244
     62          6           0       13.413415    0.386256   -0.198938
     63          6           0       14.696510   -0.386405    0.246851
     64          6           0       16.028340    0.015790   -0.425393
     65          6           0       17.024272   -1.159592   -0.564507
     66          6           0       16.481426    1.395486    0.159180
     67          1           0       -1.756531    0.456524    4.004880
     68          1           0       -3.510304    5.501404    0.180739
     69          1           0       -7.380566    1.543990   -3.134503
     70          1           0       -4.396085   -3.349883    2.804130
     71          1           0       -1.874141   -2.005446    3.583798
     72          1           0       -4.612982   -1.565818    4.681377
     73          1           0       -2.975210   -0.941589    5.331579
     74          1           0       -3.411478   -2.675691    5.408009
     75          1           0       -3.095780   -4.699545    1.643780
     76          1           0       -1.675747   -3.995889    2.462640
     77          1           0       -1.767251   -2.393863    0.150525
     78          1           0       -2.515943   -3.808468   -0.421257
     79          1           0        0.327658    3.112612    3.654874
     80          1           0       -0.670757    2.188744    4.753129
     81          1           0       -0.651654    4.045124    4.747914
     82          1           0       -3.089063    6.986584    1.613512
     83          1           0       -1.635738    6.707021    0.514498
     84          1           0       -1.651664    7.866254    1.967168
     85          1           0       -4.148122    4.869836   -2.353890
     86          1           0       -7.146759    4.243393   -2.076035
     87          1           0       -5.787604    6.419125   -0.570376
     88          1           0       -6.277143    6.474400   -2.326693
     89          1           0       -4.630648    6.781500   -1.973425
     90          1           0       -5.679839    3.190579   -4.525753
     91          1           0       -5.693671    4.897442   -4.541447
     92          1           0       -8.325149    4.477795   -3.971188
     93          1           0       -7.865888    3.270824   -5.244778
     94          1           0       -7.714798    5.082336   -5.416342
     95          1           0       -7.737609   -0.910308   -4.299909
     96          1           0       -9.056363   -0.609557   -3.088492
     97          1           0       -8.425221   -2.209563   -3.539166
     98          1           0       -5.127589   -4.396867   -0.322836
     99          1           0       -6.827217   -4.064646    4.237158
    100          1           0       -7.792241   -5.189276    3.245469
    101          1           0       -8.435753   -3.589454    3.728391
    102          1           0        0.989365   -4.050588   -2.691055
    103          1           0        1.700155   -4.844928   -1.260739
    104          1           0        2.518910   -2.012384   -1.124782
    105          1           0        2.744642   -3.776361   -4.845511
    106          1           0        2.935069   -4.931513   -3.424498
    107          1           0        4.275165   -4.236142   -4.287975
    108          1           0        3.540021   -0.857653   -3.267755
    109          1           0        4.675585   -1.909404   -4.102944
    110          1           0        5.652756   -2.400021   -1.637005
    111          1           0        4.730175   -0.911237   -1.249592
    112          1           0        6.377985   -0.234628   -3.522645
    113          1           0        7.362659   -1.291647   -2.584797
    114          1           0        6.616420    0.243643   -0.514063
    115          1           0        6.143905    2.444266   -0.862828
    116          1           0        5.384070    1.846110   -2.319687
    117          1           0        7.027660    2.406096   -2.482190
    118          1           0        8.855895    1.542786   -1.760367
    119          1           0        9.002939   -0.107783   -1.858622
    120          1           0        8.981076   -0.755121    0.202253
    121          1           0        8.162725    0.468232    0.937650
    122          1           0        9.880328    1.752134    1.489115
    123          1           0       10.545279    1.681919   -0.178121
    124          1           0       11.321713   -0.741827    0.756202
    125          1           0       11.191977   -1.209172    2.624181
    126          1           0        9.955439    0.035321    2.830930
    127          1           0       11.723813    0.352420    3.283729
    128          1           0       13.195397    0.787203    2.013084
    129          1           0       12.583800    1.962482    0.942025
    130          1           0       13.736245    1.230779   -0.807842
    131          1           0       12.848277   -0.390616   -0.711982
    132          1           0       14.515895   -1.426888   -0.021382
    133          1           0       14.956885   -0.319722    1.303500
    134          1           0       15.713372    0.150046   -1.460566
    135          1           0       16.639182   -2.155967   -0.347977
    136          1           0       17.982441   -1.115198   -0.046667
    137          1           0       17.234498   -1.174527   -1.634226
    138          1           0       17.554391    1.443835    0.343319
    139          1           0       15.928540    1.663660    1.059969
    140          1           0       16.174499    2.070622   -0.640007
 ---------------------------------------------------------------------

 SCF Done:  E(RPBE1PBE) =  -3005.34218457     A.U. after   15 cycles

 Excitation energies and oscillator strengths:

 Excited State   1:      Singlet-A      1.8058 eV  686.60 nm  f=0.3494  <S**2>=0.000
     245 -> 248       -0.16610
     246 -> 247        0.69642
     246 <- 247       -0.11488
 This state for optimization and/or second-order correction.
 Total Energy, E(TD-HF/TD-DFT) =  -3005.27582360
 Copying the excited state density for this state as the 1-particle RhoCI density.

 Excited State   2:      Singlet-A      2.2159 eV  559.53 nm  f=0.1069  <S**2>=0.000
     245 -> 247        0.65107
     246 -> 248        0.26489

 Excited State   3:      Singlet-A      2.8411 eV  436.39 nm  f=0.0043  <S**2>=0.000
     243 -> 247        0.69980

 Excited State   4:      Singlet-A      2.9344 eV  422.52 nm  f=0.0000  <S**2>=0.000
     244 -> 247        0.70701

 Excited State   5:      Singlet-A      2.9703 eV  417.41 nm  f=0.0001  <S**2>=0.000
     242 -> 247        0.68669
     242 -> 250        0.10609

 The electronic state is 1-A.
 Alpha  occ. eigenvalues --  -46.92581 -19.26338 -19.24685 -19.20053 -19.19334
 Alpha  occ. eigenvalues --  -19.19235 -19.19172 -14.41978 -14.41954 -14.39108
 Alpha  occ. eigenvalues --  -14.39004 -10.36223 -10.36008 -10.33075 -10.32761
 Alpha  occ. eigenvalues --  -10.29711 -10.29395 -10.29096 -10.29069 -10.28906
 Alpha  occ. eigenvalues --  -10.28687 -10.27985 -10.27661 -10.26959 -10.26937
 Alpha  occ. eigenvalues --  -10.26626 -10.26523 -10.25977 -10.25956 -10.25841
 Alpha  occ. eigenvalues --  -10.25786 -10.25496 -10.25475 -10.25388 -10.25295
 Alpha  occ. eigenvalues --  -10.25077 -10.24986 -10.24966 -10.24888 -10.24707
 Alpha  occ. eigenvalues --  -10.24413 -10.24396 -10.24107 -10.23839 -10.23426
 Alpha  occ. eigenvalues --  -10.23402 -10.23358 -10.23283 -10.23184 -10.23075
 Alpha  occ. eigenvalues --  -10.23018 -10.23000 -10.22924 -10.22918 -10.22601
 Alpha  occ. eigenvalues --  -10.22314 -10.22308 -10.22148 -10.21905 -10.21681
 Alpha  occ. eigenvalues --  -10.21639 -10.21529 -10.21508 -10.21422 -10.21406
 Alpha  occ. eigenvalues --  -10.20838  -3.14595  -1.87417  -1.86943  -1.86839
 Alpha  occ. eigenvalues --   -1.11752  -1.10947  -1.06071  -1.05450  -1.02540
 Alpha  occ. eigenvalues --   -1.02369  -0.98773  -0.97895  -0.97241  -0.96617
 Alpha  occ. eigenvalues --   -0.87516  -0.84549  -0.83586  -0.83577  -0.83345
 Alpha  occ. eigenvalues --   -0.82729  -0.82442  -0.82168  -0.81566  -0.81426
 Alpha  occ. eigenvalues --   -0.80186  -0.79399  -0.79133  -0.78459  -0.77656
 Alpha  occ. eigenvalues --   -0.76671  -0.76294  -0.75695  -0.75201  -0.74554
 Alpha  occ. eigenvalues --   -0.73899  -0.72879  -0.72461  -0.71752  -0.71123
 Alpha  occ. eigenvalues --   -0.69995  -0.69893  -0.69660  -0.68623  -0.68158
 Alpha  occ. eigenvalues --   -0.67958  -0.67066  -0.66495  -0.64522  -0.63959
 Alpha  occ. eigenvalues --   -0.63253  -0.62392  -0.61263  -0.60986  -0.60265
 Alpha  occ. eigenvalues --   -0.59705  -0.59500  -0.59260  -0.58999  -0.58384
 Alpha  occ. eigenvalues --   -0.57546  -0.57096  -0.56971  -0.56336  -0.54691
 Alpha  occ. eigenvalues --   -0.54050  -0.53403  -0.53202  -0.52928  -0.52675
 Alpha  occ. eigenvalues --   -0.51971  -0.51430  -0.50924  -0.50564  -0.50085
 Alpha  occ. eigenvalues --   -0.49906  -0.49406  -0.49012  -0.48510  -0.48325
 Alpha  occ. eigenvalues --   -0.48205  -0.48135  -0.47805  -0.47624  -0.47454
 Alpha  occ. eigenvalues --   -0.47242  -0.47062  -0.46925  -0.46865  -0.46193
 Alpha  occ. eigenvalues --   -0.46091  -0.45884  -0.45620  -0.45462  -0.45242
 Alpha  occ. eigenvalues --   -0.45080  -0.44939  -0.44679  -0.44629  -0.44406
 Alpha  occ. eigenvalues --   -0.44357  -0.44271  -0.44253  -0.43834  -0.43815
 Alpha  occ. eigenvalues --   -0.43272  -0.43172  -0.42823  -0.42571  -0.42239
 Alpha  occ. eigenvalues --   -0.42153  -0.41959  -0.41794  -0.41584  -0.41372
 Alpha  occ. eigenvalues --   -0.41244  -0.41092  -0.40937  -0.40793  -0.40567
 Alpha  occ. eigenvalues --   -0.40514  -0.40386  -0.40103  -0.39986  -0.39728
 Alpha  occ. eigenvalues --   -0.39431  -0.39158  -0.38998  -0.38761  -0.38684
 Alpha  occ. eigenvalues --   -0.38519  -0.38276  -0.38130  -0.38052  -0.37856
 Alpha  occ. eigenvalues --   -0.37600  -0.37552  -0.37365  -0.37089  -0.37045
 Alpha  occ. eigenvalues --   -0.37003  -0.36677  -0.36655  -0.36632  -0.36088
 Alpha  occ. eigenvalues --   -0.35612  -0.35450  -0.35271  -0.35218  -0.35158
 Alpha  occ. eigenvalues --   -0.34632  -0.34358  -0.34081  -0.33709  -0.33195
 Alpha  occ. eigenvalues --   -0.33066  -0.32970  -0.32545  -0.32127  -0.32022
 Alpha  occ. eigenvalues --   -0.31871  -0.31773  -0.31627  -0.31444  -0.31003
 Alpha  occ. eigenvalues --   -0.30516  -0.30151  -0.29772  -0.29550  -0.29303
 Alpha  occ. eigenvalues --   -0.28759  -0.28642  -0.28461  -0.27069  -0.26260
 Alpha  occ. eigenvalues --   -0.26144  -0.25492  -0.25106  -0.23856  -0.21341
 Alpha  occ. eigenvalues --   -0.19047
 Alpha virt. eigenvalues --   -0.11659  -0.05444  -0.03728  -0.01987  -0.01455
 Alpha virt. eigenvalues --    0.00537   0.00774   0.01006   0.01981   0.02629
 Alpha virt. eigenvalues --    0.03757   0.04427   0.04775   0.05419   0.06075

 Mulliken charges:
               1
     1  Mg   0.956590
     2  C    0.054788
     3  C   -0.050986
     4  C   -0.085762
     5  C   -0.078623
     6  N   -0.431213
     7  C    0.044760
     8  C   -0.138383
     9  C   -0.134851
    10  C    0.065980
    11  C    0.017531
    12  C    0.037519
    13  C   -0.045904
    14  C    0.221694
    15  O   -0.244579
    16  O   -0.367586
    17  N   -0.473756
    18  C    0.173172
    19  C   -0.198608
    20  C   -0.098482
    21  C    0.208420
    22  C    0.087370
    23  C    0.050367
    24  O   -0.231923
    25  C   -0.013565
    26  N   -0.409449
    27  C    0.063011
    28  C   -0.153604
    29  C   -0.087106
    30  C    0.072379
    31  C    0.043748
    32  C   -0.019215
    33  C   -0.058813
    34  N   -0.462710
    35  C    0.141839
    36  C   -0.202255
    37  C   -0.014491
    38  C    0.088265
    39  C    0.053296
    40  C    0.136280
    41  O   -0.182154
    42  C   -0.122723
    43  C    0.257897
    44  O   -0.252882
    45  O   -0.363938
    46  C    0.115817
    47  C    0.225074
    48  C   -0.118052
    49  C   -0.251771
    50  C    0.000483
    51  C    0.002188
    52  C   -0.036640
    53  C    0.021700
    54  C   -0.228727
    55  C    0.014481
    56  C   -0.031510
    57  C   -0.065600
    58  C    0.037974
    59  C   -0.252603
    60  C    0.004843
    61  C    0.015327
    62  C   -0.030967
    63  C   -0.062726
    64  C   -0.248297
    65  C   -0.015674
    66  C   -0.005714
    67  H    0.008186
    68  H   -0.027306
    69  H    0.000083
    70  H    0.062590
    71  H    0.042139
    72  H    0.049932
    73  H    0.044221
    74  H    0.053059
    75  H    0.062739
    76  H    0.051899
    77  H    0.073864
    78  H    0.070021
    79  H    0.054287
    80  H    0.032960
    81  H    0.068106
    82  H    0.067881
    83  H    0.072197
    84  H    0.063897
    85  H    0.060893
    86  H    0.051153
    87  H    0.055259
    88  H    0.037421
    89  H    0.034839
    90  H    0.047879
    91  H    0.036370
    92  H    0.036822
    93  H    0.057639
    94  H    0.043103
    95  H    0.053594
    96  H    0.052581
    97  H    0.051878
    98  H    0.085334
    99  H    0.054171
   100  H    0.081472
   101  H    0.062243
   102  H    0.053535
   103  H    0.073235
   104  H    0.028120
   105  H    0.057307
   106  H    0.050991
   107  H    0.040893
   108  H    0.050259
   109  H    0.017261
   110  H    0.040547
   111  H    0.045032
   112  H    0.025362
   113  H    0.022037
   114  H    0.034209
   115  H    0.045132
   116  H    0.023428
   117  H    0.034945
   118  H    0.020885
   119  H    0.019299
   120  H    0.025177
   121  H    0.023975
   122  H    0.031160
   123  H    0.026281
   124  H    0.023629
   125  H    0.025507
   126  H    0.029202
   127  H    0.033947
   128  H    0.022209
   129  H    0.015732
   130  H    0.034312
   131  H    0.042877
   132  H    0.015221
   133  H    0.032771
   134  H    0.029865
   135  H    0.028492
   136  H    0.032565
   137  H    0.029888
   138  H    0.040699
   139  H    0.040351
   140  H    0.039305
 Sum of Mulliken charges =  -0.00000

 Dipole moment (field-independent basis, Debye):
    X=             -1.7918    Y=              6.2776    Z=             -0.9272  Tot=              6.5938
 Quadrupole moment (field-independent basis, Debye-Ang):
   XX=           -380.7204   YY=           -437.9968   ZZ=           -377.4896
   XY=            -53.9595   XZ=            -17.4772   YZ=            -28.2808

 Normal termination of Gaussian 16 at Thu May  5 09:37:04 2022.
