 Gaussian 16, Revision A.03,
 Gaussian 16:  ES64L-G16RevA.03 25-Dec-2016

 --------------------------------
 #p wB97XD/Def2SVP td=(nstates=5)
 --------------------------------

 ---------------------------------------------------
 step_801_chromophore_2 TDDFT with wB97XD functional
 ---------------------------------------------------
 Symbolic Z-matrix:
 Charge =  0 Multiplicity = 1

                         Standard orientation:
 ---------------------------------------------------------------------
 Center     Atomic      Atomic             Coordinates (Angstroms)
 Number     Number       Type             X           Y           Z
 ---------------------------------------------------------------------
      1         12           0       -4.751689    1.162126    0.646911
      2          6           0       -5.170840   -2.301536    0.457201
      3          6           0       -2.391871    0.689741    3.148317
      4          6           0       -3.761883    4.449861    0.335484
      5          6           0       -6.650484    1.428251   -2.330541
      6          7           0       -3.897246   -0.564975    1.611104
      7          6           0       -4.169230   -1.898834    1.332194
      8          6           0       -3.545986   -2.820862    2.372511
      9          6           0       -2.925304   -1.760674    3.435186
     10          6           0       -3.094810   -0.454945    2.743948
     11          6           0       -3.552947   -1.740658    4.866415
     12          6           0       -2.451541   -3.822053    1.716021
     13          6           0       -1.835018   -3.461823    0.354886
     14          6           0       -0.593963   -4.177810   -0.156036
     15          8           0       -0.329391   -5.341804    0.004379
     16          8           0        0.174967   -3.367518   -0.962826
     17          7           0       -3.390368    2.480012    1.679264
     18          6           0       -2.511581    2.055833    2.646368
     19          6           0       -1.695561    3.157644    3.035390
     20          6           0       -2.121853    4.274028    2.259475
     21          6           0       -3.158588    3.800737    1.386791
     22          6           0       -0.627381    3.114781    4.180653
     23          6           0       -1.450089    5.726900    2.241457
     24          8           0       -0.530734    5.942091    3.003198
     25          6           0       -2.004869    6.940091    1.513366
     26          7           0       -4.973589    2.677637   -0.888840
     27          6           0       -4.597561    3.988029   -0.684823
     28          6           0       -5.106662    4.810594   -1.837619
     29          6           0       -6.214840    3.957055   -2.565201
     30          6           0       -5.932535    2.596598   -1.921612
     31          6           0       -5.497790    6.233955   -1.603834
     32          6           0       -6.262339    4.042287   -4.175765
     33          6           0       -7.621648    4.216365   -4.762214
     34          7           0       -5.681440   -0.082927   -0.745202
     35          6           0       -6.541697    0.150036   -1.801923
     36          6           0       -7.219980   -1.037939   -2.186289
     37          6           0       -6.672814   -2.065699   -1.433051
     38          6           0       -5.801467   -1.422504   -0.529136
     39          6           0       -8.156503   -1.174535   -3.329140
     40          6           0       -6.670868   -3.502330   -1.092537
     41          8           0       -7.196666   -4.430726   -1.659793
     42          6           0       -5.746106   -3.638404    0.157402
     43          6           0       -6.371916   -4.311797    1.315778
     44          8           0       -6.290528   -5.518959    1.468124
     45          8           0       -6.994297   -3.504924    2.202901
     46          6           0       -7.547699   -4.142312    3.423589
     47          6           0        1.304200   -3.909874   -1.656597
     48          6           0        2.442689   -2.870272   -1.792668
     49          6           0        3.225281   -2.858701   -2.928380
     50          6           0        3.271525   -4.022226   -3.922434
     51          6           0        4.207644   -1.709131   -3.139100
     52          6           0        5.274013   -1.453865   -2.022352
     53          6           0        6.497576   -0.632432   -2.515368
     54          6           0        6.902642    0.527236   -1.527309
     55          6           0        6.337433    1.915304   -1.796293
     56          6           0        8.439596    0.644025   -1.305964
     57          6           0        8.944127    0.333909    0.188957
     58          6           0       10.166542    1.101488    0.662643
     59          6           0       11.294245    0.258363    1.189758
     60          6           0       11.010858   -0.135025    2.618845
     61          6           0       12.648504    0.882117    1.074244
     62          6           0       13.413415    0.386256   -0.198938
     63          6           0       14.696510   -0.386405    0.246851
     64          6           0       16.028340    0.015790   -0.425393
     65          6           0       17.024272   -1.159592   -0.564507
     66          6           0       16.481426    1.395486    0.159180
     67          1           0       -1.756531    0.456524    4.004880
     68          1           0       -3.510304    5.501404    0.180739
     69          1           0       -7.380566    1.543990   -3.134503
     70          1           0       -4.396085   -3.349883    2.804130
     71          1           0       -1.874141   -2.005446    3.583798
     72          1           0       -4.612982   -1.565818    4.681377
     73          1           0       -2.975210   -0.941589    5.331579
     74          1           0       -3.411478   -2.675691    5.408009
     75          1           0       -3.095780   -4.699545    1.643780
     76          1           0       -1.675747   -3.995889    2.462640
     77          1           0       -1.767251   -2.393863    0.150525
     78          1           0       -2.515943   -3.808468   -0.421257
     79          1           0        0.327658    3.112612    3.654874
     80          1           0       -0.670757    2.188744    4.753129
     81          1           0       -0.651654    4.045124    4.747914
     82          1           0       -3.089063    6.986584    1.613512
     83          1           0       -1.635738    6.707021    0.514498
     84          1           0       -1.651664    7.866254    1.967168
     85          1           0       -4.148122    4.869836   -2.353890
     86          1           0       -7.146759    4.243393   -2.076035
     87          1           0       -5.787604    6.419125   -0.570376
     88          1           0       -6.277143    6.474400   -2.326693
     89          1           0       -4.630648    6.781500   -1.973425
     90          1           0       -5.679839    3.190579   -4.525753
     91          1           0       -5.693671    4.897442   -4.541447
     92          1           0       -8.325149    4.477795   -3.971188
     93          1           0       -7.865888    3.270824   -5.244778
     94          1           0       -7.714798    5.082336   -5.416342
     95          1           0       -7.737609   -0.910308   -4.299909
     96          1           0       -9.056363   -0.609557   -3.088492
     97          1           0       -8.425221   -2.209563   -3.539166
     98          1           0       -5.127589   -4.396867   -0.322836
     99          1           0       -6.827217   -4.064646    4.237158
    100          1           0       -7.792241   -5.189276    3.245469
    101          1           0       -8.435753   -3.589454    3.728391
    102          1           0        0.989365   -4.050588   -2.691055
    103          1           0        1.700155   -4.844928   -1.260739
    104          1           0        2.518910   -2.012384   -1.124782
    105          1           0        2.744642   -3.776361   -4.845511
    106          1           0        2.935069   -4.931513   -3.424498
    107          1           0        4.275165   -4.236142   -4.287975
    108          1           0        3.540021   -0.857653   -3.267755
    109          1           0        4.675585   -1.909404   -4.102944
    110          1           0        5.652756   -2.400021   -1.637005
    111          1           0        4.730175   -0.911237   -1.249592
    112          1           0        6.377985   -0.234628   -3.522645
    113          1           0        7.362659   -1.291647   -2.584797
    114          1           0        6.616420    0.243643   -0.514063
    115          1           0        6.143905    2.444266   -0.862828
    116          1           0        5.384070    1.846110   -2.319687
    117          1           0        7.027660    2.406096   -2.482190
    118          1           0        8.855895    1.542786   -1.760367
    119          1           0        9.002939   -0.107783   -1.858622
    120          1           0        8.981076   -0.755121    0.202253
    121          1           0        8.162725    0.468232    0.937650
    122          1           0        9.880328    1.752134    1.489115
    123          1           0       10.545279    1.681919   -0.178121
    124          1           0       11.321713   -0.741827    0.756202
    125          1           0       11.191977   -1.209172    2.624181
    126          1           0        9.955439    0.035321    2.830930
    127          1           0       11.723813    0.352420    3.283729
    128          1           0       13.195397    0.787203    2.013084
    129          1           0       12.583800    1.962482    0.942025
    130          1           0       13.736245    1.230779   -0.807842
    131          1           0       12.848277   -0.390616   -0.711982
    132          1           0       14.515895   -1.426888   -0.021382
    133          1           0       14.956885   -0.319722    1.303500
    134          1           0       15.713372    0.150046   -1.460566
    135          1           0       16.639182   -2.155967   -0.347977
    136          1           0       17.982441   -1.115198   -0.046667
    137          1           0       17.234498   -1.174527   -1.634226
    138          1           0       17.554391    1.443835    0.343319
    139          1           0       15.928540    1.663660    1.059969
    140          1           0       16.174499    2.070622   -0.640007
 ---------------------------------------------------------------------

 SCF Done:  E(RwB97XD) =  -3007.84955385     A.U. after   19 cycles

 Excitation energies and oscillator strengths:

 Excited State   1:      Singlet-A      1.5847 eV  782.36 nm  f=0.3632  <S**2>=0.000
     245 -> 248       -0.17646
     246 -> 247        0.68681
     245 <- 248       -0.11878
 This state for optimization and/or second-order correction.
 Total Energy, E(TD-HF/TD-DFT) =  -3007.79131571
 Copying the excited state density for this state as the 1-particle RhoCI density.

 Excited State   2:      Singlet-A      2.1442 eV  578.23 nm  f=0.1098  <S**2>=0.000
     245 -> 247        0.64002
     246 -> 248        0.28773

 Excited State   3:      Singlet-A      3.1886 eV  388.84 nm  f=0.0014  <S**2>=0.000
     243 -> 247        0.68694

 Excited State   4:      Singlet-A      3.4887 eV  355.39 nm  f=0.1279  <S**2>=0.000
     241 -> 247       -0.14098
     242 -> 247        0.54679
     245 -> 247       -0.11877
     246 -> 248        0.38544

 Excited State   5:      Singlet-A      3.6107 eV  343.38 nm  f=0.0428  <S**2>=0.000
     241 -> 247        0.50368
     241 -> 248       -0.11423
     241 -> 249       -0.21473
     241 -> 251        0.27054
     242 -> 247        0.20423
     246 -> 248       -0.13452

 The electronic state is 1-A.
 Alpha  occ. eigenvalues --  -46.95548 -19.30899 -19.29226 -19.24785 -19.24065
 Alpha  occ. eigenvalues --  -19.24014 -19.23907 -14.47138 -14.46959 -14.44148
 Alpha  occ. eigenvalues --  -14.43895 -10.43033 -10.42792 -10.39862 -10.39630
 Alpha  occ. eigenvalues --  -10.36210 -10.35543 -10.35457 -10.35336 -10.35319
 Alpha  occ. eigenvalues --  -10.35156 -10.34504 -10.34166 -10.33195 -10.33098
 Alpha  occ. eigenvalues --  -10.32848 -10.32706 -10.32341 -10.32331 -10.32200
 Alpha  occ. eigenvalues --  -10.32039 -10.31865 -10.31745 -10.31715 -10.31632
 Alpha  occ. eigenvalues --  -10.31490 -10.31440 -10.31400 -10.31288 -10.31285
 Alpha  occ. eigenvalues --  -10.30815 -10.30733 -10.30721 -10.30271 -10.29902
 Alpha  occ. eigenvalues --  -10.29810 -10.29806 -10.29718 -10.29460 -10.29393
 Alpha  occ. eigenvalues --  -10.29357 -10.29298 -10.29296 -10.29193 -10.28974
 Alpha  occ. eigenvalues --  -10.28681 -10.28674 -10.28491 -10.28329 -10.28126
 Alpha  occ. eigenvalues --  -10.28024 -10.27946 -10.27864 -10.27751 -10.27705
 Alpha  occ. eigenvalues --  -10.27260  -3.21437  -1.95004  -1.94530  -1.94425
 Alpha  occ. eigenvalues --   -1.19131  -1.18301  -1.13470  -1.12995  -1.09861
 Alpha  occ. eigenvalues --   -1.09715  -1.06091  -1.05353  -1.04669  -1.04043
 Alpha  occ. eigenvalues --   -0.95091  -0.92194  -0.91256  -0.91184  -0.90993
 Alpha  occ. eigenvalues --   -0.90362  -0.90032  -0.89828  -0.89221  -0.88983
 Alpha  occ. eigenvalues --   -0.87844  -0.87115  -0.86751  -0.86099  -0.85319
 Alpha  occ. eigenvalues --   -0.84368  -0.83992  -0.83408  -0.82823  -0.82184
 Alpha  occ. eigenvalues --   -0.81551  -0.80455  -0.80077  -0.79400  -0.78756
 Alpha  occ. eigenvalues --   -0.77676  -0.77589  -0.77293  -0.76296  -0.75813
 Alpha  occ. eigenvalues --   -0.75512  -0.74649  -0.74048  -0.72119  -0.71527
 Alpha  occ. eigenvalues --   -0.70761  -0.70022  -0.68827  -0.68608  -0.67813
 Alpha  occ. eigenvalues --   -0.67340  -0.66957  -0.66788  -0.66437  -0.65798
 Alpha  occ. eigenvalues --   -0.65199  -0.64643  -0.64543  -0.63977  -0.62134
 Alpha  occ. eigenvalues --   -0.61453  -0.60820  -0.60662  -0.60332  -0.60104
 Alpha  occ. eigenvalues --   -0.59460  -0.58869  -0.58348  -0.58011  -0.57526
 Alpha  occ. eigenvalues --   -0.57310  -0.56883  -0.56426  -0.55823  -0.55699
 Alpha  occ. eigenvalues --   -0.55609  -0.55528  -0.55219  -0.55011  -0.54872
 Alpha  occ. eigenvalues --   -0.54655  -0.54437  -0.54301  -0.54262  -0.53519
 Alpha  occ. eigenvalues --   -0.53427  -0.53208  -0.52954  -0.52849  -0.52508
 Alpha  occ. eigenvalues --   -0.52372  -0.52272  -0.52045  -0.51954  -0.51887
 Alpha  occ. eigenvalues --   -0.51697  -0.51588  -0.51525  -0.51197  -0.51144
 Alpha  occ. eigenvalues --   -0.50597  -0.50559  -0.50062  -0.49820  -0.49475
 Alpha  occ. eigenvalues --   -0.49371  -0.49271  -0.49054  -0.48821  -0.48635
 Alpha  occ. eigenvalues --   -0.48415  -0.48354  -0.48222  -0.47960  -0.47810
 Alpha  occ. eigenvalues --   -0.47749  -0.47592  -0.47264  -0.47197  -0.46977
 Alpha  occ. eigenvalues --   -0.46548  -0.46342  -0.46177  -0.45981  -0.45844
 Alpha  occ. eigenvalues --   -0.45678  -0.45406  -0.45260  -0.45140  -0.44986
 Alpha  occ. eigenvalues --   -0.44750  -0.44714  -0.44470  -0.44217  -0.44178
 Alpha  occ. eigenvalues --   -0.44137  -0.43764  -0.43710  -0.43638  -0.43179
 Alpha  occ. eigenvalues --   -0.42602  -0.42430  -0.42325  -0.42293  -0.42225
 Alpha  occ. eigenvalues --   -0.41713  -0.41432  -0.41115  -0.40642  -0.40257
 Alpha  occ. eigenvalues --   -0.40040  -0.39910  -0.39591  -0.39083  -0.39075
 Alpha  occ. eigenvalues --   -0.38939  -0.38728  -0.38666  -0.38459  -0.38071
 Alpha  occ. eigenvalues --   -0.37509  -0.37184  -0.36613  -0.36428  -0.36285
 Alpha  occ. eigenvalues --   -0.35593  -0.35523  -0.35511  -0.33609  -0.33249
 Alpha  occ. eigenvalues --   -0.32725  -0.32625  -0.31819  -0.30590  -0.26347
 Alpha  occ. eigenvalues --   -0.23215
 Alpha virt. eigenvalues --   -0.07599  -0.00055   0.02650   0.04446   0.04594
 Alpha virt. eigenvalues --    0.07299   0.07525   0.07714   0.08872   0.09312
 Alpha virt. eigenvalues --    0.10357   0.11155   0.11443   0.12077   0.12812

 Mulliken charges:
               1
     1  Mg   0.947534
     2  C    0.052355
     3  C   -0.072835
     4  C   -0.091156
     5  C   -0.091703
     6  N   -0.399220
     7  C    0.012282
     8  C   -0.109942
     9  C   -0.110482
    10  C    0.056424
    11  C    0.030420
    12  C    0.044510
    13  C   -0.022437
    14  C    0.210351
    15  O   -0.241607
    16  O   -0.365595
    17  N   -0.439249
    18  C    0.166900
    19  C   -0.190938
    20  C   -0.093533
    21  C    0.205077
    22  C    0.100859
    23  C    0.043783
    24  O   -0.227695
    25  C    0.002400
    26  N   -0.377547
    27  C    0.045657
    28  C   -0.128438
    29  C   -0.054252
    30  C    0.055508
    31  C    0.053908
    32  C   -0.006725
    33  C   -0.043342
    34  N   -0.427072
    35  C    0.134391
    36  C   -0.194656
    37  C   -0.015440
    38  C    0.076754
    39  C    0.059977
    40  C    0.118010
    41  O   -0.173218
    42  C   -0.089237
    43  C    0.235364
    44  O   -0.247249
    45  O   -0.362178
    46  C    0.131694
    47  C    0.240214
    48  C   -0.130591
    49  C   -0.239311
    50  C    0.014251
    51  C    0.020395
    52  C   -0.017042
    53  C    0.033649
    54  C   -0.196061
    55  C    0.027244
    56  C   -0.018673
    57  C   -0.051817
    58  C    0.059474
    59  C   -0.221208
    60  C    0.015553
    61  C    0.029510
    62  C   -0.014270
    63  C   -0.044845
    64  C   -0.217752
    65  C   -0.006089
    66  C    0.006147
    67  H   -0.000269
    68  H   -0.044103
    69  H   -0.006933
    70  H    0.045193
    71  H    0.032889
    72  H    0.042707
    73  H    0.036940
    74  H    0.048549
    75  H    0.055614
    76  H    0.045260
    77  H    0.066407
    78  H    0.060117
    79  H    0.049631
    80  H    0.028592
    81  H    0.064317
    82  H    0.062209
    83  H    0.066714
    84  H    0.063493
    85  H    0.048446
    86  H    0.036597
    87  H    0.049823
    88  H    0.030705
    89  H    0.029788
    90  H    0.040422
    91  H    0.028681
    92  H    0.029628
    93  H    0.052319
    94  H    0.038506
    95  H    0.048699
    96  H    0.047309
    97  H    0.048936
    98  H    0.077664
    99  H    0.049965
   100  H    0.077906
   101  H    0.058662
   102  H    0.046024
   103  H    0.069175
   104  H    0.025684
   105  H    0.052262
   106  H    0.045228
   107  H    0.035645
   108  H    0.042066
   109  H    0.008487
   110  H    0.033194
   111  H    0.034425
   112  H    0.017484
   113  H    0.013752
   114  H    0.017308
   115  H    0.040085
   116  H    0.016672
   117  H    0.027869
   118  H    0.011546
   119  H    0.009455
   120  H    0.016455
   121  H    0.014919
   122  H    0.021983
   123  H    0.014754
   124  H    0.007969
   125  H    0.020335
   126  H    0.022158
   127  H    0.027984
   128  H    0.011174
   129  H    0.007705
   130  H    0.025825
   131  H    0.034223
   132  H    0.006162
   133  H    0.020694
   134  H    0.016521
   135  H    0.022900
   136  H    0.027350
   137  H    0.024026
   138  H    0.035897
   139  H    0.032913
   140  H    0.033119
 Sum of Mulliken charges =  -0.00000

 Dipole moment (field-independent basis, Debye):
    X=             -1.7212    Y=              6.5173    Z=             -0.7517  Tot=              6.7825
 Quadrupole moment (field-independent basis, Debye-Ang):
   XX=           -380.8927   YY=           -437.1059   ZZ=           -377.0936
   XY=            -54.3039   XZ=            -18.2863   YZ=            -27.6975

 Normal termination of Gaussian 16 at Thu May  5 10:05:16 2022.
