 Gaussian 16, Revision A.03,
 Gaussian 16:  ES64L-G16RevA.03 25-Dec-2016

 --------------------
 #p ZINDO=(nstates=5)
 --------------------

 ----------------------------
 step_801_chromophore_2 ZINDO
 ----------------------------
 Symbolic Z-matrix:
 Charge =  0 Multiplicity = 1

                         Standard orientation:
 ---------------------------------------------------------------------
 Center     Atomic      Atomic             Coordinates (Angstroms)
 Number     Number       Type             X           Y           Z
 ---------------------------------------------------------------------
      1         12           0       -4.751689    1.162126    0.646911
      2          6           0       -5.170840   -2.301536    0.457201
      3          6           0       -2.391871    0.689741    3.148317
      4          6           0       -3.761883    4.449861    0.335484
      5          6           0       -6.650484    1.428251   -2.330541
      6          7           0       -3.897246   -0.564975    1.611104
      7          6           0       -4.169230   -1.898834    1.332194
      8          6           0       -3.545986   -2.820862    2.372511
      9          6           0       -2.925304   -1.760674    3.435186
     10          6           0       -3.094810   -0.454945    2.743948
     11          6           0       -3.552947   -1.740658    4.866415
     12          6           0       -2.451541   -3.822053    1.716021
     13          6           0       -1.835018   -3.461823    0.354886
     14          6           0       -0.593963   -4.177810   -0.156036
     15          8           0       -0.329391   -5.341804    0.004379
     16          8           0        0.174967   -3.367518   -0.962826
     17          7           0       -3.390368    2.480012    1.679264
     18          6           0       -2.511581    2.055833    2.646368
     19          6           0       -1.695561    3.157644    3.035390
     20          6           0       -2.121853    4.274028    2.259475
     21          6           0       -3.158588    3.800737    1.386791
     22          6           0       -0.627381    3.114781    4.180653
     23          6           0       -1.450089    5.726900    2.241457
     24          8           0       -0.530734    5.942091    3.003198
     25          6           0       -2.004869    6.940091    1.513366
     26          7           0       -4.973589    2.677637   -0.888840
     27          6           0       -4.597561    3.988029   -0.684823
     28          6           0       -5.106662    4.810594   -1.837619
     29          6           0       -6.214840    3.957055   -2.565201
     30          6           0       -5.932535    2.596598   -1.921612
     31          6           0       -5.497790    6.233955   -1.603834
     32          6           0       -6.262339    4.042287   -4.175765
     33          6           0       -7.621648    4.216365   -4.762214
     34          7           0       -5.681440   -0.082927   -0.745202
     35          6           0       -6.541697    0.150036   -1.801923
     36          6           0       -7.219980   -1.037939   -2.186289
     37          6           0       -6.672814   -2.065699   -1.433051
     38          6           0       -5.801467   -1.422504   -0.529136
     39          6           0       -8.156503   -1.174535   -3.329140
     40          6           0       -6.670868   -3.502330   -1.092537
     41          8           0       -7.196666   -4.430726   -1.659793
     42          6           0       -5.746106   -3.638404    0.157402
     43          6           0       -6.371916   -4.311797    1.315778
     44          8           0       -6.290528   -5.518959    1.468124
     45          8           0       -6.994297   -3.504924    2.202901
     46          6           0       -7.547699   -4.142312    3.423589
     47          6           0        1.304200   -3.909874   -1.656597
     48          6           0        2.442689   -2.870272   -1.792668
     49          6           0        3.225281   -2.858701   -2.928380
     50          6           0        3.271525   -4.022226   -3.922434
     51          6           0        4.207644   -1.709131   -3.139100
     52          6           0        5.274013   -1.453865   -2.022352
     53          6           0        6.497576   -0.632432   -2.515368
     54          6           0        6.902642    0.527236   -1.527309
     55          6           0        6.337433    1.915304   -1.796293
     56          6           0        8.439596    0.644025   -1.305964
     57          6           0        8.944127    0.333909    0.188957
     58          6           0       10.166542    1.101488    0.662643
     59          6           0       11.294245    0.258363    1.189758
     60          6           0       11.010858   -0.135025    2.618845
     61          6           0       12.648504    0.882117    1.074244
     62          6           0       13.413415    0.386256   -0.198938
     63          6           0       14.696510   -0.386405    0.246851
     64          6           0       16.028340    0.015790   -0.425393
     65          6           0       17.024272   -1.159592   -0.564507
     66          6           0       16.481426    1.395486    0.159180
     67          1           0       -1.756531    0.456524    4.004880
     68          1           0       -3.510304    5.501404    0.180739
     69          1           0       -7.380566    1.543990   -3.134503
     70          1           0       -4.396085   -3.349883    2.804130
     71          1           0       -1.874141   -2.005446    3.583798
     72          1           0       -4.612982   -1.565818    4.681377
     73          1           0       -2.975210   -0.941589    5.331579
     74          1           0       -3.411478   -2.675691    5.408009
     75          1           0       -3.095780   -4.699545    1.643780
     76          1           0       -1.675747   -3.995889    2.462640
     77          1           0       -1.767251   -2.393863    0.150525
     78          1           0       -2.515943   -3.808468   -0.421257
     79          1           0        0.327658    3.112612    3.654874
     80          1           0       -0.670757    2.188744    4.753129
     81          1           0       -0.651654    4.045124    4.747914
     82          1           0       -3.089063    6.986584    1.613512
     83          1           0       -1.635738    6.707021    0.514498
     84          1           0       -1.651664    7.866254    1.967168
     85          1           0       -4.148122    4.869836   -2.353890
     86          1           0       -7.146759    4.243393   -2.076035
     87          1           0       -5.787604    6.419125   -0.570376
     88          1           0       -6.277143    6.474400   -2.326693
     89          1           0       -4.630648    6.781500   -1.973425
     90          1           0       -5.679839    3.190579   -4.525753
     91          1           0       -5.693671    4.897442   -4.541447
     92          1           0       -8.325149    4.477795   -3.971188
     93          1           0       -7.865888    3.270824   -5.244778
     94          1           0       -7.714798    5.082336   -5.416342
     95          1           0       -7.737609   -0.910308   -4.299909
     96          1           0       -9.056363   -0.609557   -3.088492
     97          1           0       -8.425221   -2.209563   -3.539166
     98          1           0       -5.127589   -4.396867   -0.322836
     99          1           0       -6.827217   -4.064646    4.237158
    100          1           0       -7.792241   -5.189276    3.245469
    101          1           0       -8.435753   -3.589454    3.728391
    102          1           0        0.989365   -4.050588   -2.691055
    103          1           0        1.700155   -4.844928   -1.260739
    104          1           0        2.518910   -2.012384   -1.124782
    105          1           0        2.744642   -3.776361   -4.845511
    106          1           0        2.935069   -4.931513   -3.424498
    107          1           0        4.275165   -4.236142   -4.287975
    108          1           0        3.540021   -0.857653   -3.267755
    109          1           0        4.675585   -1.909404   -4.102944
    110          1           0        5.652756   -2.400021   -1.637005
    111          1           0        4.730175   -0.911237   -1.249592
    112          1           0        6.377985   -0.234628   -3.522645
    113          1           0        7.362659   -1.291647   -2.584797
    114          1           0        6.616420    0.243643   -0.514063
    115          1           0        6.143905    2.444266   -0.862828
    116          1           0        5.384070    1.846110   -2.319687
    117          1           0        7.027660    2.406096   -2.482190
    118          1           0        8.855895    1.542786   -1.760367
    119          1           0        9.002939   -0.107783   -1.858622
    120          1           0        8.981076   -0.755121    0.202253
    121          1           0        8.162725    0.468232    0.937650
    122          1           0        9.880328    1.752134    1.489115
    123          1           0       10.545279    1.681919   -0.178121
    124          1           0       11.321713   -0.741827    0.756202
    125          1           0       11.191977   -1.209172    2.624181
    126          1           0        9.955439    0.035321    2.830930
    127          1           0       11.723813    0.352420    3.283729
    128          1           0       13.195397    0.787203    2.013084
    129          1           0       12.583800    1.962482    0.942025
    130          1           0       13.736245    1.230779   -0.807842
    131          1           0       12.848277   -0.390616   -0.711982
    132          1           0       14.515895   -1.426888   -0.021382
    133          1           0       14.956885   -0.319722    1.303500
    134          1           0       15.713372    0.150046   -1.460566
    135          1           0       16.639182   -2.155967   -0.347977
    136          1           0       17.982441   -1.115198   -0.046667
    137          1           0       17.234498   -1.174527   -1.634226
    138          1           0       17.554391    1.443835    0.343319
    139          1           0       15.928540    1.663660    1.059969
    140          1           0       16.174499    2.070622   -0.640007
 ---------------------------------------------------------------------

 SCF Done:  E(RZINDO/S) =  -474.274906812     A.U. after   20 cycles

 Excitation energies and oscillator strengths:

 Excited State   1:      Singlet-A      1.2153 eV 1020.22 nm  f=0.5956  <S**2>=0.000
     175 ->178        -0.18344
     176 ->177         0.66554
 This state for optimization and/or second-order correction.
 Total Energy, E(CIS/TDA) =  -474.230246625
 Copying the excited state density for this state as the 1-particle RhoCI density.

 Excited State   2:      Singlet-A      1.9166 eV  646.91 nm  f=0.0523  <S**2>=0.000
     175 ->177         0.55764
     176 ->178         0.41069

 Excited State   3:      Singlet-A      2.9600 eV  418.86 nm  f=0.0029  <S**2>=0.000
     168 ->177         0.27478
     168 ->178         0.14489
     168 ->179         0.32158
     168 ->181        -0.39312
     168 ->185        -0.24200
     168 ->188         0.12489

 Excited State   4:      Singlet-A      3.0224 eV  410.21 nm  f=0.6919  <S**2>=0.000
     171 ->177         0.13119
     175 ->177        -0.29493
     176 ->178         0.41223
     176 ->179        -0.16989
     176 ->180         0.38269

 Excited State   5:      Singlet-A      3.0638 eV  404.68 nm  f=0.1075  <S**2>=0.000
     170 ->177         0.14804
     170 ->179        -0.19258
     170 ->181        -0.13987
     172 ->177         0.15094
     175 ->177         0.12495
     176 ->178        -0.17259
     176 ->179         0.12741
     176 ->180         0.50104

 The electronic state is 1-A.
 Alpha  occ. eigenvalues --   -1.84299  -1.80818  -1.79091  -1.73093  -1.72844
 Alpha  occ. eigenvalues --   -1.70755  -1.66726  -1.59900  -1.59814  -1.59760
 Alpha  occ. eigenvalues --   -1.55675  -1.52030  -1.48073  -1.47772  -1.47114
 Alpha  occ. eigenvalues --   -1.45558  -1.42340  -1.41336  -1.39199  -1.37830
 Alpha  occ. eigenvalues --   -1.36798  -1.34648  -1.32799  -1.30461  -1.28620
 Alpha  occ. eigenvalues --   -1.27345  -1.27024  -1.23204  -1.20620  -1.18062
 Alpha  occ. eigenvalues --   -1.17344  -1.16213  -1.15649  -1.13851  -1.12712
 Alpha  occ. eigenvalues --   -1.12362  -1.10962  -1.09751  -1.06192  -1.05293
 Alpha  occ. eigenvalues --   -1.02774  -1.00898  -0.98789  -0.98153  -0.97176
 Alpha  occ. eigenvalues --   -0.95875  -0.94795  -0.93426  -0.92216  -0.91582
 Alpha  occ. eigenvalues --   -0.90936  -0.90097  -0.89525  -0.88222  -0.87196
 Alpha  occ. eigenvalues --   -0.85228  -0.84339  -0.83663  -0.83106  -0.79730
 Alpha  occ. eigenvalues --   -0.78831  -0.77738  -0.77155  -0.76337  -0.76194
 Alpha  occ. eigenvalues --   -0.75879  -0.75471  -0.73944  -0.73343  -0.73175
 Alpha  occ. eigenvalues --   -0.72889  -0.72861  -0.71719  -0.71565  -0.70592
 Alpha  occ. eigenvalues --   -0.70446  -0.69425  -0.68542  -0.68287  -0.67719
 Alpha  occ. eigenvalues --   -0.67439  -0.66989  -0.66647  -0.66384  -0.65869
 Alpha  occ. eigenvalues --   -0.65316  -0.65120  -0.64826  -0.64056  -0.63496
 Alpha  occ. eigenvalues --   -0.63011  -0.62666  -0.62581  -0.62330  -0.62219
 Alpha  occ. eigenvalues --   -0.62090  -0.61510  -0.61234  -0.60477  -0.60308
 Alpha  occ. eigenvalues --   -0.59866  -0.59426  -0.59297  -0.59132  -0.58784
 Alpha  occ. eigenvalues --   -0.58394  -0.57903  -0.56972  -0.56741  -0.56189
 Alpha  occ. eigenvalues --   -0.55915  -0.55686  -0.55477  -0.55383  -0.54794
 Alpha  occ. eigenvalues --   -0.54381  -0.54010  -0.53617  -0.53401  -0.53330
 Alpha  occ. eigenvalues --   -0.53162  -0.52920  -0.52480  -0.52194  -0.51798
 Alpha  occ. eigenvalues --   -0.51528  -0.51348  -0.50812  -0.50697  -0.50400
 Alpha  occ. eigenvalues --   -0.50066  -0.49954  -0.49885  -0.49412  -0.49091
 Alpha  occ. eigenvalues --   -0.48608  -0.48496  -0.48280  -0.48226  -0.47821
 Alpha  occ. eigenvalues --   -0.47747  -0.47392  -0.46968  -0.46690  -0.46107
 Alpha  occ. eigenvalues --   -0.45860  -0.45825  -0.45631  -0.45243  -0.45091
 Alpha  occ. eigenvalues --   -0.44664  -0.44424  -0.44250  -0.44112  -0.43858
 Alpha  occ. eigenvalues --   -0.43419  -0.43074  -0.43068  -0.42480  -0.42343
 Alpha  occ. eigenvalues --   -0.41813  -0.41333  -0.40971  -0.39243  -0.38453
 Alpha  occ. eigenvalues --   -0.37980  -0.37714  -0.35583  -0.35232  -0.34903
 Alpha  occ. eigenvalues --   -0.33649  -0.33087  -0.32761  -0.31201  -0.27155
 Alpha  occ. eigenvalues --   -0.22153
 Alpha virt. eigenvalues --   -0.09102  -0.02330  -0.00289   0.00640   0.01301
 Alpha virt. eigenvalues --    0.02314   0.02714   0.02913   0.04276   0.04482
 Alpha virt. eigenvalues --    0.05738   0.06671   0.07268   0.07612   0.07932

 Mulliken charges:
               1
     1  Mg   0.430540
     2  C   -0.056116
     3  C   -0.092896
     4  C   -0.072250
     5  C   -0.054808
     6  N   -0.306333
     7  C    0.115613
     8  C   -0.014921
     9  C   -0.001900
    10  C    0.152164
    11  C   -0.051407
    12  C   -0.017570
    13  C    0.012605
    14  C    0.471428
    15  O   -0.516833
    16  O   -0.278679
    17  N   -0.334477
    18  C    0.129909
    19  C    0.028910
    20  C   -0.046243
    21  C    0.137607
    22  C   -0.042090
    23  C    0.313580
    24  O   -0.512194
    25  C   -0.024696
    26  N   -0.278360
    27  C    0.146422
    28  C    0.003932
    29  C   -0.005256
    30  C    0.091681
    31  C   -0.054672
    32  C   -0.023205
    33  C   -0.051370
    34  N   -0.329144
    35  C    0.087989
    36  C    0.034569
    37  C   -0.061917
    38  C    0.099880
    39  C   -0.041600
    40  C    0.341248
    41  O   -0.504953
    42  C    0.057218
    43  C    0.489717
    44  O   -0.525978
    45  O   -0.270297
    46  C    0.076671
    47  C    0.107746
    48  C   -0.104783
    49  C   -0.017327
    50  C   -0.042439
    51  C   -0.025023
    52  C   -0.025378
    53  C   -0.032380
    54  C   -0.014999
    55  C   -0.051248
    56  C   -0.047443
    57  C   -0.040868
    58  C   -0.019440
    59  C   -0.009437
    60  C   -0.064625
    61  C   -0.033208
    62  C   -0.042341
    63  C   -0.043757
    64  C   -0.016406
    65  C   -0.057767
    66  C   -0.055622
    67  H    0.031793
    68  H    0.020837
    69  H    0.026278
    70  H    0.042440
    71  H    0.027020
    72  H    0.030566
    73  H    0.028815
    74  H    0.024204
    75  H    0.033681
    76  H    0.031376
    77  H    0.040799
    78  H    0.044617
    79  H    0.032725
    80  H    0.028199
    81  H    0.046725
    82  H    0.032350
    83  H    0.048566
    84  H    0.043918
    85  H    0.034978
    86  H    0.035477
    87  H    0.032670
    88  H    0.018336
    89  H    0.018268
    90  H    0.026863
    91  H    0.014683
    92  H    0.017528
    93  H    0.026528
    94  H    0.021899
    95  H    0.028799
    96  H    0.029532
    97  H    0.026279
    98  H    0.069653
    99  H    0.035733
   100  H    0.058323
   101  H    0.033711
   102  H    0.039034
   103  H    0.061639
   104  H    0.040874
   105  H    0.033356
   106  H    0.027608
   107  H    0.019896
   108  H    0.026182
   109  H    0.014972
   110  H    0.026552
   111  H    0.025349
   112  H    0.021986
   113  H    0.016634
   114  H    0.017168
   115  H    0.024911
   116  H    0.009376
   117  H    0.022987
   118  H    0.020513
   119  H    0.007354
   120  H    0.017982
   121  H    0.012162
   122  H    0.021966
   123  H    0.013430
   124  H    0.018699
   125  H    0.011198
   126  H    0.020793
   127  H    0.024620
   128  H    0.023251
   129  H    0.008125
   130  H    0.027590
   131  H    0.029451
   132  H    0.007915
   133  H    0.020286
   134  H    0.010336
   135  H    0.019476
   136  H    0.020103
   137  H    0.010877
   138  H    0.023270
   139  H    0.024283
   140  H    0.018856
 Sum of Mulliken charges =  -0.00000

 Dipole moment (field-independent basis, Debye):
    X=             -1.4195    Y=              9.1011    Z=             -0.7287  Tot=              9.2399
 N-N= 4.303008938328D+03 E-N= 0.000000000000D+00  KE=-9.280053767942D+03
 Leave Link  601 at Thu May  5 10:18:11 2022, MaxMem=  6710886400 cpu:               0.8 elap:               0.0
 (Enter /sw/apps/gaussian-16.0/g16/l9999.exe)
 1\1\GINC-BP1-COMPUTE168\SP\RZINDO CIS\STO-3G\C55H74Mg1N4O6\OF15641\05-
 May-2022\0\\#p ZINDO=(nstates=5)\\step_801_chromophore_2 ZINDO\\0,1\Mg
 ,0,3.456,0.695,44.443\C,0,6.255,2.778,44.255\C,0,1.553,3.203,42.981\C,
 0,0.899,-1.555,43.909\C,0,5.644,-1.958,45.289\N,0,3.878,2.673,43.7\C,0
 ,5.114,3.307,43.664\C,0,4.973,4.775,43.282\C,0,3.36,4.951,43.206\C,0,2
 .864,3.555,43.335\C,0,2.699,5.897,44.26\C,0,5.745,5.117,41.897\C,0,6.0
 88,3.97,40.933\C,0,6.516,4.253,39.501\O,0,7.192,5.179,39.132\O,0,6.149

 Normal termination of Gaussian 16 at Thu May  5 10:18:11 2022.
