 Gaussian 16, Revision A.03,
 Gaussian 16:  ES64L-G16RevA.03 25-Dec-2016

 ------------------------------
 #p blyp/Def2SVP td=(nstates=5)
 ------------------------------

 ---------------------------------------------------
 step_1851_chromophore_18 TDDFT with blyp functional
 ---------------------------------------------------
 Symbolic Z-matrix:
 Charge =  0 Multiplicity = 1

                         Standard orientation:
 ---------------------------------------------------------------------
 Center     Atomic      Atomic             Coordinates (Angstroms)
 Number     Number       Type             X           Y           Z
 ---------------------------------------------------------------------
      1         12           0        5.514689    1.243470    0.358660
      2          6           0        4.557125   -2.241799    0.326586
      3          6           0        2.163083    2.091676    0.169888
      4          6           0        6.317990    4.372301   -0.143446
      5          6           0        8.783829    0.170454   -0.451575
      6          7           0        3.594580   -0.066549    0.145158
      7          6           0        3.408755   -1.405515    0.321116
      8          6           0        1.943333   -1.752026    0.441600
      9          6           0        1.193695   -0.296247    0.424381
     10          6           0        2.403597    0.668509    0.207872
     11          6           0        0.023504   -0.213416   -0.616480
     12          6           0        1.578636   -2.708400    1.633450
     13          6           0        1.086412   -4.134386    1.337697
     14          6           0        0.163306   -4.243088    0.103285
     15          8           0        0.552160   -4.640592   -1.015290
     16          8           0       -1.157029   -4.139947    0.417592
     17          7           0        4.382340    2.974197    0.175445
     18          6           0        3.005587    3.180492    0.112216
     19          6           0        2.599652    4.556588    0.098931
     20          6           0        3.822769    5.235298    0.147048
     21          6           0        4.895884    4.222043    0.079202
     22          6           0        1.207419    5.030788   -0.106712
     23          6           0        4.051962    6.659829    0.204010
     24          8           0        5.199929    7.128667    0.209932
     25          6           0        2.910820    7.699039    0.153126
     26          7           0        7.281628    2.173624   -0.272802
     27          6           0        7.428349    3.490522   -0.280543
     28          6           0        8.872782    3.949573   -0.405756
     29          6           0        9.574649    2.569949   -0.456832
     30          6           0        8.502775    1.538317   -0.428838
     31          6           0        9.286199    4.970138   -1.552463
     32          6           0       10.585264    2.332736    0.735739
     33          6           0       10.064178    2.417187    2.148041
     34          7           0        6.523915   -0.552879   -0.011202
     35          6           0        7.861852   -0.822376   -0.208967
     36          6           0        8.133693   -2.264320   -0.222751
     37          6           0        6.842789   -2.881299   -0.043718
     38          6           0        5.914030   -1.801893    0.121565
     39          6           0        9.429913   -2.943405   -0.602245
     40          6           0        6.187892   -4.157541    0.098459
     41          8           0        6.576799   -5.310391   -0.006831
     42          6           0        4.672708   -3.781597    0.237799
     43          6           0        4.010513   -4.368564   -0.899306
     44          8           0        4.122578   -3.938070   -2.028485
     45          8           0        3.419923   -5.588300   -0.541505
     46          6           0        3.014789   -6.492805   -1.606062
     47          6           0       -2.174139   -4.290921   -0.687421
     48          6           0       -3.427113   -3.556119   -0.269283
     49          6           0       -4.705156   -3.900915   -0.385236
     50          6           0       -5.131902   -5.045539   -1.127690
     51          6           0       -5.901734   -3.233271    0.361670
     52          6           0       -6.365814   -1.908071   -0.223852
     53          6           0       -6.821104   -0.763537    0.705366
     54          6           0       -8.179237   -0.956650    1.417536
     55          6           0       -8.062605   -1.131589    2.889353
     56          6           0       -9.300705    0.153529    1.100558
     57          6           0      -10.304582   -0.342960    0.010835
     58          6           0      -11.641061   -0.710436    0.691451
     59          6           0      -12.480808    0.568736    1.046935
     60          6           0      -13.065018    0.435447    2.483038
     61          6           0      -13.636021    0.684928   -0.004496
     62          6           0      -14.046341    2.221388   -0.075473
     63          6           0      -14.768587    2.453787   -1.433929
     64          6           0      -15.959196    3.514114   -1.326015
     65          6           0      -17.311765    2.796051   -1.309777
     66          6           0      -15.894691    4.613007   -2.496355
     67          1           0        1.128702    2.307838    0.444306
     68          1           0        6.666277    5.403944   -0.065980
     69          1           0        9.813426   -0.136730   -0.648817
     70          1           0        1.725981   -2.308601   -0.469726
     71          1           0        0.650098   -0.136537    1.356152
     72          1           0       -0.103869   -1.103604   -1.233201
     73          1           0        0.148534    0.725434   -1.155117
     74          1           0       -0.927662    0.035931   -0.147044
     75          1           0        0.825560   -2.200201    2.235556
     76          1           0        2.425554   -2.720347    2.319917
     77          1           0        0.492454   -4.340684    2.229019
     78          1           0        1.907148   -4.847852    1.267596
     79          1           0        0.826970    5.507187    0.796633
     80          1           0        0.565060    4.189130   -0.363303
     81          1           0        1.236513    5.749562   -0.925731
     82          1           0        2.486251    7.741270   -0.849874
     83          1           0        3.317543    8.636747    0.532233
     84          1           0        2.181704    7.376704    0.895974
     85          1           0        9.248427    4.542178    0.428640
     86          1           0       10.056649    2.364733   -1.412791
     87          1           0        8.500294    5.381306   -2.184901
     88          1           0       10.109030    4.646657   -2.190137
     89          1           0        9.833118    5.782823   -1.073650
     90          1           0       11.394611    3.056783    0.646131
     91          1           0       11.142853    1.427737    0.491375
     92          1           0       10.363366    3.300289    2.712349
     93          1           0       10.329899    1.515689    2.701494
     94          1           0        8.990318    2.240106    2.086413
     95          1           0        9.373090   -3.901258   -0.085212
     96          1           0       10.310564   -2.457115   -0.184569
     97          1           0        9.542281   -3.091859   -1.676608
     98          1           0        4.323499   -4.307021    1.126704
     99          1           0        1.925015   -6.513401   -1.640434
    100          1           0        3.378158   -7.482726   -1.331052
    101          1           0        3.474797   -6.194310   -2.547851
    102          1           0       -2.288548   -5.373639   -0.634326
    103          1           0       -1.991415   -4.041774   -1.733212
    104          1           0       -3.244710   -2.734940    0.422461
    105          1           0       -6.182851   -5.031725   -1.413853
    106          1           0       -5.044344   -5.832554   -0.377673
    107          1           0       -4.618064   -5.289346   -2.057687
    108          1           0       -5.663343   -3.130428    1.420984
    109          1           0       -6.806887   -3.836948    0.301773
    110          1           0       -7.097364   -2.088981   -1.010871
    111          1           0       -5.569054   -1.443782   -0.805607
    112          1           0       -6.951466    0.171529    0.160919
    113          1           0       -6.014288   -0.520575    1.396683
    114          1           0       -8.583172   -1.915491    1.090723
    115          1           0       -8.056125   -0.140980    3.344625
    116          1           0       -7.164644   -1.650744    3.227176
    117          1           0       -8.980654   -1.686079    3.084580
    118          1           0       -8.902468    1.149695    0.905812
    119          1           0       -9.851646    0.408634    2.005221
    120          1           0       -9.906410   -1.251553   -0.440483
    121          1           0      -10.426503    0.425760   -0.752240
    122          1           0      -11.501024   -1.267111    1.617652
    123          1           0      -12.232427   -1.398230    0.086603
    124          1           0      -12.009154    1.538245    0.885424
    125          1           0      -14.109098    0.727297    2.594904
    126          1           0      -12.614950    1.178893    3.140513
    127          1           0      -13.110272   -0.587052    2.857944
    128          1           0      -14.545167    0.116773    0.190586
    129          1           0      -13.177678    0.381822   -0.946451
    130          1           0      -13.149917    2.837394   -0.133871
    131          1           0      -14.635617    2.577501    0.770396
    132          1           0      -14.998618    1.552924   -2.002563
    133          1           0      -14.076700    3.077185   -2.000618
    134          1           0      -15.898276    3.965163   -0.336110
    135          1           0      -17.511431    2.591459   -2.361370
    136          1           0      -18.114291    3.515230   -1.143050
    137          1           0      -17.300162    1.951284   -0.621749
    138          1           0      -15.773278    4.230495   -3.509495
    139          1           0      -15.033619    5.261920   -2.337042
    140          1           0      -16.827884    5.175142   -2.475808
 ---------------------------------------------------------------------

 SCF Done:  E(RB-LYP) =  -3007.37069424     A.U. after   21 cycles

 Excitation energies and oscillator strengths:

 Excited State   1:      Singlet-A      1.7659 eV  702.09 nm  f=0.2817  <S**2>=0.000
     245 -> 248        0.20655
     246 -> 247        0.68247
     246 <- 247       -0.14568
 This state for optimization and/or second-order correction.
 Total Energy, E(TD-HF/TD-DFT) =  -3007.30579740
 Copying the excited state density for this state as the 1-particle RhoCI density.

 Excited State   2:      Singlet-A      1.7898 eV  692.71 nm  f=0.0019  <S**2>=0.000
     244 -> 247        0.70317

 Excited State   3:      Singlet-A      1.9408 eV  638.82 nm  f=0.0815  <S**2>=0.000
     245 -> 247        0.64472
     246 -> 248       -0.25024

 Excited State   4:      Singlet-A      2.0684 eV  599.42 nm  f=0.0001  <S**2>=0.000
     243 -> 247        0.70554

 Excited State   5:      Singlet-A      2.4467 eV  506.73 nm  f=0.0000  <S**2>=0.000
     241 -> 247        0.63635
     242 -> 247       -0.30233

 The electronic state is 1-A.
 Alpha  occ. eigenvalues --  -46.27750 -18.83270 -18.80089 -18.76882 -18.75750
 Alpha  occ. eigenvalues --  -18.75310 -18.74629 -14.03130 -14.02868 -14.01274
 Alpha  occ. eigenvalues --  -14.00905 -10.04724 -10.02234  -9.99502  -9.99178
 Alpha  occ. eigenvalues --   -9.98917  -9.96941  -9.96665  -9.96404  -9.96111
 Alpha  occ. eigenvalues --   -9.95889  -9.95193  -9.95130  -9.94998  -9.94987
 Alpha  occ. eigenvalues --   -9.94452  -9.93992  -9.93968  -9.93935  -9.93898
 Alpha  occ. eigenvalues --   -9.93742  -9.93689  -9.93681  -9.93608  -9.93180
 Alpha  occ. eigenvalues --   -9.93064  -9.92918  -9.92846  -9.92714  -9.92637
 Alpha  occ. eigenvalues --   -9.92534  -9.92283  -9.92239  -9.92173  -9.92101
 Alpha  occ. eigenvalues --   -9.92097  -9.92047  -9.92040  -9.91919  -9.91858
 Alpha  occ. eigenvalues --   -9.91822  -9.91816  -9.91758  -9.91678  -9.91599
 Alpha  occ. eigenvalues --   -9.91507  -9.91408  -9.91401  -9.91362  -9.91347
 Alpha  occ. eigenvalues --   -9.91335  -9.91315  -9.90919  -9.90869  -9.90654
 Alpha  occ. eigenvalues --   -9.90577  -2.92327  -1.72714  -1.72215  -1.72055
 Alpha  occ. eigenvalues --   -0.97708  -0.95523  -0.91249  -0.90215  -0.88942
 Alpha  occ. eigenvalues --   -0.88537  -0.86661  -0.85698  -0.84718  -0.83822
 Alpha  occ. eigenvalues --   -0.74768  -0.74594  -0.73057  -0.72594  -0.72202
 Alpha  occ. eigenvalues --   -0.71979  -0.71917  -0.70704  -0.70481  -0.70389
 Alpha  occ. eigenvalues --   -0.69187  -0.68949  -0.68130  -0.67286  -0.67085
 Alpha  occ. eigenvalues --   -0.66356  -0.65878  -0.65355  -0.64433  -0.64301
 Alpha  occ. eigenvalues --   -0.63952  -0.63133  -0.62185  -0.61852  -0.60876
 Alpha  occ. eigenvalues --   -0.60066  -0.59868  -0.59509  -0.59482  -0.58990
 Alpha  occ. eigenvalues --   -0.58385  -0.57193  -0.56651  -0.55742  -0.55319
 Alpha  occ. eigenvalues --   -0.54229  -0.53523  -0.52987  -0.52699  -0.51287
 Alpha  occ. eigenvalues --   -0.51218  -0.50647  -0.50502  -0.50165  -0.49996
 Alpha  occ. eigenvalues --   -0.49804  -0.49367  -0.48518  -0.46948  -0.46782
 Alpha  occ. eigenvalues --   -0.46667  -0.45619  -0.45265  -0.44707  -0.44023
 Alpha  occ. eigenvalues --   -0.43709  -0.43020  -0.42674  -0.42575  -0.42383
 Alpha  occ. eigenvalues --   -0.41817  -0.41512  -0.41232  -0.40947  -0.40748
 Alpha  occ. eigenvalues --   -0.40607  -0.40421  -0.40193  -0.40106  -0.39675
 Alpha  occ. eigenvalues --   -0.39465  -0.39390  -0.39330  -0.39042  -0.38950
 Alpha  occ. eigenvalues --   -0.38841  -0.38699  -0.38515  -0.38063  -0.37903
 Alpha  occ. eigenvalues --   -0.37863  -0.37826  -0.37741  -0.37606  -0.37497
 Alpha  occ. eigenvalues --   -0.37122  -0.36763  -0.36565  -0.36496  -0.36319
 Alpha  occ. eigenvalues --   -0.36110  -0.36009  -0.35928  -0.35868  -0.35545
 Alpha  occ. eigenvalues --   -0.35446  -0.35274  -0.34992  -0.34916  -0.34832
 Alpha  occ. eigenvalues --   -0.34434  -0.34276  -0.34114  -0.34006  -0.33921
 Alpha  occ. eigenvalues --   -0.33719  -0.33413  -0.33174  -0.32823  -0.32623
 Alpha  occ. eigenvalues --   -0.32549  -0.32438  -0.32382  -0.32226  -0.31970
 Alpha  occ. eigenvalues --   -0.31738  -0.31713  -0.31633  -0.31483  -0.31407
 Alpha  occ. eigenvalues --   -0.31346  -0.30991  -0.30858  -0.30585  -0.30536
 Alpha  occ. eigenvalues --   -0.30433  -0.30205  -0.30090  -0.29881  -0.29669
 Alpha  occ. eigenvalues --   -0.29480  -0.29288  -0.29129  -0.28984  -0.28882
 Alpha  occ. eigenvalues --   -0.28631  -0.28590  -0.28067  -0.28058  -0.27619
 Alpha  occ. eigenvalues --   -0.27374  -0.27361  -0.26963  -0.26901  -0.26581
 Alpha  occ. eigenvalues --   -0.26412  -0.25826  -0.25774  -0.25542  -0.25292
 Alpha  occ. eigenvalues --   -0.25144  -0.25061  -0.23622  -0.23268  -0.23070
 Alpha  occ. eigenvalues --   -0.23060  -0.21900  -0.21685  -0.20914  -0.20533
 Alpha  occ. eigenvalues --   -0.20360  -0.20287  -0.18843  -0.17834  -0.16907
 Alpha  occ. eigenvalues --   -0.15566
 Alpha virt. eigenvalues --   -0.11360  -0.06997  -0.06418  -0.04544  -0.04090
 Alpha virt. eigenvalues --   -0.03784  -0.02033  -0.01486  -0.01453   0.00590
 Alpha virt. eigenvalues --    0.01650   0.02019   0.02237   0.02469   0.02638

 Mulliken charges:
               1
     1  Mg   0.706925
     2  C    0.039577
     3  C   -0.106049
     4  C   -0.026197
     5  C   -0.113333
     6  N   -0.197882
     7  C   -0.099233
     8  C    0.046920
     9  C   -0.046400
    10  C    0.042825
    11  C    0.109762
    12  C    0.082032
    13  C    0.168828
    14  C    0.088757
    15  O   -0.222603
    16  O   -0.271496
    17  N   -0.286550
    18  C    0.160228
    19  C   -0.150302
    20  C    0.117043
    21  C    0.092283
    22  C    0.196467
    23  C   -0.156274
    24  O   -0.183936
    25  C    0.135083
    26  N   -0.225462
    27  C    0.007954
    28  C    0.047051
    29  C    0.063838
    30  C    0.028500
    31  C    0.109495
    32  C    0.062010
    33  C    0.097437
    34  N   -0.269454
    35  C    0.154169
    36  C   -0.181140
    37  C    0.069027
    38  C    0.086268
    39  C    0.165862
    40  C   -0.051759
    41  O   -0.123495
    42  C    0.050383
    43  C    0.122735
    44  O   -0.172792
    45  O   -0.294246
    46  C    0.215409
    47  C    0.320710
    48  C   -0.100759
    49  C   -0.150871
    50  C    0.143749
    51  C    0.161463
    52  C    0.053269
    53  C    0.145118
    54  C   -0.065159
    55  C    0.099831
    56  C    0.074133
    57  C    0.098734
    58  C    0.118038
    59  C   -0.071048
    60  C    0.113595
    61  C    0.063059
    62  C    0.041957
    63  C    0.110998
    64  C   -0.095318
    65  C    0.104891
    66  C    0.073976
    67  H   -0.050668
    68  H   -0.046851
    69  H   -0.062652
    70  H    0.013872
    71  H   -0.014650
    72  H    0.015631
    73  H   -0.020297
    74  H   -0.028257
    75  H   -0.028255
    76  H   -0.023018
    77  H   -0.014778
    78  H    0.024846
    79  H    0.007227
    80  H   -0.009555
    81  H    0.008264
    82  H    0.023604
    83  H   -0.005810
    84  H   -0.017783
    85  H   -0.010290
    86  H   -0.030656
    87  H    0.011434
    88  H   -0.022569
    89  H   -0.026094
    90  H   -0.035750
    91  H   -0.031922
    92  H    0.009377
    93  H   -0.016587
    94  H   -0.012978
    95  H    0.005585
    96  H   -0.014539
    97  H    0.023696
    98  H   -0.021651
    99  H    0.019036
   100  H    0.002008
   101  H    0.016144
   102  H   -0.004131
   103  H    0.031255
   104  H   -0.042293
   105  H   -0.019028
   106  H    0.007116
   107  H   -0.003985
   108  H   -0.020739
   109  H   -0.033808
   110  H   -0.036276
   111  H   -0.035283
   112  H   -0.050674
   113  H   -0.044202
   114  H   -0.043170
   115  H   -0.016294
   116  H   -0.019376
   117  H   -0.012500
   118  H   -0.042467
   119  H   -0.037866
   120  H   -0.027554
   121  H   -0.030776
   122  H   -0.043140
   123  H   -0.038941
   124  H   -0.036356
   125  H   -0.037279
   126  H   -0.016253
   127  H   -0.013848
   128  H   -0.020415
   129  H   -0.028976
   130  H   -0.031876
   131  H   -0.017934
   132  H   -0.019615
   133  H   -0.049784
   134  H   -0.034447
   135  H   -0.028283
   136  H   -0.028202
   137  H   -0.001457
   138  H   -0.008790
   139  H   -0.010119
   140  H   -0.015975
 Sum of Mulliken charges =  -0.00000

 Dipole moment (field-independent basis, Debye):
    X=             -4.5300    Y=              1.9846    Z=              2.9821  Tot=              5.7752
 Quadrupole moment (field-independent basis, Debye-Ang):
   XX=           -377.8617   YY=           -430.1948   ZZ=           -407.5995
   XY=             22.5384   XZ=             12.6174   YZ=             -4.7496

 Normal termination of Gaussian 16 at Fri Apr 29 03:50:37 2022.
