 Gaussian 16, Revision A.03,
 Gaussian 16:  ES64L-G16RevA.03 25-Dec-2016

 -----------------------------------
 #p cam-b3lyp/Def2SVP td=(nstates=5)
 -----------------------------------

 --------------------------------------------------------
 step_1851_chromophore_18 TDDFT with cam-b3lyp functional
 --------------------------------------------------------
 Symbolic Z-matrix:
 Charge =  0 Multiplicity = 1

                         Standard orientation:
 ---------------------------------------------------------------------
 Center     Atomic      Atomic             Coordinates (Angstroms)
 Number     Number       Type             X           Y           Z
 ---------------------------------------------------------------------
      1         12           0        5.514689    1.243470    0.358660
      2          6           0        4.557125   -2.241799    0.326586
      3          6           0        2.163083    2.091676    0.169888
      4          6           0        6.317990    4.372301   -0.143446
      5          6           0        8.783829    0.170454   -0.451575
      6          7           0        3.594580   -0.066549    0.145158
      7          6           0        3.408755   -1.405515    0.321116
      8          6           0        1.943333   -1.752026    0.441600
      9          6           0        1.193695   -0.296247    0.424381
     10          6           0        2.403597    0.668509    0.207872
     11          6           0        0.023504   -0.213416   -0.616480
     12          6           0        1.578636   -2.708400    1.633450
     13          6           0        1.086412   -4.134386    1.337697
     14          6           0        0.163306   -4.243088    0.103285
     15          8           0        0.552160   -4.640592   -1.015290
     16          8           0       -1.157029   -4.139947    0.417592
     17          7           0        4.382340    2.974197    0.175445
     18          6           0        3.005587    3.180492    0.112216
     19          6           0        2.599652    4.556588    0.098931
     20          6           0        3.822769    5.235298    0.147048
     21          6           0        4.895884    4.222043    0.079202
     22          6           0        1.207419    5.030788   -0.106712
     23          6           0        4.051962    6.659829    0.204010
     24          8           0        5.199929    7.128667    0.209932
     25          6           0        2.910820    7.699039    0.153126
     26          7           0        7.281628    2.173624   -0.272802
     27          6           0        7.428349    3.490522   -0.280543
     28          6           0        8.872782    3.949573   -0.405756
     29          6           0        9.574649    2.569949   -0.456832
     30          6           0        8.502775    1.538317   -0.428838
     31          6           0        9.286199    4.970138   -1.552463
     32          6           0       10.585264    2.332736    0.735739
     33          6           0       10.064178    2.417187    2.148041
     34          7           0        6.523915   -0.552879   -0.011202
     35          6           0        7.861852   -0.822376   -0.208967
     36          6           0        8.133693   -2.264320   -0.222751
     37          6           0        6.842789   -2.881299   -0.043718
     38          6           0        5.914030   -1.801893    0.121565
     39          6           0        9.429913   -2.943405   -0.602245
     40          6           0        6.187892   -4.157541    0.098459
     41          8           0        6.576799   -5.310391   -0.006831
     42          6           0        4.672708   -3.781597    0.237799
     43          6           0        4.010513   -4.368564   -0.899306
     44          8           0        4.122578   -3.938070   -2.028485
     45          8           0        3.419923   -5.588300   -0.541505
     46          6           0        3.014789   -6.492805   -1.606062
     47          6           0       -2.174139   -4.290921   -0.687421
     48          6           0       -3.427113   -3.556119   -0.269283
     49          6           0       -4.705156   -3.900915   -0.385236
     50          6           0       -5.131902   -5.045539   -1.127690
     51          6           0       -5.901734   -3.233271    0.361670
     52          6           0       -6.365814   -1.908071   -0.223852
     53          6           0       -6.821104   -0.763537    0.705366
     54          6           0       -8.179237   -0.956650    1.417536
     55          6           0       -8.062605   -1.131589    2.889353
     56          6           0       -9.300705    0.153529    1.100558
     57          6           0      -10.304582   -0.342960    0.010835
     58          6           0      -11.641061   -0.710436    0.691451
     59          6           0      -12.480808    0.568736    1.046935
     60          6           0      -13.065018    0.435447    2.483038
     61          6           0      -13.636021    0.684928   -0.004496
     62          6           0      -14.046341    2.221388   -0.075473
     63          6           0      -14.768587    2.453787   -1.433929
     64          6           0      -15.959196    3.514114   -1.326015
     65          6           0      -17.311765    2.796051   -1.309777
     66          6           0      -15.894691    4.613007   -2.496355
     67          1           0        1.128702    2.307838    0.444306
     68          1           0        6.666277    5.403944   -0.065980
     69          1           0        9.813426   -0.136730   -0.648817
     70          1           0        1.725981   -2.308601   -0.469726
     71          1           0        0.650098   -0.136537    1.356152
     72          1           0       -0.103869   -1.103604   -1.233201
     73          1           0        0.148534    0.725434   -1.155117
     74          1           0       -0.927662    0.035931   -0.147044
     75          1           0        0.825560   -2.200201    2.235556
     76          1           0        2.425554   -2.720347    2.319917
     77          1           0        0.492454   -4.340684    2.229019
     78          1           0        1.907148   -4.847852    1.267596
     79          1           0        0.826970    5.507187    0.796633
     80          1           0        0.565060    4.189130   -0.363303
     81          1           0        1.236513    5.749562   -0.925731
     82          1           0        2.486251    7.741270   -0.849874
     83          1           0        3.317543    8.636747    0.532233
     84          1           0        2.181704    7.376704    0.895974
     85          1           0        9.248427    4.542178    0.428640
     86          1           0       10.056649    2.364733   -1.412791
     87          1           0        8.500294    5.381306   -2.184901
     88          1           0       10.109030    4.646657   -2.190137
     89          1           0        9.833118    5.782823   -1.073650
     90          1           0       11.394611    3.056783    0.646131
     91          1           0       11.142853    1.427737    0.491375
     92          1           0       10.363366    3.300289    2.712349
     93          1           0       10.329899    1.515689    2.701494
     94          1           0        8.990318    2.240106    2.086413
     95          1           0        9.373090   -3.901258   -0.085212
     96          1           0       10.310564   -2.457115   -0.184569
     97          1           0        9.542281   -3.091859   -1.676608
     98          1           0        4.323499   -4.307021    1.126704
     99          1           0        1.925015   -6.513401   -1.640434
    100          1           0        3.378158   -7.482726   -1.331052
    101          1           0        3.474797   -6.194310   -2.547851
    102          1           0       -2.288548   -5.373639   -0.634326
    103          1           0       -1.991415   -4.041774   -1.733212
    104          1           0       -3.244710   -2.734940    0.422461
    105          1           0       -6.182851   -5.031725   -1.413853
    106          1           0       -5.044344   -5.832554   -0.377673
    107          1           0       -4.618064   -5.289346   -2.057687
    108          1           0       -5.663343   -3.130428    1.420984
    109          1           0       -6.806887   -3.836948    0.301773
    110          1           0       -7.097364   -2.088981   -1.010871
    111          1           0       -5.569054   -1.443782   -0.805607
    112          1           0       -6.951466    0.171529    0.160919
    113          1           0       -6.014288   -0.520575    1.396683
    114          1           0       -8.583172   -1.915491    1.090723
    115          1           0       -8.056125   -0.140980    3.344625
    116          1           0       -7.164644   -1.650744    3.227176
    117          1           0       -8.980654   -1.686079    3.084580
    118          1           0       -8.902468    1.149695    0.905812
    119          1           0       -9.851646    0.408634    2.005221
    120          1           0       -9.906410   -1.251553   -0.440483
    121          1           0      -10.426503    0.425760   -0.752240
    122          1           0      -11.501024   -1.267111    1.617652
    123          1           0      -12.232427   -1.398230    0.086603
    124          1           0      -12.009154    1.538245    0.885424
    125          1           0      -14.109098    0.727297    2.594904
    126          1           0      -12.614950    1.178893    3.140513
    127          1           0      -13.110272   -0.587052    2.857944
    128          1           0      -14.545167    0.116773    0.190586
    129          1           0      -13.177678    0.381822   -0.946451
    130          1           0      -13.149917    2.837394   -0.133871
    131          1           0      -14.635617    2.577501    0.770396
    132          1           0      -14.998618    1.552924   -2.002563
    133          1           0      -14.076700    3.077185   -2.000618
    134          1           0      -15.898276    3.965163   -0.336110
    135          1           0      -17.511431    2.591459   -2.361370
    136          1           0      -18.114291    3.515230   -1.143050
    137          1           0      -17.300162    1.951284   -0.621749
    138          1           0      -15.773278    4.230495   -3.509495
    139          1           0      -15.033619    5.261920   -2.337042
    140          1           0      -16.827884    5.175142   -2.475808
 ---------------------------------------------------------------------

 SCF Done:  E(RCAM-B3LYP) =  -3007.15532138     A.U. after   17 cycles

 Excitation energies and oscillator strengths:

 Excited State   1:      Singlet-A      1.6743 eV  740.50 nm  f=0.3746  <S**2>=0.000
     245 -> 248        0.19784
     246 -> 247        0.68104
     245 <- 248        0.11193
 This state for optimization and/or second-order correction.
 Total Energy, E(TD-HF/TD-DFT) =  -3007.09379102
 Copying the excited state density for this state as the 1-particle RhoCI density.

 Excited State   2:      Singlet-A      2.1700 eV  571.35 nm  f=0.0946  <S**2>=0.000
     245 -> 247        0.63379
     246 -> 248       -0.30442

 Excited State   3:      Singlet-A      3.3867 eV  366.09 nm  f=0.3712  <S**2>=0.000
     241 -> 247       -0.33415
     241 -> 249        0.19681
     241 -> 251        0.13767
     243 -> 247        0.17925
     245 -> 247        0.21948
     246 -> 248        0.47712

 Excited State   4:      Singlet-A      3.3934 eV  365.37 nm  f=0.2705  <S**2>=0.000
     241 -> 247        0.42418
     241 -> 249       -0.25021
     241 -> 251       -0.17469
     245 -> 247        0.18555
     246 -> 248        0.39153

 Excited State   5:      Singlet-A      3.4543 eV  358.92 nm  f=0.0004  <S**2>=0.000
     244 -> 247        0.67989

 The electronic state is 1-A.
 Alpha  occ. eigenvalues --  -46.89307 -19.26098 -19.22947 -19.19795 -19.18924
 Alpha  occ. eigenvalues --  -19.18430 -19.17922 -14.42119 -14.41577 -14.39768
 Alpha  occ. eigenvalues --  -14.39277 -10.40025 -10.37710 -10.34846 -10.34192
 Alpha  occ. eigenvalues --  -10.33265 -10.31508 -10.31095 -10.30837 -10.30624
 Alpha  occ. eigenvalues --  -10.30185 -10.29458 -10.29305 -10.29126 -10.29049
 Alpha  occ. eigenvalues --  -10.28745 -10.28548 -10.28274 -10.28087 -10.28068
 Alpha  occ. eigenvalues --  -10.27798 -10.27720 -10.27713 -10.27539 -10.27226
 Alpha  occ. eigenvalues --  -10.27191 -10.27115 -10.26942 -10.26903 -10.26465
 Alpha  occ. eigenvalues --  -10.26264 -10.26201 -10.26092 -10.26054 -10.25858
 Alpha  occ. eigenvalues --  -10.25829 -10.25824 -10.25691 -10.25686 -10.25654
 Alpha  occ. eigenvalues --  -10.25578 -10.25539 -10.25495 -10.25449 -10.25390
 Alpha  occ. eigenvalues --  -10.25366 -10.25261 -10.25123 -10.25111 -10.25061
 Alpha  occ. eigenvalues --  -10.25022 -10.25021 -10.24590 -10.24537 -10.24236
 Alpha  occ. eigenvalues --  -10.24183  -3.17781  -1.92644  -1.92231  -1.92095
 Alpha  occ. eigenvalues --   -1.16039  -1.14058  -1.09625  -1.08668  -1.06713
 Alpha  occ. eigenvalues --   -1.06409  -1.04315  -1.03326  -1.02313  -1.01268
 Alpha  occ. eigenvalues --   -0.91883  -0.91509  -0.89879  -0.89375  -0.88936
 Alpha  occ. eigenvalues --   -0.88670  -0.88629  -0.87370  -0.87073  -0.86861
 Alpha  occ. eigenvalues --   -0.85626  -0.85217  -0.84441  -0.83357  -0.83182
 Alpha  occ. eigenvalues --   -0.82445  -0.81828  -0.81414  -0.80435  -0.80161
 Alpha  occ. eigenvalues --   -0.79758  -0.79021  -0.77808  -0.77274  -0.76273
 Alpha  occ. eigenvalues --   -0.75370  -0.75221  -0.74804  -0.74722  -0.74053
 Alpha  occ. eigenvalues --   -0.73563  -0.72201  -0.71535  -0.70591  -0.69921
 Alpha  occ. eigenvalues --   -0.68992  -0.68083  -0.67428  -0.67111  -0.65556
 Alpha  occ. eigenvalues --   -0.65356  -0.64600  -0.64427  -0.64155  -0.63881
 Alpha  occ. eigenvalues --   -0.63657  -0.63313  -0.62418  -0.60534  -0.60417
 Alpha  occ. eigenvalues --   -0.60268  -0.59111  -0.58771  -0.57967  -0.57569
 Alpha  occ. eigenvalues --   -0.57053  -0.56178  -0.55770  -0.55662  -0.55441
 Alpha  occ. eigenvalues --   -0.54939  -0.54608  -0.54241  -0.53788  -0.53558
 Alpha  occ. eigenvalues --   -0.53295  -0.53253  -0.53033  -0.52863  -0.52290
 Alpha  occ. eigenvalues --   -0.52208  -0.51974  -0.51838  -0.51746  -0.51649
 Alpha  occ. eigenvalues --   -0.51383  -0.51151  -0.50834  -0.50683  -0.50458
 Alpha  occ. eigenvalues --   -0.50266  -0.50247  -0.50069  -0.49909  -0.49685
 Alpha  occ. eigenvalues --   -0.49458  -0.49202  -0.48859  -0.48752  -0.48628
 Alpha  occ. eigenvalues --   -0.48551  -0.48492  -0.48190  -0.48045  -0.47904
 Alpha  occ. eigenvalues --   -0.47671  -0.47282  -0.47013  -0.46824  -0.46742
 Alpha  occ. eigenvalues --   -0.46330  -0.46152  -0.46007  -0.45774  -0.45656
 Alpha  occ. eigenvalues --   -0.45598  -0.45103  -0.44989  -0.44565  -0.44311
 Alpha  occ. eigenvalues --   -0.44260  -0.44120  -0.43951  -0.43924  -0.43907
 Alpha  occ. eigenvalues --   -0.43617  -0.43368  -0.43155  -0.42899  -0.42822
 Alpha  occ. eigenvalues --   -0.42765  -0.42527  -0.42149  -0.42080  -0.41918
 Alpha  occ. eigenvalues --   -0.41802  -0.41741  -0.41654  -0.41070  -0.40947
 Alpha  occ. eigenvalues --   -0.40725  -0.40515  -0.40265  -0.39991  -0.39918
 Alpha  occ. eigenvalues --   -0.39881  -0.39734  -0.39582  -0.38988  -0.38795
 Alpha  occ. eigenvalues --   -0.38461  -0.38228  -0.37922  -0.37710  -0.37341
 Alpha  occ. eigenvalues --   -0.37161  -0.36848  -0.36367  -0.36361  -0.35970
 Alpha  occ. eigenvalues --   -0.35944  -0.35726  -0.34669  -0.34189  -0.33756
 Alpha  occ. eigenvalues --   -0.33347  -0.33092  -0.32939  -0.31243  -0.30791
 Alpha  occ. eigenvalues --   -0.30278  -0.30138  -0.29808  -0.29457  -0.23560
 Alpha  occ. eigenvalues --   -0.20775
 Alpha virt. eigenvalues --   -0.08415  -0.01922  -0.00058   0.01247   0.02366
 Alpha virt. eigenvalues --    0.03685   0.05431   0.05975   0.06156   0.07454
 Alpha virt. eigenvalues --    0.08158   0.08298   0.08669   0.08865   0.09379

 Mulliken charges:
               1
     1  Mg   0.836167
     2  C    0.017296
     3  C   -0.116155
     4  C   -0.048845
     5  C   -0.117668
     6  N   -0.263995
     7  C   -0.053394
     8  C   -0.009842
     9  C   -0.091126
    10  C    0.060107
    11  C    0.054633
    12  C    0.031197
    13  C    0.096897
    14  C    0.164630
    15  O   -0.264809
    16  O   -0.335937
    17  N   -0.372563
    18  C    0.159155
    19  C   -0.144648
    20  C    0.036752
    21  C    0.118948
    22  C    0.136743
    23  C   -0.076465
    24  O   -0.225616
    25  C    0.060551
    26  N   -0.299612
    27  C    0.032931
    28  C   -0.008390
    29  C    0.000931
    30  C    0.045666
    31  C    0.052578
    32  C    0.009654
    33  C    0.031613
    34  N   -0.355158
    35  C    0.154964
    36  C   -0.174286
    37  C   -0.008904
    38  C    0.121099
    39  C    0.115020
    40  C    0.046153
    41  O   -0.162151
    42  C   -0.029286
    43  C    0.210475
    44  O   -0.207353
    45  O   -0.359288
    46  C    0.179184
    47  C    0.288731
    48  C   -0.117506
    49  C   -0.172477
    50  C    0.069164
    51  C    0.101124
    52  C    0.001806
    53  C    0.089313
    54  C   -0.120930
    55  C    0.045885
    56  C    0.021303
    57  C    0.042448
    58  C    0.064749
    59  C   -0.132161
    60  C    0.054451
    61  C    0.015722
    62  C   -0.006708
    63  C    0.050177
    64  C   -0.150308
    65  C    0.046984
    66  C    0.014675
    67  H   -0.018078
    68  H   -0.008072
    69  H   -0.025919
    70  H    0.045362
    71  H    0.017726
    72  H    0.037540
    73  H    0.005507
    74  H   -0.003329
    75  H    0.002497
    76  H    0.009533
    77  H    0.022151
    78  H    0.055487
    79  H    0.034875
    80  H    0.019118
    81  H    0.034580
    82  H    0.050086
    83  H    0.029867
    84  H    0.009223
    85  H    0.024581
    86  H    0.006037
    87  H    0.036580
    88  H    0.003091
    89  H   -0.001304
    90  H   -0.006491
    91  H   -0.003027
    92  H    0.032415
    93  H    0.009537
    94  H    0.007788
    95  H    0.031748
    96  H    0.009644
    97  H    0.049188
    98  H    0.022377
    99  H    0.040534
   100  H    0.024067
   101  H    0.041802
   102  H    0.025790
   103  H    0.058924
   104  H   -0.009884
   105  H    0.007563
   106  H    0.033164
   107  H    0.021495
   108  H    0.008427
   109  H   -0.002854
   110  H   -0.009233
   111  H   -0.004797
   112  H   -0.018593
   113  H   -0.014949
   114  H   -0.013505
   115  H    0.006510
   116  H    0.004317
   117  H    0.009927
   118  H   -0.012678
   119  H   -0.009190
   120  H   -0.000252
   121  H   -0.002444
   122  H   -0.015492
   123  H   -0.008200
   124  H   -0.005372
   125  H   -0.011677
   126  H    0.007929
   127  H    0.010836
   128  H    0.006154
   129  H   -0.000976
   130  H   -0.004210
   131  H    0.007318
   132  H    0.008412
   133  H   -0.018484
   134  H   -0.003771
   135  H   -0.004787
   136  H   -0.003100
   137  H    0.020890
   138  H    0.014455
   139  H    0.013481
   140  H    0.007836
 Sum of Mulliken charges =  -0.00000

 Dipole moment (field-independent basis, Debye):
    X=             -5.0763    Y=              2.5655    Z=              3.1850  Tot=              6.5188
 Quadrupole moment (field-independent basis, Debye-Ang):
   XX=           -377.7807   YY=           -425.7574   ZZ=           -407.6494
   XY=             22.8021   XZ=             13.4090   YZ=             -4.8595

 Normal termination of Gaussian 16 at Fri Apr 29 02:54:03 2022.
