 Gaussian 16, Revision A.03,
 Gaussian 16:  ES64L-G16RevA.03 25-Dec-2016

 ---------------------------------
 #p PBE1PBE/Def2SVP td=(nstates=5)
 ---------------------------------

 ------------------------------------------------------
 step_1851_chromophore_18 TDDFT with PBE1PBE functional
 ------------------------------------------------------
 Symbolic Z-matrix:
 Charge =  0 Multiplicity = 1

                         Standard orientation:
 ---------------------------------------------------------------------
 Center     Atomic      Atomic             Coordinates (Angstroms)
 Number     Number       Type             X           Y           Z
 ---------------------------------------------------------------------
      1         12           0        5.514689    1.243470    0.358660
      2          6           0        4.557125   -2.241799    0.326586
      3          6           0        2.163083    2.091676    0.169888
      4          6           0        6.317990    4.372301   -0.143446
      5          6           0        8.783829    0.170454   -0.451575
      6          7           0        3.594580   -0.066549    0.145158
      7          6           0        3.408755   -1.405515    0.321116
      8          6           0        1.943333   -1.752026    0.441600
      9          6           0        1.193695   -0.296247    0.424381
     10          6           0        2.403597    0.668509    0.207872
     11          6           0        0.023504   -0.213416   -0.616480
     12          6           0        1.578636   -2.708400    1.633450
     13          6           0        1.086412   -4.134386    1.337697
     14          6           0        0.163306   -4.243088    0.103285
     15          8           0        0.552160   -4.640592   -1.015290
     16          8           0       -1.157029   -4.139947    0.417592
     17          7           0        4.382340    2.974197    0.175445
     18          6           0        3.005587    3.180492    0.112216
     19          6           0        2.599652    4.556588    0.098931
     20          6           0        3.822769    5.235298    0.147048
     21          6           0        4.895884    4.222043    0.079202
     22          6           0        1.207419    5.030788   -0.106712
     23          6           0        4.051962    6.659829    0.204010
     24          8           0        5.199929    7.128667    0.209932
     25          6           0        2.910820    7.699039    0.153126
     26          7           0        7.281628    2.173624   -0.272802
     27          6           0        7.428349    3.490522   -0.280543
     28          6           0        8.872782    3.949573   -0.405756
     29          6           0        9.574649    2.569949   -0.456832
     30          6           0        8.502775    1.538317   -0.428838
     31          6           0        9.286199    4.970138   -1.552463
     32          6           0       10.585264    2.332736    0.735739
     33          6           0       10.064178    2.417187    2.148041
     34          7           0        6.523915   -0.552879   -0.011202
     35          6           0        7.861852   -0.822376   -0.208967
     36          6           0        8.133693   -2.264320   -0.222751
     37          6           0        6.842789   -2.881299   -0.043718
     38          6           0        5.914030   -1.801893    0.121565
     39          6           0        9.429913   -2.943405   -0.602245
     40          6           0        6.187892   -4.157541    0.098459
     41          8           0        6.576799   -5.310391   -0.006831
     42          6           0        4.672708   -3.781597    0.237799
     43          6           0        4.010513   -4.368564   -0.899306
     44          8           0        4.122578   -3.938070   -2.028485
     45          8           0        3.419923   -5.588300   -0.541505
     46          6           0        3.014789   -6.492805   -1.606062
     47          6           0       -2.174139   -4.290921   -0.687421
     48          6           0       -3.427113   -3.556119   -0.269283
     49          6           0       -4.705156   -3.900915   -0.385236
     50          6           0       -5.131902   -5.045539   -1.127690
     51          6           0       -5.901734   -3.233271    0.361670
     52          6           0       -6.365814   -1.908071   -0.223852
     53          6           0       -6.821104   -0.763537    0.705366
     54          6           0       -8.179237   -0.956650    1.417536
     55          6           0       -8.062605   -1.131589    2.889353
     56          6           0       -9.300705    0.153529    1.100558
     57          6           0      -10.304582   -0.342960    0.010835
     58          6           0      -11.641061   -0.710436    0.691451
     59          6           0      -12.480808    0.568736    1.046935
     60          6           0      -13.065018    0.435447    2.483038
     61          6           0      -13.636021    0.684928   -0.004496
     62          6           0      -14.046341    2.221388   -0.075473
     63          6           0      -14.768587    2.453787   -1.433929
     64          6           0      -15.959196    3.514114   -1.326015
     65          6           0      -17.311765    2.796051   -1.309777
     66          6           0      -15.894691    4.613007   -2.496355
     67          1           0        1.128702    2.307838    0.444306
     68          1           0        6.666277    5.403944   -0.065980
     69          1           0        9.813426   -0.136730   -0.648817
     70          1           0        1.725981   -2.308601   -0.469726
     71          1           0        0.650098   -0.136537    1.356152
     72          1           0       -0.103869   -1.103604   -1.233201
     73          1           0        0.148534    0.725434   -1.155117
     74          1           0       -0.927662    0.035931   -0.147044
     75          1           0        0.825560   -2.200201    2.235556
     76          1           0        2.425554   -2.720347    2.319917
     77          1           0        0.492454   -4.340684    2.229019
     78          1           0        1.907148   -4.847852    1.267596
     79          1           0        0.826970    5.507187    0.796633
     80          1           0        0.565060    4.189130   -0.363303
     81          1           0        1.236513    5.749562   -0.925731
     82          1           0        2.486251    7.741270   -0.849874
     83          1           0        3.317543    8.636747    0.532233
     84          1           0        2.181704    7.376704    0.895974
     85          1           0        9.248427    4.542178    0.428640
     86          1           0       10.056649    2.364733   -1.412791
     87          1           0        8.500294    5.381306   -2.184901
     88          1           0       10.109030    4.646657   -2.190137
     89          1           0        9.833118    5.782823   -1.073650
     90          1           0       11.394611    3.056783    0.646131
     91          1           0       11.142853    1.427737    0.491375
     92          1           0       10.363366    3.300289    2.712349
     93          1           0       10.329899    1.515689    2.701494
     94          1           0        8.990318    2.240106    2.086413
     95          1           0        9.373090   -3.901258   -0.085212
     96          1           0       10.310564   -2.457115   -0.184569
     97          1           0        9.542281   -3.091859   -1.676608
     98          1           0        4.323499   -4.307021    1.126704
     99          1           0        1.925015   -6.513401   -1.640434
    100          1           0        3.378158   -7.482726   -1.331052
    101          1           0        3.474797   -6.194310   -2.547851
    102          1           0       -2.288548   -5.373639   -0.634326
    103          1           0       -1.991415   -4.041774   -1.733212
    104          1           0       -3.244710   -2.734940    0.422461
    105          1           0       -6.182851   -5.031725   -1.413853
    106          1           0       -5.044344   -5.832554   -0.377673
    107          1           0       -4.618064   -5.289346   -2.057687
    108          1           0       -5.663343   -3.130428    1.420984
    109          1           0       -6.806887   -3.836948    0.301773
    110          1           0       -7.097364   -2.088981   -1.010871
    111          1           0       -5.569054   -1.443782   -0.805607
    112          1           0       -6.951466    0.171529    0.160919
    113          1           0       -6.014288   -0.520575    1.396683
    114          1           0       -8.583172   -1.915491    1.090723
    115          1           0       -8.056125   -0.140980    3.344625
    116          1           0       -7.164644   -1.650744    3.227176
    117          1           0       -8.980654   -1.686079    3.084580
    118          1           0       -8.902468    1.149695    0.905812
    119          1           0       -9.851646    0.408634    2.005221
    120          1           0       -9.906410   -1.251553   -0.440483
    121          1           0      -10.426503    0.425760   -0.752240
    122          1           0      -11.501024   -1.267111    1.617652
    123          1           0      -12.232427   -1.398230    0.086603
    124          1           0      -12.009154    1.538245    0.885424
    125          1           0      -14.109098    0.727297    2.594904
    126          1           0      -12.614950    1.178893    3.140513
    127          1           0      -13.110272   -0.587052    2.857944
    128          1           0      -14.545167    0.116773    0.190586
    129          1           0      -13.177678    0.381822   -0.946451
    130          1           0      -13.149917    2.837394   -0.133871
    131          1           0      -14.635617    2.577501    0.770396
    132          1           0      -14.998618    1.552924   -2.002563
    133          1           0      -14.076700    3.077185   -2.000618
    134          1           0      -15.898276    3.965163   -0.336110
    135          1           0      -17.511431    2.591459   -2.361370
    136          1           0      -18.114291    3.515230   -1.143050
    137          1           0      -17.300162    1.951284   -0.621749
    138          1           0      -15.773278    4.230495   -3.509495
    139          1           0      -15.033619    5.261920   -2.337042
    140          1           0      -16.827884    5.175142   -2.475808
 ---------------------------------------------------------------------

 SCF Done:  E(RPBE1PBE) =  -3005.34410866     A.U. after   15 cycles

 Excitation energies and oscillator strengths:

 Excited State   1:      Singlet-A      1.8248 eV  679.45 nm  f=0.3604  <S**2>=0.000
     245 -> 248        0.18943
     246 -> 247        0.68849
     246 <- 247       -0.10312
 This state for optimization and/or second-order correction.
 Total Energy, E(TD-HF/TD-DFT) =  -3005.27704981
 Copying the excited state density for this state as the 1-particle RhoCI density.

 Excited State   2:      Singlet-A      2.1647 eV  572.76 nm  f=0.0983  <S**2>=0.000
     245 -> 247        0.64821
     246 -> 248       -0.27274

 Excited State   3:      Singlet-A      2.8829 eV  430.06 nm  f=0.0002  <S**2>=0.000
     244 -> 247        0.66478
     244 -> 249        0.18179
     244 -> 250        0.11169

 Excited State   4:      Singlet-A      3.0723 eV  403.56 nm  f=0.0001  <S**2>=0.000
     240 -> 247        0.46616
     240 -> 249       -0.14638
     241 -> 247        0.18467
     243 -> 247        0.45676

 Excited State   5:      Singlet-A      3.1338 eV  395.64 nm  f=0.0030  <S**2>=0.000
     240 -> 247       -0.35933
     241 -> 247       -0.28243
     243 -> 247        0.52177

 The electronic state is 1-A.
 Alpha  occ. eigenvalues --  -46.92733 -19.26797 -19.23609 -19.20096 -19.19165
 Alpha  occ. eigenvalues --  -19.18605 -19.18103 -14.41575 -14.41159 -14.39396
 Alpha  occ. eigenvalues --  -14.38993 -10.37097 -10.34664 -10.31996 -10.31251
 Alpha  occ. eigenvalues --  -10.30673 -10.29260 -10.28866 -10.28514 -10.28256
 Alpha  occ. eigenvalues --  -10.27986 -10.27109 -10.27086 -10.26894 -10.26367
 Alpha  occ. eigenvalues --  -10.26289 -10.26248 -10.26068 -10.25900 -10.25881
 Alpha  occ. eigenvalues --  -10.25635 -10.25224 -10.25168 -10.25051 -10.24850
 Alpha  occ. eigenvalues --  -10.24818 -10.24794 -10.24668 -10.24531 -10.23997
 Alpha  occ. eigenvalues --  -10.23954 -10.23891 -10.23745 -10.23556 -10.23308
 Alpha  occ. eigenvalues --  -10.23306 -10.23305 -10.23297 -10.23256 -10.23241
 Alpha  occ. eigenvalues --  -10.23216 -10.23215 -10.23014 -10.23010 -10.22910
 Alpha  occ. eigenvalues --  -10.22854 -10.22820 -10.22696 -10.22649 -10.22641
 Alpha  occ. eigenvalues --  -10.22600 -10.22431 -10.22172 -10.21937 -10.21593
 Alpha  occ. eigenvalues --  -10.21547  -3.14786  -1.87588  -1.87154  -1.87022
 Alpha  occ. eigenvalues --   -1.10856  -1.08768  -1.04386  -1.03327  -1.01559
 Alpha  occ. eigenvalues --   -1.01225  -0.98957  -0.97963  -0.96933  -0.95932
 Alpha  occ. eigenvalues --   -0.86237  -0.85646  -0.83951  -0.83638  -0.83113
 Alpha  occ. eigenvalues --   -0.82952  -0.82733  -0.81667  -0.81214  -0.81154
 Alpha  occ. eigenvalues --   -0.79972  -0.79430  -0.78634  -0.77655  -0.77395
 Alpha  occ. eigenvalues --   -0.76671  -0.76080  -0.75609  -0.74658  -0.74291
 Alpha  occ. eigenvalues --   -0.74104  -0.73229  -0.72096  -0.71619  -0.70414
 Alpha  occ. eigenvalues --   -0.69726  -0.69300  -0.69072  -0.68919  -0.68340
 Alpha  occ. eigenvalues --   -0.67754  -0.66655  -0.65960  -0.64896  -0.64284
 Alpha  occ. eigenvalues --   -0.63408  -0.62296  -0.61936  -0.61318  -0.59809
 Alpha  occ. eigenvalues --   -0.59724  -0.59140  -0.58930  -0.58497  -0.58268
 Alpha  occ. eigenvalues --   -0.58191  -0.57475  -0.56601  -0.55018  -0.54909
 Alpha  occ. eigenvalues --   -0.54737  -0.53714  -0.53338  -0.52582  -0.52031
 Alpha  occ. eigenvalues --   -0.51655  -0.50598  -0.50284  -0.50197  -0.49949
 Alpha  occ. eigenvalues --   -0.49453  -0.49119  -0.48829  -0.48299  -0.48004
 Alpha  occ. eigenvalues --   -0.47746  -0.47695  -0.47410  -0.47317  -0.46797
 Alpha  occ. eigenvalues --   -0.46756  -0.46493  -0.46351  -0.46279  -0.46208
 Alpha  occ. eigenvalues --   -0.45994  -0.45639  -0.45327  -0.45300  -0.45002
 Alpha  occ. eigenvalues --   -0.44802  -0.44735  -0.44645  -0.44487  -0.44197
 Alpha  occ. eigenvalues --   -0.44033  -0.43823  -0.43442  -0.43333  -0.43224
 Alpha  occ. eigenvalues --   -0.43115  -0.43058  -0.42771  -0.42675  -0.42557
 Alpha  occ. eigenvalues --   -0.42302  -0.41942  -0.41761  -0.41562  -0.41368
 Alpha  occ. eigenvalues --   -0.41008  -0.40840  -0.40706  -0.40537  -0.40381
 Alpha  occ. eigenvalues --   -0.40316  -0.39809  -0.39637  -0.39347  -0.39051
 Alpha  occ. eigenvalues --   -0.38980  -0.38932  -0.38688  -0.38623  -0.38522
 Alpha  occ. eigenvalues --   -0.38274  -0.38135  -0.37910  -0.37775  -0.37690
 Alpha  occ. eigenvalues --   -0.37553  -0.37286  -0.36881  -0.36867  -0.36805
 Alpha  occ. eigenvalues --   -0.36619  -0.36507  -0.36484  -0.35835  -0.35827
 Alpha  occ. eigenvalues --   -0.35631  -0.35355  -0.35134  -0.34782  -0.34746
 Alpha  occ. eigenvalues --   -0.34670  -0.34629  -0.34325  -0.33817  -0.33762
 Alpha  occ. eigenvalues --   -0.33457  -0.33000  -0.32920  -0.32486  -0.32148
 Alpha  occ. eigenvalues --   -0.32049  -0.31777  -0.31452  -0.31249  -0.31042
 Alpha  occ. eigenvalues --   -0.30790  -0.30621  -0.29584  -0.29356  -0.28677
 Alpha  occ. eigenvalues --   -0.28489  -0.28373  -0.27782  -0.26840  -0.25736
 Alpha  occ. eigenvalues --   -0.25509  -0.25388  -0.25147  -0.24940  -0.20520
 Alpha  occ. eigenvalues --   -0.18436
 Alpha virt. eigenvalues --   -0.10902  -0.05370  -0.04211  -0.02015  -0.01536
 Alpha virt. eigenvalues --   -0.00886   0.00976   0.01409   0.01568   0.03618
 Alpha virt. eigenvalues --    0.04767   0.04953   0.05116   0.05398   0.05646

 Mulliken charges:
               1
     1  Mg   0.978551
     2  C    0.005974
     3  C   -0.107214
     4  C   -0.045468
     5  C   -0.097083
     6  N   -0.365108
     7  C    0.018894
     8  C   -0.076810
     9  C   -0.165358
    10  C    0.096752
    11  C   -0.001999
    12  C   -0.016236
    13  C    0.014453
    14  C    0.229197
    15  O   -0.295850
    16  O   -0.365912
    17  N   -0.482370
    18  C    0.169645
    19  C   -0.160997
    20  C   -0.027320
    21  C    0.153786
    22  C    0.074753
    23  C   -0.019120
    24  O   -0.261961
    25  C   -0.013666
    26  N   -0.406620
    27  C    0.067951
    28  C   -0.077489
    29  C   -0.081018
    30  C    0.082074
    31  C   -0.001899
    32  C   -0.051099
    33  C   -0.045557
    34  N   -0.474150
    35  C    0.164961
    36  C   -0.179212
    37  C   -0.051909
    38  C    0.169329
    39  C    0.058437
    40  C    0.129953
    41  O   -0.208416
    42  C   -0.135052
    43  C    0.303913
    44  O   -0.242981
    45  O   -0.392441
    46  C    0.126281
    47  C    0.248112
    48  C   -0.122945
    49  C   -0.224950
    50  C    0.005684
    51  C    0.038269
    52  C   -0.062722
    53  C    0.036031
    54  C   -0.205028
    55  C   -0.017449
    56  C   -0.027254
    57  C   -0.026965
    58  C    0.006650
    59  C   -0.219902
    60  C    0.000474
    61  C   -0.038263
    62  C   -0.065039
    63  C   -0.007432
    64  C   -0.236934
    65  C   -0.016520
    66  C   -0.051047
    67  H    0.012964
    68  H    0.025174
    69  H    0.005145
    70  H    0.086628
    71  H    0.053628
    72  H    0.064136
    73  H    0.033844
    74  H    0.023824
    75  H    0.034621
    76  H    0.042400
    77  H    0.056035
    78  H    0.088379
    79  H    0.062044
    80  H    0.045454
    81  H    0.062627
    82  H    0.075625
    83  H    0.056892
    84  H    0.037239
    85  H    0.061494
    86  H    0.043538
    87  H    0.063001
    88  H    0.030063
    89  H    0.025693
    90  H    0.028399
    91  H    0.029497
    92  H    0.058575
    93  H    0.038658
    94  H    0.041429
    95  H    0.060265
    96  H    0.036549
    97  H    0.076505
    98  H    0.059751
    99  H    0.063206
   100  H    0.046687
   101  H    0.062383
   102  H    0.052833
   103  H    0.083297
   104  H    0.020691
   105  H    0.035116
   106  H    0.062078
   107  H    0.048244
   108  H    0.040823
   109  H    0.028520
   110  H    0.024108
   111  H    0.028953
   112  H    0.015061
   113  H    0.017256
   114  H    0.025770
   115  H    0.034986
   116  H    0.032353
   117  H    0.038650
   118  H    0.018212
   119  H    0.024429
   120  H    0.032721
   121  H    0.030213
   122  H    0.017993
   123  H    0.024025
   124  H    0.031409
   125  H    0.015540
   126  H    0.034925
   127  H    0.036926
   128  H    0.038562
   129  H    0.033429
   130  H    0.027838
   131  H    0.037899
   132  H    0.038230
   133  H    0.017917
   134  H    0.033812
   135  H    0.024246
   136  H    0.025635
   137  H    0.048630
   138  H    0.041570
   139  H    0.041616
   140  H    0.035774
 Sum of Mulliken charges =  -0.00000

 Dipole moment (field-independent basis, Debye):
    X=             -4.8932    Y=              2.4567    Z=              3.1662  Tot=              6.3248
 Quadrupole moment (field-independent basis, Debye-Ang):
   XX=           -369.8577   YY=           -423.1999   ZZ=           -405.2585
   XY=             23.1643   XZ=             13.2690   YZ=             -4.8727

 Normal termination of Gaussian 16 at Fri Apr 29 03:11:33 2022.
