 Gaussian 16, Revision A.03,
 Gaussian 16:  ES64L-G16RevA.03 25-Dec-2016

 --------------------------------
 #p wB97XD/Def2SVP td=(nstates=5)
 --------------------------------

 -----------------------------------------------------
 step_1851_chromophore_18 TDDFT with wB97XD functional
 -----------------------------------------------------
 Symbolic Z-matrix:
 Charge =  0 Multiplicity = 1

                         Standard orientation:
 ---------------------------------------------------------------------
 Center     Atomic      Atomic             Coordinates (Angstroms)
 Number     Number       Type             X           Y           Z
 ---------------------------------------------------------------------
      1         12           0        5.514689    1.243470    0.358660
      2          6           0        4.557125   -2.241799    0.326586
      3          6           0        2.163083    2.091676    0.169888
      4          6           0        6.317990    4.372301   -0.143446
      5          6           0        8.783829    0.170454   -0.451575
      6          7           0        3.594580   -0.066549    0.145158
      7          6           0        3.408755   -1.405515    0.321116
      8          6           0        1.943333   -1.752026    0.441600
      9          6           0        1.193695   -0.296247    0.424381
     10          6           0        2.403597    0.668509    0.207872
     11          6           0        0.023504   -0.213416   -0.616480
     12          6           0        1.578636   -2.708400    1.633450
     13          6           0        1.086412   -4.134386    1.337697
     14          6           0        0.163306   -4.243088    0.103285
     15          8           0        0.552160   -4.640592   -1.015290
     16          8           0       -1.157029   -4.139947    0.417592
     17          7           0        4.382340    2.974197    0.175445
     18          6           0        3.005587    3.180492    0.112216
     19          6           0        2.599652    4.556588    0.098931
     20          6           0        3.822769    5.235298    0.147048
     21          6           0        4.895884    4.222043    0.079202
     22          6           0        1.207419    5.030788   -0.106712
     23          6           0        4.051962    6.659829    0.204010
     24          8           0        5.199929    7.128667    0.209932
     25          6           0        2.910820    7.699039    0.153126
     26          7           0        7.281628    2.173624   -0.272802
     27          6           0        7.428349    3.490522   -0.280543
     28          6           0        8.872782    3.949573   -0.405756
     29          6           0        9.574649    2.569949   -0.456832
     30          6           0        8.502775    1.538317   -0.428838
     31          6           0        9.286199    4.970138   -1.552463
     32          6           0       10.585264    2.332736    0.735739
     33          6           0       10.064178    2.417187    2.148041
     34          7           0        6.523915   -0.552879   -0.011202
     35          6           0        7.861852   -0.822376   -0.208967
     36          6           0        8.133693   -2.264320   -0.222751
     37          6           0        6.842789   -2.881299   -0.043718
     38          6           0        5.914030   -1.801893    0.121565
     39          6           0        9.429913   -2.943405   -0.602245
     40          6           0        6.187892   -4.157541    0.098459
     41          8           0        6.576799   -5.310391   -0.006831
     42          6           0        4.672708   -3.781597    0.237799
     43          6           0        4.010513   -4.368564   -0.899306
     44          8           0        4.122578   -3.938070   -2.028485
     45          8           0        3.419923   -5.588300   -0.541505
     46          6           0        3.014789   -6.492805   -1.606062
     47          6           0       -2.174139   -4.290921   -0.687421
     48          6           0       -3.427113   -3.556119   -0.269283
     49          6           0       -4.705156   -3.900915   -0.385236
     50          6           0       -5.131902   -5.045539   -1.127690
     51          6           0       -5.901734   -3.233271    0.361670
     52          6           0       -6.365814   -1.908071   -0.223852
     53          6           0       -6.821104   -0.763537    0.705366
     54          6           0       -8.179237   -0.956650    1.417536
     55          6           0       -8.062605   -1.131589    2.889353
     56          6           0       -9.300705    0.153529    1.100558
     57          6           0      -10.304582   -0.342960    0.010835
     58          6           0      -11.641061   -0.710436    0.691451
     59          6           0      -12.480808    0.568736    1.046935
     60          6           0      -13.065018    0.435447    2.483038
     61          6           0      -13.636021    0.684928   -0.004496
     62          6           0      -14.046341    2.221388   -0.075473
     63          6           0      -14.768587    2.453787   -1.433929
     64          6           0      -15.959196    3.514114   -1.326015
     65          6           0      -17.311765    2.796051   -1.309777
     66          6           0      -15.894691    4.613007   -2.496355
     67          1           0        1.128702    2.307838    0.444306
     68          1           0        6.666277    5.403944   -0.065980
     69          1           0        9.813426   -0.136730   -0.648817
     70          1           0        1.725981   -2.308601   -0.469726
     71          1           0        0.650098   -0.136537    1.356152
     72          1           0       -0.103869   -1.103604   -1.233201
     73          1           0        0.148534    0.725434   -1.155117
     74          1           0       -0.927662    0.035931   -0.147044
     75          1           0        0.825560   -2.200201    2.235556
     76          1           0        2.425554   -2.720347    2.319917
     77          1           0        0.492454   -4.340684    2.229019
     78          1           0        1.907148   -4.847852    1.267596
     79          1           0        0.826970    5.507187    0.796633
     80          1           0        0.565060    4.189130   -0.363303
     81          1           0        1.236513    5.749562   -0.925731
     82          1           0        2.486251    7.741270   -0.849874
     83          1           0        3.317543    8.636747    0.532233
     84          1           0        2.181704    7.376704    0.895974
     85          1           0        9.248427    4.542178    0.428640
     86          1           0       10.056649    2.364733   -1.412791
     87          1           0        8.500294    5.381306   -2.184901
     88          1           0       10.109030    4.646657   -2.190137
     89          1           0        9.833118    5.782823   -1.073650
     90          1           0       11.394611    3.056783    0.646131
     91          1           0       11.142853    1.427737    0.491375
     92          1           0       10.363366    3.300289    2.712349
     93          1           0       10.329899    1.515689    2.701494
     94          1           0        8.990318    2.240106    2.086413
     95          1           0        9.373090   -3.901258   -0.085212
     96          1           0       10.310564   -2.457115   -0.184569
     97          1           0        9.542281   -3.091859   -1.676608
     98          1           0        4.323499   -4.307021    1.126704
     99          1           0        1.925015   -6.513401   -1.640434
    100          1           0        3.378158   -7.482726   -1.331052
    101          1           0        3.474797   -6.194310   -2.547851
    102          1           0       -2.288548   -5.373639   -0.634326
    103          1           0       -1.991415   -4.041774   -1.733212
    104          1           0       -3.244710   -2.734940    0.422461
    105          1           0       -6.182851   -5.031725   -1.413853
    106          1           0       -5.044344   -5.832554   -0.377673
    107          1           0       -4.618064   -5.289346   -2.057687
    108          1           0       -5.663343   -3.130428    1.420984
    109          1           0       -6.806887   -3.836948    0.301773
    110          1           0       -7.097364   -2.088981   -1.010871
    111          1           0       -5.569054   -1.443782   -0.805607
    112          1           0       -6.951466    0.171529    0.160919
    113          1           0       -6.014288   -0.520575    1.396683
    114          1           0       -8.583172   -1.915491    1.090723
    115          1           0       -8.056125   -0.140980    3.344625
    116          1           0       -7.164644   -1.650744    3.227176
    117          1           0       -8.980654   -1.686079    3.084580
    118          1           0       -8.902468    1.149695    0.905812
    119          1           0       -9.851646    0.408634    2.005221
    120          1           0       -9.906410   -1.251553   -0.440483
    121          1           0      -10.426503    0.425760   -0.752240
    122          1           0      -11.501024   -1.267111    1.617652
    123          1           0      -12.232427   -1.398230    0.086603
    124          1           0      -12.009154    1.538245    0.885424
    125          1           0      -14.109098    0.727297    2.594904
    126          1           0      -12.614950    1.178893    3.140513
    127          1           0      -13.110272   -0.587052    2.857944
    128          1           0      -14.545167    0.116773    0.190586
    129          1           0      -13.177678    0.381822   -0.946451
    130          1           0      -13.149917    2.837394   -0.133871
    131          1           0      -14.635617    2.577501    0.770396
    132          1           0      -14.998618    1.552924   -2.002563
    133          1           0      -14.076700    3.077185   -2.000618
    134          1           0      -15.898276    3.965163   -0.336110
    135          1           0      -17.511431    2.591459   -2.361370
    136          1           0      -18.114291    3.515230   -1.143050
    137          1           0      -17.300162    1.951284   -0.621749
    138          1           0      -15.773278    4.230495   -3.509495
    139          1           0      -15.033619    5.261920   -2.337042
    140          1           0      -16.827884    5.175142   -2.475808
 ---------------------------------------------------------------------

 SCF Done:  E(RwB97XD) =  -3007.85400194     A.U. after   17 cycles

 Excitation energies and oscillator strengths:

 Excited State   1:      Singlet-A      1.6127 eV  768.80 nm  f=0.3723  <S**2>=0.000
     245 -> 248        0.20408
     246 -> 247        0.67873
     245 <- 248        0.12213
 This state for optimization and/or second-order correction.
 Total Energy, E(TD-HF/TD-DFT) =  -3007.79473626
 Copying the excited state density for this state as the 1-particle RhoCI density.

 Excited State   2:      Singlet-A      2.1121 eV  587.01 nm  f=0.0915  <S**2>=0.000
     245 -> 247        0.63190
     246 -> 248       -0.30680

 Excited State   3:      Singlet-A      3.3974 eV  364.94 nm  f=0.2626  <S**2>=0.000
     241 -> 247       -0.34784
     241 -> 249        0.24117
     241 -> 251       -0.15430
     243 -> 247        0.24822
     243 -> 249       -0.10268
     245 -> 247        0.18189
     246 -> 248        0.40048

 Excited State   4:      Singlet-A      3.4054 eV  364.08 nm  f=0.3940  <S**2>=0.000
     241 -> 247        0.34948
     241 -> 249       -0.22079
     241 -> 251        0.13901
     245 -> 247        0.22154
     246 -> 248        0.47156

 Excited State   5:      Singlet-A      3.4743 eV  356.87 nm  f=0.0021  <S**2>=0.000
     243 -> 247       -0.10867
     244 -> 247        0.67098

 The electronic state is 1-A.
 Alpha  occ. eigenvalues --  -46.95653 -19.31326 -19.28170 -19.24742 -19.23980
 Alpha  occ. eigenvalues --  -19.23345 -19.22961 -14.46725 -14.46132 -14.44364
 Alpha  occ. eigenvalues --  -14.43876 -10.43857 -10.41539 -10.38869 -10.38152
 Alpha  occ. eigenvalues --  -10.37168 -10.35562 -10.35102 -10.34850 -10.34678
 Alpha  occ. eigenvalues --  -10.34167 -10.33480 -10.33330 -10.33117 -10.32886
 Alpha  occ. eigenvalues --  -10.32785 -10.32606 -10.32433 -10.32223 -10.32133
 Alpha  occ. eigenvalues --  -10.31834 -10.31664 -10.31647 -10.31517 -10.31270
 Alpha  occ. eigenvalues --  -10.31184 -10.31165 -10.30981 -10.30957 -10.30400
 Alpha  occ. eigenvalues --  -10.30199 -10.30186 -10.30017 -10.29961 -10.29830
 Alpha  occ. eigenvalues --  -10.29708 -10.29703 -10.29613 -10.29598 -10.29551
 Alpha  occ. eigenvalues --  -10.29547 -10.29510 -10.29461 -10.29414 -10.29285
 Alpha  occ. eigenvalues --  -10.29211 -10.29198 -10.29057 -10.29036 -10.29007
 Alpha  occ. eigenvalues --  -10.28959 -10.28859 -10.28519 -10.28369 -10.28048
 Alpha  occ. eigenvalues --  -10.27989  -3.21589  -1.95135  -1.94704  -1.94568
 Alpha  occ. eigenvalues --   -1.18217  -1.16194  -1.11869  -1.10876  -1.08893
 Alpha  occ. eigenvalues --   -1.08598  -1.06297  -1.05366  -1.04309  -1.03285
 Alpha  occ. eigenvalues --   -0.93859  -0.93323  -0.91634  -0.91291  -0.90768
 Alpha  occ. eigenvalues --   -0.90556  -0.90406  -0.89315  -0.88835  -0.88761
 Alpha  occ. eigenvalues --   -0.87561  -0.87079  -0.86294  -0.85231  -0.85050
 Alpha  occ. eigenvalues --   -0.84317  -0.83722  -0.83321  -0.82360  -0.81968
 Alpha  occ. eigenvalues --   -0.81721  -0.80983  -0.79719  -0.79172  -0.78102
 Alpha  occ. eigenvalues --   -0.77312  -0.77010  -0.76658  -0.76611  -0.75956
 Alpha  occ. eigenvalues --   -0.75414  -0.74187  -0.73490  -0.72518  -0.71823
 Alpha  occ. eigenvalues --   -0.70984  -0.69947  -0.69431  -0.68971  -0.67399
 Alpha  occ. eigenvalues --   -0.67305  -0.66584  -0.66360  -0.66018  -0.65806
 Alpha  occ. eigenvalues --   -0.65659  -0.65136  -0.64246  -0.62496  -0.62381
 Alpha  occ. eigenvalues --   -0.62223  -0.61101  -0.60740  -0.59939  -0.59515
 Alpha  occ. eigenvalues --   -0.59042  -0.58062  -0.57734  -0.57600  -0.57349
 Alpha  occ. eigenvalues --   -0.56854  -0.56528  -0.56211  -0.55706  -0.55440
 Alpha  occ. eigenvalues --   -0.55176  -0.55153  -0.54957  -0.54762  -0.54209
 Alpha  occ. eigenvalues --   -0.54135  -0.53850  -0.53724  -0.53628  -0.53567
 Alpha  occ. eigenvalues --   -0.53298  -0.53009  -0.52700  -0.52620  -0.52364
 Alpha  occ. eigenvalues --   -0.52208  -0.52169  -0.51971  -0.51823  -0.51545
 Alpha  occ. eigenvalues --   -0.51347  -0.51142  -0.50783  -0.50670  -0.50540
 Alpha  occ. eigenvalues --   -0.50410  -0.50396  -0.50122  -0.49947  -0.49810
 Alpha  occ. eigenvalues --   -0.49577  -0.49184  -0.48932  -0.48756  -0.48629
 Alpha  occ. eigenvalues --   -0.48230  -0.48033  -0.47907  -0.47691  -0.47561
 Alpha  occ. eigenvalues --   -0.47507  -0.47011  -0.46843  -0.46483  -0.46255
 Alpha  occ. eigenvalues --   -0.46173  -0.46011  -0.45860  -0.45809  -0.45764
 Alpha  occ. eigenvalues --   -0.45516  -0.45325  -0.45031  -0.44817  -0.44702
 Alpha  occ. eigenvalues --   -0.44667  -0.44412  -0.44075  -0.43999  -0.43851
 Alpha  occ. eigenvalues --   -0.43745  -0.43608  -0.43553  -0.42934  -0.42856
 Alpha  occ. eigenvalues --   -0.42681  -0.42403  -0.42189  -0.41848  -0.41827
 Alpha  occ. eigenvalues --   -0.41750  -0.41619  -0.41433  -0.40838  -0.40713
 Alpha  occ. eigenvalues --   -0.40362  -0.40062  -0.39822  -0.39536  -0.39191
 Alpha  occ. eigenvalues --   -0.39064  -0.38779  -0.38433  -0.38212  -0.37938
 Alpha  occ. eigenvalues --   -0.37798  -0.37573  -0.36635  -0.36172  -0.35665
 Alpha  occ. eigenvalues --   -0.35241  -0.35185  -0.34938  -0.33429  -0.32785
 Alpha  occ. eigenvalues --   -0.32214  -0.32166  -0.32023  -0.31627  -0.25469
 Alpha  occ. eigenvalues --   -0.22558
 Alpha virt. eigenvalues --   -0.06771  -0.00004   0.02011   0.04407   0.04474
 Alpha virt. eigenvalues --    0.05952   0.07674   0.08236   0.08288   0.10204
 Alpha virt. eigenvalues --    0.11442   0.11600   0.11917   0.12130   0.12412

 Mulliken charges:
               1
     1  Mg   0.968630
     2  C    0.004532
     3  C   -0.124025
     4  C   -0.059732
     5  C   -0.121237
     6  N   -0.330218
     7  C   -0.009990
     8  C   -0.054093
     9  C   -0.138266
    10  C    0.082240
    11  C    0.010194
    12  C   -0.006882
    13  C    0.036407
    14  C    0.214468
    15  O   -0.291719
    16  O   -0.364467
    17  N   -0.453536
    18  C    0.168153
    19  C   -0.153376
    20  C   -0.016827
    21  C    0.144836
    22  C    0.087388
    23  C   -0.027331
    24  O   -0.256182
    25  C    0.000572
    26  N   -0.372861
    27  C    0.055129
    28  C   -0.058214
    29  C   -0.052366
    30  C    0.070456
    31  C    0.007177
    32  C   -0.035390
    33  C   -0.026279
    34  N   -0.440151
    35  C    0.163385
    36  C   -0.182590
    37  C   -0.050522
    38  C    0.153176
    39  C    0.070949
    40  C    0.116533
    41  O   -0.198326
    42  C   -0.095253
    43  C    0.275420
    44  O   -0.236340
    45  O   -0.388648
    46  C    0.141670
    47  C    0.259899
    48  C   -0.137615
    49  C   -0.201738
    50  C    0.014500
    51  C    0.053681
    52  C   -0.043542
    53  C    0.046394
    54  C   -0.174552
    55  C   -0.002018
    56  C   -0.015113
    57  C   -0.007352
    58  C    0.027671
    59  C   -0.190910
    60  C    0.009077
    61  C   -0.022838
    62  C   -0.048639
    63  C    0.006018
    64  C   -0.209784
    65  C   -0.002686
    66  C   -0.036565
    67  H    0.005537
    68  H    0.018960
    69  H   -0.000921
    70  H    0.068800
    71  H    0.043085
    72  H    0.059392
    73  H    0.025408
    74  H    0.018424
    75  H    0.026925
    76  H    0.034516
    77  H    0.051218
    78  H    0.078863
    79  H    0.058301
    80  H    0.041547
    81  H    0.056898
    82  H    0.071823
    83  H    0.056024
    84  H    0.029555
    85  H    0.051018
    86  H    0.033714
    87  H    0.058378
    88  H    0.024324
    89  H    0.020000
    90  H    0.019549
    91  H    0.020744
    92  H    0.054709
    93  H    0.033295
    94  H    0.027543
    95  H    0.055316
    96  H    0.031027
    97  H    0.072214
    98  H    0.051959
    99  H    0.058431
   100  H    0.042785
   101  H    0.058730
   102  H    0.048091
   103  H    0.080105
   104  H    0.017400
   105  H    0.029809
   106  H    0.055852
   107  H    0.044385
   108  H    0.032903
   109  H    0.020932
   110  H    0.015493
   111  H    0.019610
   112  H    0.006864
   113  H    0.009521
   114  H    0.009093
   115  H    0.028000
   116  H    0.026443
   117  H    0.031361
   118  H    0.011582
   119  H    0.010590
   120  H    0.023145
   121  H    0.022682
   122  H    0.005462
   123  H    0.016566
   124  H    0.016774
   125  H    0.009095
   126  H    0.029896
   127  H    0.031599
   128  H    0.030146
   129  H    0.021366
   130  H    0.019131
   131  H    0.028537
   132  H    0.030921
   133  H    0.007237
   134  H    0.022393
   135  H    0.015860
   136  H    0.019196
   137  H    0.042977
   138  H    0.035362
   139  H    0.035391
   140  H    0.029756
 Sum of Mulliken charges =  -0.00000

 Dipole moment (field-independent basis, Debye):
    X=             -5.1526    Y=              2.6271    Z=              3.2473  Tot=              6.6330
 Quadrupole moment (field-independent basis, Debye-Ang):
   XX=           -372.3960   YY=           -421.1256   ZZ=           -404.8695
   XY=             22.7797   XZ=             13.7772   YZ=             -4.7993

 Normal termination of Gaussian 16 at Fri Apr 29 03:38:51 2022.
