 Gaussian 16, Revision A.03,
 Gaussian 16:  ES64L-G16RevA.03 25-Dec-2016

 --------------------
 #p ZINDO=(nstates=5)
 --------------------

 ------------------------------
 step_1851_chromophore_18 ZINDO
 ------------------------------
 Symbolic Z-matrix:
 Charge =  0 Multiplicity = 1

                         Standard orientation:
 ---------------------------------------------------------------------
 Center     Atomic      Atomic             Coordinates (Angstroms)
 Number     Number       Type             X           Y           Z
 ---------------------------------------------------------------------
      1         12           0        5.514689    1.243470    0.358660
      2          6           0        4.557125   -2.241799    0.326586
      3          6           0        2.163083    2.091676    0.169888
      4          6           0        6.317990    4.372301   -0.143446
      5          6           0        8.783829    0.170454   -0.451575
      6          7           0        3.594580   -0.066549    0.145158
      7          6           0        3.408755   -1.405515    0.321116
      8          6           0        1.943333   -1.752026    0.441600
      9          6           0        1.193695   -0.296247    0.424381
     10          6           0        2.403597    0.668509    0.207872
     11          6           0        0.023504   -0.213416   -0.616480
     12          6           0        1.578636   -2.708400    1.633450
     13          6           0        1.086412   -4.134386    1.337697
     14          6           0        0.163306   -4.243088    0.103285
     15          8           0        0.552160   -4.640592   -1.015290
     16          8           0       -1.157029   -4.139947    0.417592
     17          7           0        4.382340    2.974197    0.175445
     18          6           0        3.005587    3.180492    0.112216
     19          6           0        2.599652    4.556588    0.098931
     20          6           0        3.822769    5.235298    0.147048
     21          6           0        4.895884    4.222043    0.079202
     22          6           0        1.207419    5.030788   -0.106712
     23          6           0        4.051962    6.659829    0.204010
     24          8           0        5.199929    7.128667    0.209932
     25          6           0        2.910820    7.699039    0.153126
     26          7           0        7.281628    2.173624   -0.272802
     27          6           0        7.428349    3.490522   -0.280543
     28          6           0        8.872782    3.949573   -0.405756
     29          6           0        9.574649    2.569949   -0.456832
     30          6           0        8.502775    1.538317   -0.428838
     31          6           0        9.286199    4.970138   -1.552463
     32          6           0       10.585264    2.332736    0.735739
     33          6           0       10.064178    2.417187    2.148041
     34          7           0        6.523915   -0.552879   -0.011202
     35          6           0        7.861852   -0.822376   -0.208967
     36          6           0        8.133693   -2.264320   -0.222751
     37          6           0        6.842789   -2.881299   -0.043718
     38          6           0        5.914030   -1.801893    0.121565
     39          6           0        9.429913   -2.943405   -0.602245
     40          6           0        6.187892   -4.157541    0.098459
     41          8           0        6.576799   -5.310391   -0.006831
     42          6           0        4.672708   -3.781597    0.237799
     43          6           0        4.010513   -4.368564   -0.899306
     44          8           0        4.122578   -3.938070   -2.028485
     45          8           0        3.419923   -5.588300   -0.541505
     46          6           0        3.014789   -6.492805   -1.606062
     47          6           0       -2.174139   -4.290921   -0.687421
     48          6           0       -3.427113   -3.556119   -0.269283
     49          6           0       -4.705156   -3.900915   -0.385236
     50          6           0       -5.131902   -5.045539   -1.127690
     51          6           0       -5.901734   -3.233271    0.361670
     52          6           0       -6.365814   -1.908071   -0.223852
     53          6           0       -6.821104   -0.763537    0.705366
     54          6           0       -8.179237   -0.956650    1.417536
     55          6           0       -8.062605   -1.131589    2.889353
     56          6           0       -9.300705    0.153529    1.100558
     57          6           0      -10.304582   -0.342960    0.010835
     58          6           0      -11.641061   -0.710436    0.691451
     59          6           0      -12.480808    0.568736    1.046935
     60          6           0      -13.065018    0.435447    2.483038
     61          6           0      -13.636021    0.684928   -0.004496
     62          6           0      -14.046341    2.221388   -0.075473
     63          6           0      -14.768587    2.453787   -1.433929
     64          6           0      -15.959196    3.514114   -1.326015
     65          6           0      -17.311765    2.796051   -1.309777
     66          6           0      -15.894691    4.613007   -2.496355
     67          1           0        1.128702    2.307838    0.444306
     68          1           0        6.666277    5.403944   -0.065980
     69          1           0        9.813426   -0.136730   -0.648817
     70          1           0        1.725981   -2.308601   -0.469726
     71          1           0        0.650098   -0.136537    1.356152
     72          1           0       -0.103869   -1.103604   -1.233201
     73          1           0        0.148534    0.725434   -1.155117
     74          1           0       -0.927662    0.035931   -0.147044
     75          1           0        0.825560   -2.200201    2.235556
     76          1           0        2.425554   -2.720347    2.319917
     77          1           0        0.492454   -4.340684    2.229019
     78          1           0        1.907148   -4.847852    1.267596
     79          1           0        0.826970    5.507187    0.796633
     80          1           0        0.565060    4.189130   -0.363303
     81          1           0        1.236513    5.749562   -0.925731
     82          1           0        2.486251    7.741270   -0.849874
     83          1           0        3.317543    8.636747    0.532233
     84          1           0        2.181704    7.376704    0.895974
     85          1           0        9.248427    4.542178    0.428640
     86          1           0       10.056649    2.364733   -1.412791
     87          1           0        8.500294    5.381306   -2.184901
     88          1           0       10.109030    4.646657   -2.190137
     89          1           0        9.833118    5.782823   -1.073650
     90          1           0       11.394611    3.056783    0.646131
     91          1           0       11.142853    1.427737    0.491375
     92          1           0       10.363366    3.300289    2.712349
     93          1           0       10.329899    1.515689    2.701494
     94          1           0        8.990318    2.240106    2.086413
     95          1           0        9.373090   -3.901258   -0.085212
     96          1           0       10.310564   -2.457115   -0.184569
     97          1           0        9.542281   -3.091859   -1.676608
     98          1           0        4.323499   -4.307021    1.126704
     99          1           0        1.925015   -6.513401   -1.640434
    100          1           0        3.378158   -7.482726   -1.331052
    101          1           0        3.474797   -6.194310   -2.547851
    102          1           0       -2.288548   -5.373639   -0.634326
    103          1           0       -1.991415   -4.041774   -1.733212
    104          1           0       -3.244710   -2.734940    0.422461
    105          1           0       -6.182851   -5.031725   -1.413853
    106          1           0       -5.044344   -5.832554   -0.377673
    107          1           0       -4.618064   -5.289346   -2.057687
    108          1           0       -5.663343   -3.130428    1.420984
    109          1           0       -6.806887   -3.836948    0.301773
    110          1           0       -7.097364   -2.088981   -1.010871
    111          1           0       -5.569054   -1.443782   -0.805607
    112          1           0       -6.951466    0.171529    0.160919
    113          1           0       -6.014288   -0.520575    1.396683
    114          1           0       -8.583172   -1.915491    1.090723
    115          1           0       -8.056125   -0.140980    3.344625
    116          1           0       -7.164644   -1.650744    3.227176
    117          1           0       -8.980654   -1.686079    3.084580
    118          1           0       -8.902468    1.149695    0.905812
    119          1           0       -9.851646    0.408634    2.005221
    120          1           0       -9.906410   -1.251553   -0.440483
    121          1           0      -10.426503    0.425760   -0.752240
    122          1           0      -11.501024   -1.267111    1.617652
    123          1           0      -12.232427   -1.398230    0.086603
    124          1           0      -12.009154    1.538245    0.885424
    125          1           0      -14.109098    0.727297    2.594904
    126          1           0      -12.614950    1.178893    3.140513
    127          1           0      -13.110272   -0.587052    2.857944
    128          1           0      -14.545167    0.116773    0.190586
    129          1           0      -13.177678    0.381822   -0.946451
    130          1           0      -13.149917    2.837394   -0.133871
    131          1           0      -14.635617    2.577501    0.770396
    132          1           0      -14.998618    1.552924   -2.002563
    133          1           0      -14.076700    3.077185   -2.000618
    134          1           0      -15.898276    3.965163   -0.336110
    135          1           0      -17.511431    2.591459   -2.361370
    136          1           0      -18.114291    3.515230   -1.143050
    137          1           0      -17.300162    1.951284   -0.621749
    138          1           0      -15.773278    4.230495   -3.509495
    139          1           0      -15.033619    5.261920   -2.337042
    140          1           0      -16.827884    5.175142   -2.475808
 ---------------------------------------------------------------------

 SCF Done:  E(RZINDO/S) =  -474.083752780     A.U. after   20 cycles

 Excitation energies and oscillator strengths:

 Excited State   1:      Singlet-A      1.2132 eV 1022.00 nm  f=0.5959  <S**2>=0.000
     175 ->178        -0.20857
     176 ->177         0.65797
 This state for optimization and/or second-order correction.
 Total Energy, E(CIS/TDA) =  -474.039170278
 Copying the excited state density for this state as the 1-particle RhoCI density.

 Excited State   2:      Singlet-A      1.8616 eV  666.01 nm  f=0.0241  <S**2>=0.000
     175 ->177         0.53080
     176 ->178         0.44516

 Excited State   3:      Singlet-A      2.8244 eV  438.98 nm  f=0.0001  <S**2>=0.000
     169 ->177         0.12353
     169 ->179         0.14241
     169 ->182         0.12104
     170 ->177         0.29573
     170 ->179         0.34207
     170 ->182         0.29761
     170 ->186         0.17682
     170 ->187         0.13783

 Excited State   4:      Singlet-A      2.9044 eV  426.88 nm  f=0.2823  <S**2>=0.000
     175 ->177        -0.19668
     176 ->178         0.27932
     176 ->179         0.56577
     176 ->181         0.13491

 Excited State   5:      Singlet-A      2.9354 eV  422.38 nm  f=0.7190  <S**2>=0.000
     175 ->177        -0.32408
     176 ->178         0.38631
     176 ->179        -0.20953
     176 ->180         0.18567
     176 ->181        -0.35074
     176 ->182        -0.12774

 The electronic state is 1-A.
 Alpha  occ. eigenvalues --   -1.83048  -1.80458  -1.78535  -1.71424  -1.71067
 Alpha  occ. eigenvalues --   -1.68152  -1.65209  -1.60356  -1.58295  -1.57364
 Alpha  occ. eigenvalues --   -1.55370  -1.51626  -1.48379  -1.47556  -1.46536
 Alpha  occ. eigenvalues --   -1.43029  -1.42154  -1.40634  -1.39123  -1.38484
 Alpha  occ. eigenvalues --   -1.35879  -1.33247  -1.32742  -1.31321  -1.28896
 Alpha  occ. eigenvalues --   -1.27520  -1.24374  -1.22398  -1.20892  -1.17744
 Alpha  occ. eigenvalues --   -1.16740  -1.15583  -1.14842  -1.14546  -1.13445
 Alpha  occ. eigenvalues --   -1.13121  -1.10944  -1.09228  -1.04883  -1.02853
 Alpha  occ. eigenvalues --   -1.02592  -1.00413  -0.98931  -0.97608  -0.96787
 Alpha  occ. eigenvalues --   -0.96312  -0.95358  -0.94224  -0.93349  -0.92919
 Alpha  occ. eigenvalues --   -0.90757  -0.89661  -0.89244  -0.87399  -0.86966
 Alpha  occ. eigenvalues --   -0.85403  -0.84580  -0.82667  -0.81517  -0.80966
 Alpha  occ. eigenvalues --   -0.79729  -0.77627  -0.76620  -0.76275  -0.75760
 Alpha  occ. eigenvalues --   -0.75142  -0.74771  -0.74264  -0.74058  -0.73514
 Alpha  occ. eigenvalues --   -0.72801  -0.72348  -0.71702  -0.71003  -0.70802
 Alpha  occ. eigenvalues --   -0.69856  -0.68860  -0.68287  -0.67956  -0.67667
 Alpha  occ. eigenvalues --   -0.67498  -0.67376  -0.67039  -0.66510  -0.65587
 Alpha  occ. eigenvalues --   -0.65301  -0.64486  -0.64115  -0.63614  -0.63438
 Alpha  occ. eigenvalues --   -0.63250  -0.62738  -0.62681  -0.62464  -0.61900
 Alpha  occ. eigenvalues --   -0.61535  -0.60942  -0.60784  -0.60718  -0.60385
 Alpha  occ. eigenvalues --   -0.60086  -0.59635  -0.59230  -0.58630  -0.58049
 Alpha  occ. eigenvalues --   -0.57698  -0.57103  -0.56921  -0.56398  -0.55981
 Alpha  occ. eigenvalues --   -0.55524  -0.55231  -0.55121  -0.54774  -0.54343
 Alpha  occ. eigenvalues --   -0.53935  -0.53591  -0.53420  -0.52818  -0.52754
 Alpha  occ. eigenvalues --   -0.52507  -0.52433  -0.51854  -0.51722  -0.51050
 Alpha  occ. eigenvalues --   -0.50832  -0.50612  -0.50448  -0.50133  -0.49898
 Alpha  occ. eigenvalues --   -0.49598  -0.49491  -0.49314  -0.49132  -0.48698
 Alpha  occ. eigenvalues --   -0.48083  -0.47926  -0.47531  -0.47475  -0.47297
 Alpha  occ. eigenvalues --   -0.47267  -0.46984  -0.46831  -0.46582  -0.46375
 Alpha  occ. eigenvalues --   -0.46178  -0.46083  -0.45519  -0.45463  -0.45037
 Alpha  occ. eigenvalues --   -0.44747  -0.44703  -0.44645  -0.44273  -0.44074
 Alpha  occ. eigenvalues --   -0.43795  -0.43694  -0.43617  -0.43279  -0.41987
 Alpha  occ. eigenvalues --   -0.41671  -0.41300  -0.40324  -0.38747  -0.38136
 Alpha  occ. eigenvalues --   -0.37314  -0.37199  -0.34915  -0.34653  -0.34486
 Alpha  occ. eigenvalues --   -0.33299  -0.32473  -0.32336  -0.31582  -0.26201
 Alpha  occ. eigenvalues --   -0.21319
 Alpha virt. eigenvalues --   -0.08263  -0.02190  -0.00614   0.01096   0.01110
 Alpha virt. eigenvalues --    0.01229   0.02821   0.03621   0.04489   0.05285
 Alpha virt. eigenvalues --    0.06492   0.07486   0.07802   0.08008   0.08649

 Mulliken charges:
               1
     1  Mg   0.439249
     2  C   -0.048562
     3  C   -0.065896
     4  C   -0.088132
     5  C   -0.068446
     6  N   -0.279204
     7  C    0.139015
     8  C    0.000073
     9  C   -0.004806
    10  C    0.107159
    11  C   -0.058098
    12  C   -0.022139
    13  C    0.011523
    14  C    0.464257
    15  O   -0.523864
    16  O   -0.265851
    17  N   -0.324330
    18  C    0.097550
    19  C    0.020647
    20  C   -0.037719
    21  C    0.152428
    22  C   -0.033513
    23  C    0.315151
    24  O   -0.543504
    25  C   -0.034086
    26  N   -0.267140
    27  C    0.155996
    28  C    0.007431
    29  C    0.005756
    30  C    0.128615
    31  C   -0.059225
    32  C   -0.024811
    33  C   -0.051824
    34  N   -0.331825
    35  C    0.113811
    36  C    0.018632
    37  C   -0.049628
    38  C    0.106411
    39  C   -0.035854
    40  C    0.344975
    41  O   -0.515343
    42  C    0.060102
    43  C    0.497900
    44  O   -0.517343
    45  O   -0.283807
    46  C    0.074688
    47  C    0.110304
    48  C   -0.099804
    49  C    0.014047
    50  C   -0.037947
    51  C   -0.015163
    52  C   -0.025527
    53  C   -0.030267
    54  C   -0.011432
    55  C   -0.054944
    56  C   -0.041723
    57  C   -0.032100
    58  C   -0.031610
    59  C   -0.021190
    60  C   -0.063280
    61  C   -0.042476
    62  C   -0.044730
    63  C   -0.050297
    64  C   -0.022128
    65  C   -0.062823
    66  C   -0.058758
    67  H    0.018780
    68  H    0.032815
    69  H    0.029599
    70  H    0.050279
    71  H    0.031466
    72  H    0.037892
    73  H    0.020975
    74  H    0.011949
    75  H    0.017417
    76  H    0.020167
    77  H    0.030773
    78  H    0.054783
    79  H    0.034653
    80  H    0.027614
    81  H    0.033177
    82  H    0.046632
    83  H    0.040484
    84  H    0.023155
    85  H    0.039330
    86  H    0.030328
    87  H    0.035335
    88  H    0.017669
    89  H    0.014353
    90  H    0.005107
    91  H    0.017588
    92  H    0.033306
    93  H    0.014413
    94  H    0.022794
    95  H    0.028841
    96  H    0.022397
    97  H    0.044505
    98  H    0.041978
    99  H    0.047835
   100  H    0.029557
   101  H    0.053074
   102  H    0.039029
   103  H    0.069187
   104  H    0.019534
   105  H    0.013301
   106  H    0.033951
   107  H    0.024230
   108  H    0.024015
   109  H    0.020579
   110  H    0.016916
   111  H    0.007282
   112  H    0.011605
   113  H    0.018235
   114  H    0.014696
   115  H    0.017091
   116  H    0.017202
   117  H    0.019031
   118  H    0.018840
   119  H    0.015301
   120  H    0.017136
   121  H    0.023148
   122  H    0.016542
   123  H    0.014546
   124  H    0.036425
   125  H    0.007765
   126  H    0.018203
   127  H    0.026674
   128  H    0.028250
   129  H    0.018076
   130  H    0.018409
   131  H    0.028952
   132  H    0.033537
   133  H    0.009905
   134  H    0.021731
   135  H    0.016487
   136  H    0.012363
   137  H    0.029280
   138  H    0.023400
   139  H    0.016458
   140  H    0.017095
 Sum of Mulliken charges =  -0.00000

 Dipole moment (field-independent basis, Debye):
    X=             -6.5437    Y=              2.8872    Z=              5.5089  Tot=              9.0279
 N-N= 4.258697636720D+03 E-N= 0.000000000000D+00  KE=-9.192134432098D+03
 Leave Link  601 at Fri Apr 29 03:50:43 2022, MaxMem=  6710886400 cpu:               0.8 elap:               0.1
 (Enter /sw/apps/gaussian-16.0/g16/l9999.exe)
 1\1\GINC-BP1-COMPUTE082\SP\RZINDO CIS\STO-3G\C55H74Mg1N4O6\OF15641\29-
 Apr-2022\0\\#p ZINDO=(nstates=5)\\step_1851_chromophore_18 ZINDO\\0,1\
 Mg,0,35.794,49.274,25.041\C,0,35.443,47.642,28.247\C,0,34.174,52.039,2
 6.352\C,0,35.605,50.598,22.058\C,0,36.481,46.081,23.689\N,0,34.815,49.
 652,27.126\C,0,34.928,48.965,28.298\C,0,34.421,49.775,29.468\C,0,34.05
 ,51.227,28.808\C,0,34.346,50.961,27.297\C,0,32.608,51.724,29.173\C,0,3
 5.367,49.802,30.722\C,0,34.925,49.107,32.02\C,0,33.418,49.246,32.332\O

 Normal termination of Gaussian 16 at Fri Apr 29 03:50:43 2022.
