 Gaussian 16, Revision A.03,
 Gaussian 16:  ES64L-G16RevA.03 25-Dec-2016

 ------------------------------
 #p blyp/Def2SVP td=(nstates=5)
 ------------------------------

 -------------------------------------------------
 step_301_chromophore_6 TDDFT with blyp functional
 -------------------------------------------------
 Symbolic Z-matrix:
 Charge =  0 Multiplicity = 1

                         Standard orientation:
 ---------------------------------------------------------------------
 Center     Atomic      Atomic             Coordinates (Angstroms)
 Number     Number       Type             X           Y           Z
 ---------------------------------------------------------------------
      1         12           0       -5.534543    1.013499   -0.349074
      2          6           0       -4.602153   -2.332130   -0.298942
      3          6           0       -2.290366    1.921972   -0.805106
      4          6           0       -6.519328    4.181885    0.151565
      5          6           0       -8.818237   -0.008813    0.494362
      6          7           0       -3.647661   -0.087612   -0.444344
      7          6           0       -3.489309   -1.468643   -0.395303
      8          6           0       -1.918387   -1.833441   -0.411226
      9          6           0       -1.265571   -0.445242   -0.419105
     10          6           0       -2.525267    0.519439   -0.720685
     11          6           0       -0.494340    0.034939    0.832297
     12          6           0       -1.611452   -2.739110   -1.744326
     13          6           0       -0.289861   -3.591357   -1.626645
     14          6           0        0.346556   -3.857800   -0.244476
     15          8           0       -0.250635   -4.098846    0.783555
     16          8           0        1.729436   -3.772669   -0.297161
     17          7           0       -4.590196    2.768710   -0.401456
     18          6           0       -3.202002    2.912751   -0.676599
     19          6           0       -2.945436    4.298750   -0.599344
     20          6           0       -4.107213    5.035587   -0.415388
     21          6           0       -5.131052    3.977629   -0.201079
     22          6           0       -1.598256    4.890872   -0.765605
     23          6           0       -4.344857    6.554771   -0.421121
     24          8           0       -5.534113    6.972466   -0.365885
     25          6           0       -3.264960    7.604592   -0.540803
     26          7           0       -7.335095    1.958783    0.422815
     27          6           0       -7.467611    3.260920    0.462234
     28          6           0       -8.849348    3.659737    0.926712
     29          6           0       -9.667496    2.316845    0.862094
     30          6           0       -8.568063    1.342833    0.581664
     31          6           0       -8.822974    4.301173    2.340754
     32          6           0      -10.791112    2.340853   -0.246183
     33          6           0      -12.004552    3.233586    0.054449
     34          7           0       -6.619110   -0.748651   -0.074927
     35          6           0       -7.927657   -1.026074    0.154434
     36          6           0       -8.174700   -2.472191    0.003395
     37          6           0       -6.854709   -3.063602   -0.132962
     38          6           0       -5.971840   -1.941393   -0.097858
     39          6           0       -9.362794   -3.276798    0.318672
     40          6           0       -6.114113   -4.272385   -0.278248
     41          8           0       -6.533289   -5.429530   -0.342814
     42          6           0       -4.569566   -3.855411   -0.405231
     43          6           0       -3.898433   -4.507515    0.784169
     44          8           0       -3.857859   -4.050251    1.895047
     45          8           0       -3.263245   -5.603314    0.380778
     46          6           0       -2.750758   -6.481400    1.406319
     47          6           0        2.538504   -3.884273    0.920293
     48          6           0        3.805236   -3.175577    0.757565
     49          6           0        4.933838   -3.672293    0.258916
     50          6           0        5.147365   -4.986582   -0.392527
     51          6           0        6.156967   -2.778116    0.097600
     52          6           0        5.931808   -1.374972   -0.447705
     53          6           0        6.904031   -1.140682   -1.658828
     54          6           0        8.093076   -0.069999   -1.262843
     55          6           0        8.791403    0.540025   -2.558166
     56          6           0        9.160217   -0.682199   -0.390388
     57          6           0       10.195308    0.338037    0.177850
     58          6           0       11.614029   -0.028210   -0.219716
     59          6           0       12.597319    1.157675   -0.379432
     60          6           0       12.616646    1.712169   -1.807736
     61          6           0       13.951507    0.561468    0.044409
     62          6           0       14.255202    1.131365    1.493102
     63          6           0       15.717035    1.440785    1.549182
     64          6           0       16.174364    2.812094    1.011256
     65          6           0       15.654154    3.838455    1.994718
     66          6           0       17.722565    2.865987    0.991482
     67          1           0       -1.280333    2.210302   -1.103393
     68          1           0       -6.822879    5.189471    0.442255
     69          1           0       -9.841755   -0.391059    0.491834
     70          1           0       -1.669812   -2.264166    0.558522
     71          1           0       -0.699813   -0.454774   -1.351117
     72          1           0       -0.953744   -0.437756    1.699583
     73          1           0       -0.549918    1.117234    0.948292
     74          1           0        0.542795   -0.284200    0.729522
     75          1           0       -1.339602   -2.074588   -2.564735
     76          1           0       -2.444428   -3.326708   -2.128777
     77          1           0        0.547341   -3.071201   -2.093595
     78          1           0       -0.546604   -4.533119   -2.112633
     79          1           0       -1.490539    5.655142    0.004105
     80          1           0       -1.522071    5.390926   -1.730705
     81          1           0       -0.847892    4.151597   -0.483669
     82          1           0       -2.649155    7.348742   -1.403848
     83          1           0       -2.767982    7.685170    0.426563
     84          1           0       -3.831631    8.479603   -0.858542
     85          1           0       -9.483557    4.270666    0.285137
     86          1           0      -10.077588    2.046965    1.834941
     87          1           0       -8.886890    3.575038    3.151667
     88          1           0       -9.625858    5.015758    2.526182
     89          1           0       -7.890438    4.835208    2.520423
     90          1           0      -11.199436    1.331320   -0.290905
     91          1           0      -10.361776    2.575561   -1.220647
     92          1           0      -11.889382    3.882358    0.922274
     93          1           0      -12.803408    2.548218    0.337530
     94          1           0      -12.267884    3.775051   -0.854595
     95          1           0       -9.934131   -3.442129   -0.594346
     96          1           0       -9.985169   -2.776251    1.060022
     97          1           0       -9.057723   -4.223140    0.764717
     98          1           0       -4.213093   -4.243732   -1.358306
     99          1           0       -3.548929   -6.752190    2.097508
    100          1           0       -1.920442   -5.956582    1.880367
    101          1           0       -2.336716   -7.389530    0.968636
    102          1           0        2.524885   -4.942218    1.181506
    103          1           0        1.946274   -3.361964    1.670733
    104          1           0        3.615069   -2.111420    0.898195
    105          1           0        5.526213   -5.004392   -1.414128
    106          1           0        4.276347   -5.639906   -0.351130
    107          1           0        5.910224   -5.504653    0.188979
    108          1           0        6.884110   -3.401129   -0.423851
    109          1           0        6.572854   -2.651903    1.097347
    110          1           0        6.164869   -0.667098    0.347173
    111          1           0        4.939332   -1.119673   -0.818820
    112          1           0        6.293067   -0.716794   -2.455750
    113          1           0        7.361886   -1.988400   -2.168620
    114          1           0        7.707896    0.701220   -0.595849
    115          1           0        8.324404    0.361708   -3.527031
    116          1           0        9.816936    0.173197   -2.527329
    117          1           0        9.003250    1.602959   -2.442528
    118          1           0        9.561492   -1.498447   -0.990305
    119          1           0        8.645875   -1.133171    0.458789
    120          1           0       10.100163    0.385395    1.262220
    121          1           0       10.070632    1.328195   -0.259794
    122          1           0       11.544082   -0.526476   -1.186618
    123          1           0       11.973017   -0.668259    0.586794
    124          1           0       12.278006    2.017866    0.208596
    125          1           0       12.877466    2.769540   -1.775505
    126          1           0       11.621262    1.538099   -2.217464
    127          1           0       13.443026    1.275824   -2.369779
    128          1           0       14.796604    0.755851   -0.615618
    129          1           0       13.944851   -0.527641    0.087959
    130          1           0       14.116492    0.459848    2.339662
    131          1           0       13.721352    2.019223    1.834515
    132          1           0       16.268326    0.777738    0.881685
    133          1           0       16.030031    1.323343    2.587028
    134          1           0       15.906904    2.946534   -0.037436
    135          1           0       14.899036    4.464511    1.518328
    136          1           0       16.407287    4.506988    2.413107
    137          1           0       15.269328    3.425411    2.927087
    138          1           0       17.854647    3.333497    0.016064
    139          1           0       18.157988    1.867438    1.022994
    140          1           0       18.171413    3.496604    1.759125
 ---------------------------------------------------------------------

 SCF Done:  E(RB-LYP) =  -3007.36216679     A.U. after   22 cycles

 Excitation energies and oscillator strengths:

 Excited State   1:      Singlet-A      1.7848 eV  694.69 nm  f=0.2938  <S**2>=0.000
     245 -> 248       -0.15946
     246 -> 247        0.69218
     246 <- 247       -0.15317
 This state for optimization and/or second-order correction.
 Total Energy, E(TD-HF/TD-DFT) =  -3007.29657838
 Copying the excited state density for this state as the 1-particle RhoCI density.

 Excited State   2:      Singlet-A      1.9313 eV  641.99 nm  f=0.0017  <S**2>=0.000
     244 -> 247        0.70324

 Excited State   3:      Singlet-A      1.9884 eV  623.54 nm  f=0.0362  <S**2>=0.000
     243 -> 247        0.50014
     245 -> 247       -0.46834
     246 -> 248       -0.13147

 Excited State   4:      Singlet-A      2.0877 eV  593.87 nm  f=0.0499  <S**2>=0.000
     243 -> 247        0.49485
     245 -> 247        0.44577
     246 -> 248        0.17724
     246 -> 249       -0.10991

 Excited State   5:      Singlet-A      2.4862 eV  498.68 nm  f=0.0068  <S**2>=0.000
     241 -> 247        0.13470
     242 -> 247        0.67581

 The electronic state is 1-A.
 Alpha  occ. eigenvalues --  -46.26162 -18.81264 -18.80719 -18.77117 -18.75254
 Alpha  occ. eigenvalues --  -18.74978 -18.74853 -14.03401 -14.01960 -14.00837
 Alpha  occ. eigenvalues --  -14.00324 -10.04279 -10.02242 -10.00161  -9.98885
 Alpha  occ. eigenvalues --   -9.97289  -9.96365  -9.96235  -9.96175  -9.95930
 Alpha  occ. eigenvalues --   -9.95371  -9.94951  -9.94898  -9.94706  -9.94288
 Alpha  occ. eigenvalues --   -9.94189  -9.94084  -9.94067  -9.93719  -9.93670
 Alpha  occ. eigenvalues --   -9.93396  -9.93086  -9.93083  -9.92892  -9.92841
 Alpha  occ. eigenvalues --   -9.92759  -9.92733  -9.92726  -9.92713  -9.92674
 Alpha  occ. eigenvalues --   -9.92536  -9.92531  -9.92512  -9.92476  -9.92410
 Alpha  occ. eigenvalues --   -9.92311  -9.92250  -9.91686  -9.91641  -9.91627
 Alpha  occ. eigenvalues --   -9.91535  -9.91529  -9.91460  -9.91368  -9.91362
 Alpha  occ. eigenvalues --   -9.91339  -9.91305  -9.91174  -9.90883  -9.90807
 Alpha  occ. eigenvalues --   -9.90802  -9.90791  -9.90559  -9.90456  -9.90451
 Alpha  occ. eigenvalues --   -9.90299  -2.90949  -1.71370  -1.70828  -1.70669
 Alpha  occ. eigenvalues --   -0.97892  -0.97397  -0.90036  -0.89998  -0.89570
 Alpha  occ. eigenvalues --   -0.89250  -0.86505  -0.86047  -0.85237  -0.84720
 Alpha  occ. eigenvalues --   -0.74602  -0.74437  -0.73781  -0.72628  -0.72350
 Alpha  occ. eigenvalues --   -0.71873  -0.71567  -0.71200  -0.70409  -0.70350
 Alpha  occ. eigenvalues --   -0.69387  -0.69233  -0.68240  -0.66985  -0.66861
 Alpha  occ. eigenvalues --   -0.66336  -0.65969  -0.65660  -0.64814  -0.64551
 Alpha  occ. eigenvalues --   -0.64453  -0.62270  -0.61994  -0.61613  -0.60772
 Alpha  occ. eigenvalues --   -0.60177  -0.60144  -0.59871  -0.59245  -0.59048
 Alpha  occ. eigenvalues --   -0.58515  -0.56965  -0.56015  -0.55590  -0.54141
 Alpha  occ. eigenvalues --   -0.54070  -0.53371  -0.53149  -0.52378  -0.52137
 Alpha  occ. eigenvalues --   -0.50812  -0.50581  -0.50132  -0.49960  -0.49853
 Alpha  occ. eigenvalues --   -0.49283  -0.48835  -0.48150  -0.47668  -0.47044
 Alpha  occ. eigenvalues --   -0.46315  -0.45535  -0.45141  -0.44877  -0.43993
 Alpha  occ. eigenvalues --   -0.43734  -0.43505  -0.42894  -0.42702  -0.42442
 Alpha  occ. eigenvalues --   -0.42174  -0.41901  -0.41438  -0.41346  -0.41135
 Alpha  occ. eigenvalues --   -0.40883  -0.40609  -0.40586  -0.40233  -0.40058
 Alpha  occ. eigenvalues --   -0.39884  -0.39661  -0.39413  -0.39366  -0.39148
 Alpha  occ. eigenvalues --   -0.39039  -0.38833  -0.38674  -0.38351  -0.37993
 Alpha  occ. eigenvalues --   -0.37972  -0.37828  -0.37699  -0.37541  -0.36881
 Alpha  occ. eigenvalues --   -0.36772  -0.36575  -0.36404  -0.36262  -0.36158
 Alpha  occ. eigenvalues --   -0.36002  -0.35875  -0.35656  -0.35528  -0.35470
 Alpha  occ. eigenvalues --   -0.35157  -0.35078  -0.35017  -0.34808  -0.34501
 Alpha  occ. eigenvalues --   -0.34366  -0.34248  -0.34108  -0.34008  -0.33757
 Alpha  occ. eigenvalues --   -0.33670  -0.33504  -0.33464  -0.33036  -0.32950
 Alpha  occ. eigenvalues --   -0.32858  -0.32547  -0.32369  -0.32272  -0.31984
 Alpha  occ. eigenvalues --   -0.31958  -0.31720  -0.31595  -0.31352  -0.31292
 Alpha  occ. eigenvalues --   -0.31091  -0.30937  -0.30779  -0.30579  -0.30460
 Alpha  occ. eigenvalues --   -0.30198  -0.30098  -0.29943  -0.29888  -0.29845
 Alpha  occ. eigenvalues --   -0.29728  -0.29110  -0.29051  -0.29035  -0.28718
 Alpha  occ. eigenvalues --   -0.28575  -0.28481  -0.28146  -0.28063  -0.27755
 Alpha  occ. eigenvalues --   -0.27700  -0.27323  -0.26910  -0.26497  -0.26229
 Alpha  occ. eigenvalues --   -0.25953  -0.25820  -0.25731  -0.25261  -0.25138
 Alpha  occ. eigenvalues --   -0.24861  -0.24574  -0.23845  -0.23715  -0.22949
 Alpha  occ. eigenvalues --   -0.22917  -0.22433  -0.21600  -0.20681  -0.20633
 Alpha  occ. eigenvalues --   -0.20390  -0.19607  -0.18398  -0.18037  -0.16960
 Alpha  occ. eigenvalues --   -0.15219
 Alpha virt. eigenvalues --   -0.11037  -0.06304  -0.06064  -0.04531  -0.04118
 Alpha virt. eigenvalues --   -0.02788  -0.01752  -0.01347  -0.00377   0.00947
 Alpha virt. eigenvalues --    0.01575   0.01912   0.02304   0.02578   0.02885

 Mulliken charges:
               1
     1  Mg   0.705980
     2  C   -0.001615
     3  C   -0.123977
     4  C   -0.049468
     5  C   -0.081728
     6  N   -0.195542
     7  C   -0.069015
     8  C    0.022999
     9  C   -0.008182
    10  C   -0.011064
    11  C    0.149196
    12  C    0.106377
    13  C    0.117972
    14  C    0.067217
    15  O   -0.181936
    16  O   -0.288742
    17  N   -0.331240
    18  C    0.224110
    19  C   -0.178174
    20  C    0.074723
    21  C    0.072755
    22  C    0.186423
    23  C   -0.096209
    24  O   -0.202307
    25  C    0.157051
    26  N   -0.188313
    27  C    0.038384
    28  C    0.036107
    29  C    0.035152
    30  C    0.043948
    31  C    0.114540
    32  C    0.058004
    33  C    0.083968
    34  N   -0.249599
    35  C    0.088965
    36  C   -0.179096
    37  C    0.101166
    38  C    0.099318
    39  C    0.177601
    40  C   -0.089616
    41  O   -0.148904
    42  C    0.012667
    43  C    0.108379
    44  O   -0.172095
    45  O   -0.237874
    46  C    0.223850
    47  C    0.311690
    48  C   -0.103904
    49  C   -0.111694
    50  C    0.155602
    51  C    0.137641
    52  C    0.095462
    53  C    0.076688
    54  C   -0.099173
    55  C    0.105265
    56  C    0.090298
    57  C    0.091585
    58  C    0.073300
    59  C   -0.083739
    60  C    0.122350
    61  C    0.119924
    62  C    0.116284
    63  C    0.038168
    64  C   -0.095948
    65  C    0.116696
    66  C    0.112663
    67  H   -0.044466
    68  H   -0.039810
    69  H   -0.063768
    70  H    0.023083
    71  H   -0.047799
    72  H    0.006768
    73  H   -0.005629
    74  H   -0.003937
    75  H   -0.023784
    76  H   -0.009720
    77  H   -0.005465
    78  H    0.015414
    79  H   -0.017042
    80  H    0.017029
    81  H   -0.015247
    82  H   -0.004874
    83  H    0.032291
    84  H   -0.005408
    85  H   -0.023454
    86  H   -0.033909
    87  H   -0.016619
    88  H   -0.008752
    89  H   -0.010673
    90  H   -0.023794
    91  H   -0.017149
    92  H   -0.005823
    93  H   -0.013844
    94  H    0.000590
    95  H   -0.000482
    96  H   -0.012734
    97  H    0.010878
    98  H    0.004509
    99  H    0.013353
   100  H    0.020667
   101  H    0.000164
   102  H   -0.011607
   103  H   -0.022968
   104  H   -0.033183
   105  H    0.012124
   106  H   -0.018254
   107  H   -0.008973
   108  H   -0.037984
   109  H   -0.010433
   110  H   -0.024078
   111  H   -0.011804
   112  H   -0.041648
   113  H   -0.024898
   114  H   -0.035752
   115  H   -0.008107
   116  H   -0.020719
   117  H   -0.013139
   118  H   -0.034340
   119  H   -0.047747
   120  H   -0.027773
   121  H   -0.031663
   122  H   -0.025782
   123  H   -0.028066
   124  H   -0.030401
   125  H   -0.020981
   126  H   -0.021911
   127  H   -0.021382
   128  H   -0.033208
   129  H   -0.028582
   130  H   -0.043539
   131  H   -0.040386
   132  H   -0.040262
   133  H   -0.042678
   134  H   -0.035149
   135  H   -0.014606
   136  H   -0.031492
   137  H   -0.017356
   138  H   -0.020896
   139  H   -0.018935
   140  H   -0.013318
 Sum of Mulliken charges =  -0.00000

 Dipole moment (field-independent basis, Debye):
    X=              6.0766    Y=              1.7853    Z=             -1.9169  Tot=              6.6172
 Quadrupole moment (field-independent basis, Debye-Ang):
   XX=           -392.9670   YY=           -426.7045   ZZ=           -403.1796
   XY=            -21.3908   XZ=              2.9821   YZ=              6.6767

 Normal termination of Gaussian 16 at Fri Apr 29 14:18:53 2022.
