 Gaussian 16, Revision A.03,
 Gaussian 16:  ES64L-G16RevA.03 25-Dec-2016

 -----------------------------------
 #p cam-b3lyp/Def2SVP td=(nstates=5)
 -----------------------------------

 ------------------------------------------------------
 step_301_chromophore_6 TDDFT with cam-b3lyp functional
 ------------------------------------------------------
 Symbolic Z-matrix:
 Charge =  0 Multiplicity = 1

                         Standard orientation:
 ---------------------------------------------------------------------
 Center     Atomic      Atomic             Coordinates (Angstroms)
 Number     Number       Type             X           Y           Z
 ---------------------------------------------------------------------
      1         12           0       -5.534543    1.013499   -0.349074
      2          6           0       -4.602153   -2.332130   -0.298942
      3          6           0       -2.290366    1.921972   -0.805106
      4          6           0       -6.519328    4.181885    0.151565
      5          6           0       -8.818237   -0.008813    0.494362
      6          7           0       -3.647661   -0.087612   -0.444344
      7          6           0       -3.489309   -1.468643   -0.395303
      8          6           0       -1.918387   -1.833441   -0.411226
      9          6           0       -1.265571   -0.445242   -0.419105
     10          6           0       -2.525267    0.519439   -0.720685
     11          6           0       -0.494340    0.034939    0.832297
     12          6           0       -1.611452   -2.739110   -1.744326
     13          6           0       -0.289861   -3.591357   -1.626645
     14          6           0        0.346556   -3.857800   -0.244476
     15          8           0       -0.250635   -4.098846    0.783555
     16          8           0        1.729436   -3.772669   -0.297161
     17          7           0       -4.590196    2.768710   -0.401456
     18          6           0       -3.202002    2.912751   -0.676599
     19          6           0       -2.945436    4.298750   -0.599344
     20          6           0       -4.107213    5.035587   -0.415388
     21          6           0       -5.131052    3.977629   -0.201079
     22          6           0       -1.598256    4.890872   -0.765605
     23          6           0       -4.344857    6.554771   -0.421121
     24          8           0       -5.534113    6.972466   -0.365885
     25          6           0       -3.264960    7.604592   -0.540803
     26          7           0       -7.335095    1.958783    0.422815
     27          6           0       -7.467611    3.260920    0.462234
     28          6           0       -8.849348    3.659737    0.926712
     29          6           0       -9.667496    2.316845    0.862094
     30          6           0       -8.568063    1.342833    0.581664
     31          6           0       -8.822974    4.301173    2.340754
     32          6           0      -10.791112    2.340853   -0.246183
     33          6           0      -12.004552    3.233586    0.054449
     34          7           0       -6.619110   -0.748651   -0.074927
     35          6           0       -7.927657   -1.026074    0.154434
     36          6           0       -8.174700   -2.472191    0.003395
     37          6           0       -6.854709   -3.063602   -0.132962
     38          6           0       -5.971840   -1.941393   -0.097858
     39          6           0       -9.362794   -3.276798    0.318672
     40          6           0       -6.114113   -4.272385   -0.278248
     41          8           0       -6.533289   -5.429530   -0.342814
     42          6           0       -4.569566   -3.855411   -0.405231
     43          6           0       -3.898433   -4.507515    0.784169
     44          8           0       -3.857859   -4.050251    1.895047
     45          8           0       -3.263245   -5.603314    0.380778
     46          6           0       -2.750758   -6.481400    1.406319
     47          6           0        2.538504   -3.884273    0.920293
     48          6           0        3.805236   -3.175577    0.757565
     49          6           0        4.933838   -3.672293    0.258916
     50          6           0        5.147365   -4.986582   -0.392527
     51          6           0        6.156967   -2.778116    0.097600
     52          6           0        5.931808   -1.374972   -0.447705
     53          6           0        6.904031   -1.140682   -1.658828
     54          6           0        8.093076   -0.069999   -1.262843
     55          6           0        8.791403    0.540025   -2.558166
     56          6           0        9.160217   -0.682199   -0.390388
     57          6           0       10.195308    0.338037    0.177850
     58          6           0       11.614029   -0.028210   -0.219716
     59          6           0       12.597319    1.157675   -0.379432
     60          6           0       12.616646    1.712169   -1.807736
     61          6           0       13.951507    0.561468    0.044409
     62          6           0       14.255202    1.131365    1.493102
     63          6           0       15.717035    1.440785    1.549182
     64          6           0       16.174364    2.812094    1.011256
     65          6           0       15.654154    3.838455    1.994718
     66          6           0       17.722565    2.865987    0.991482
     67          1           0       -1.280333    2.210302   -1.103393
     68          1           0       -6.822879    5.189471    0.442255
     69          1           0       -9.841755   -0.391059    0.491834
     70          1           0       -1.669812   -2.264166    0.558522
     71          1           0       -0.699813   -0.454774   -1.351117
     72          1           0       -0.953744   -0.437756    1.699583
     73          1           0       -0.549918    1.117234    0.948292
     74          1           0        0.542795   -0.284200    0.729522
     75          1           0       -1.339602   -2.074588   -2.564735
     76          1           0       -2.444428   -3.326708   -2.128777
     77          1           0        0.547341   -3.071201   -2.093595
     78          1           0       -0.546604   -4.533119   -2.112633
     79          1           0       -1.490539    5.655142    0.004105
     80          1           0       -1.522071    5.390926   -1.730705
     81          1           0       -0.847892    4.151597   -0.483669
     82          1           0       -2.649155    7.348742   -1.403848
     83          1           0       -2.767982    7.685170    0.426563
     84          1           0       -3.831631    8.479603   -0.858542
     85          1           0       -9.483557    4.270666    0.285137
     86          1           0      -10.077588    2.046965    1.834941
     87          1           0       -8.886890    3.575038    3.151667
     88          1           0       -9.625858    5.015758    2.526182
     89          1           0       -7.890438    4.835208    2.520423
     90          1           0      -11.199436    1.331320   -0.290905
     91          1           0      -10.361776    2.575561   -1.220647
     92          1           0      -11.889382    3.882358    0.922274
     93          1           0      -12.803408    2.548218    0.337530
     94          1           0      -12.267884    3.775051   -0.854595
     95          1           0       -9.934131   -3.442129   -0.594346
     96          1           0       -9.985169   -2.776251    1.060022
     97          1           0       -9.057723   -4.223140    0.764717
     98          1           0       -4.213093   -4.243732   -1.358306
     99          1           0       -3.548929   -6.752190    2.097508
    100          1           0       -1.920442   -5.956582    1.880367
    101          1           0       -2.336716   -7.389530    0.968636
    102          1           0        2.524885   -4.942218    1.181506
    103          1           0        1.946274   -3.361964    1.670733
    104          1           0        3.615069   -2.111420    0.898195
    105          1           0        5.526213   -5.004392   -1.414128
    106          1           0        4.276347   -5.639906   -0.351130
    107          1           0        5.910224   -5.504653    0.188979
    108          1           0        6.884110   -3.401129   -0.423851
    109          1           0        6.572854   -2.651903    1.097347
    110          1           0        6.164869   -0.667098    0.347173
    111          1           0        4.939332   -1.119673   -0.818820
    112          1           0        6.293067   -0.716794   -2.455750
    113          1           0        7.361886   -1.988400   -2.168620
    114          1           0        7.707896    0.701220   -0.595849
    115          1           0        8.324404    0.361708   -3.527031
    116          1           0        9.816936    0.173197   -2.527329
    117          1           0        9.003250    1.602959   -2.442528
    118          1           0        9.561492   -1.498447   -0.990305
    119          1           0        8.645875   -1.133171    0.458789
    120          1           0       10.100163    0.385395    1.262220
    121          1           0       10.070632    1.328195   -0.259794
    122          1           0       11.544082   -0.526476   -1.186618
    123          1           0       11.973017   -0.668259    0.586794
    124          1           0       12.278006    2.017866    0.208596
    125          1           0       12.877466    2.769540   -1.775505
    126          1           0       11.621262    1.538099   -2.217464
    127          1           0       13.443026    1.275824   -2.369779
    128          1           0       14.796604    0.755851   -0.615618
    129          1           0       13.944851   -0.527641    0.087959
    130          1           0       14.116492    0.459848    2.339662
    131          1           0       13.721352    2.019223    1.834515
    132          1           0       16.268326    0.777738    0.881685
    133          1           0       16.030031    1.323343    2.587028
    134          1           0       15.906904    2.946534   -0.037436
    135          1           0       14.899036    4.464511    1.518328
    136          1           0       16.407287    4.506988    2.413107
    137          1           0       15.269328    3.425411    2.927087
    138          1           0       17.854647    3.333497    0.016064
    139          1           0       18.157988    1.867438    1.022994
    140          1           0       18.171413    3.496604    1.759125
 ---------------------------------------------------------------------

 SCF Done:  E(RCAM-B3LYP) =  -3007.16552619     A.U. after   17 cycles

 Excitation energies and oscillator strengths:

 Excited State   1:      Singlet-A      1.7286 eV  717.27 nm  f=0.3771  <S**2>=0.000
     245 -> 248        0.16826
     246 -> 247        0.68727
     245 <- 248        0.10381
 This state for optimization and/or second-order correction.
 Total Energy, E(TD-HF/TD-DFT) =  -3007.10200290
 Copying the excited state density for this state as the 1-particle RhoCI density.

 Excited State   2:      Singlet-A      2.3015 eV  538.71 nm  f=0.0995  <S**2>=0.000
     245 -> 247        0.62913
     246 -> 248       -0.30730

 Excited State   3:      Singlet-A      3.4466 eV  359.73 nm  f=0.0010  <S**2>=0.000
     242 -> 247       -0.21101
     244 -> 247        0.65275

 Excited State   4:      Singlet-A      3.5009 eV  354.15 nm  f=0.3949  <S**2>=0.000
     239 -> 247       -0.23688
     239 -> 249        0.16215
     242 -> 247        0.24601
     245 -> 247        0.22737
     246 -> 248        0.51047

 Excited State   5:      Singlet-A      3.5397 eV  350.26 nm  f=0.0038  <S**2>=0.000
     243 -> 247        0.54699
     243 -> 249        0.28050
     243 -> 250        0.25826

 The electronic state is 1-A.
 Alpha  occ. eigenvalues --  -46.87641 -19.24091 -19.23531 -19.20094 -19.18956
 Alpha  occ. eigenvalues --  -19.17820 -19.17809 -14.42587 -14.40446 -14.39487
 Alpha  occ. eigenvalues --  -14.38478 -10.39622 -10.37479 -10.35885 -10.33974
 Alpha  occ. eigenvalues --  -10.31379 -10.31113 -10.30902 -10.30631 -10.30027
 Alpha  occ. eigenvalues --  -10.29807 -10.29382 -10.29321 -10.28363 -10.28335
 Alpha  occ. eigenvalues --  -10.28249 -10.28095 -10.28073 -10.28056 -10.27963
 Alpha  occ. eigenvalues --  -10.27842 -10.27788 -10.27396 -10.27335 -10.27315
 Alpha  occ. eigenvalues --  -10.27033 -10.26971 -10.26871 -10.26579 -10.26534
 Alpha  occ. eigenvalues --  -10.26459 -10.26422 -10.26415 -10.26234 -10.26099
 Alpha  occ. eigenvalues --  -10.26001 -10.25942 -10.25479 -10.25338 -10.25189
 Alpha  occ. eigenvalues --  -10.25146 -10.25145 -10.25111 -10.25059 -10.25052
 Alpha  occ. eigenvalues --  -10.25025 -10.24866 -10.24627 -10.24568 -10.24510
 Alpha  occ. eigenvalues --  -10.24486 -10.24475 -10.24151 -10.24092 -10.24064
 Alpha  occ. eigenvalues --  -10.23951  -3.16340  -1.91235  -1.90784  -1.90663
 Alpha  occ. eigenvalues --   -1.16373  -1.15855  -1.08345  -1.08102  -1.07828
 Alpha  occ. eigenvalues --   -1.07133  -1.04309  -1.03722  -1.02937  -1.02064
 Alpha  occ. eigenvalues --   -0.91515  -0.91404  -0.90671  -0.89404  -0.89386
 Alpha  occ. eigenvalues --   -0.88672  -0.88145  -0.87825  -0.87361  -0.86806
 Alpha  occ. eigenvalues --   -0.85780  -0.85368  -0.84556  -0.82990  -0.82941
 Alpha  occ. eigenvalues --   -0.82507  -0.82122  -0.81871  -0.80693  -0.80337
 Alpha  occ. eigenvalues --   -0.80293  -0.78393  -0.77570  -0.77002  -0.76124
 Alpha  occ. eigenvalues --   -0.75562  -0.75492  -0.75199  -0.74500  -0.74302
 Alpha  occ. eigenvalues --   -0.73594  -0.71839  -0.70886  -0.70390  -0.68717
 Alpha  occ. eigenvalues --   -0.68602  -0.67918  -0.67617  -0.67025  -0.66463
 Alpha  occ. eigenvalues --   -0.65021  -0.64531  -0.64151  -0.64041  -0.63782
 Alpha  occ. eigenvalues --   -0.62953  -0.62746  -0.62015  -0.61267  -0.60620
 Alpha  occ. eigenvalues --   -0.60151  -0.59068  -0.58735  -0.58233  -0.57402
 Alpha  occ. eigenvalues --   -0.57034  -0.56850  -0.56119  -0.55814  -0.55614
 Alpha  occ. eigenvalues --   -0.55382  -0.55149  -0.54358  -0.54092  -0.54030
 Alpha  occ. eigenvalues --   -0.53852  -0.53644  -0.53461  -0.53077  -0.52853
 Alpha  occ. eigenvalues --   -0.52700  -0.52445  -0.52334  -0.52105  -0.51829
 Alpha  occ. eigenvalues --   -0.51597  -0.51467  -0.51146  -0.50784  -0.50522
 Alpha  occ. eigenvalues --   -0.50295  -0.50163  -0.49964  -0.49942  -0.49424
 Alpha  occ. eigenvalues --   -0.49127  -0.48908  -0.48735  -0.48616  -0.48433
 Alpha  occ. eigenvalues --   -0.48268  -0.47959  -0.47802  -0.47762  -0.47595
 Alpha  occ. eigenvalues --   -0.47296  -0.47181  -0.46963  -0.46798  -0.46667
 Alpha  occ. eigenvalues --   -0.46497  -0.46162  -0.46028  -0.45683  -0.45632
 Alpha  occ. eigenvalues --   -0.45416  -0.45193  -0.45089  -0.44759  -0.44562
 Alpha  occ. eigenvalues --   -0.44459  -0.44396  -0.44044  -0.43906  -0.43638
 Alpha  occ. eigenvalues --   -0.43497  -0.43356  -0.43266  -0.43056  -0.42751
 Alpha  occ. eigenvalues --   -0.42641  -0.42392  -0.42258  -0.42080  -0.42006
 Alpha  occ. eigenvalues --   -0.41795  -0.41541  -0.41362  -0.41131  -0.41029
 Alpha  occ. eigenvalues --   -0.40722  -0.40540  -0.40495  -0.40116  -0.40107
 Alpha  occ. eigenvalues --   -0.39813  -0.39691  -0.39540  -0.39113  -0.38753
 Alpha  occ. eigenvalues --   -0.38571  -0.38196  -0.37679  -0.37219  -0.37016
 Alpha  occ. eigenvalues --   -0.36966  -0.36675  -0.36449  -0.36250  -0.36034
 Alpha  occ. eigenvalues --   -0.35707  -0.35317  -0.35146  -0.34151  -0.33900
 Alpha  occ. eigenvalues --   -0.33282  -0.33125  -0.32725  -0.31369  -0.31023
 Alpha  occ. eigenvalues --   -0.30605  -0.29950  -0.29710  -0.28403  -0.23819
 Alpha  occ. eigenvalues --   -0.20478
 Alpha virt. eigenvalues --   -0.08027  -0.01019   0.00313   0.02375   0.03125
 Alpha virt. eigenvalues --    0.03273   0.04854   0.05796   0.07094   0.07489
 Alpha virt. eigenvalues --    0.08180   0.08568   0.08746   0.08963   0.09263

 Mulliken charges:
               1
     1  Mg   0.841077
     2  C   -0.023458
     3  C   -0.140686
     4  C   -0.068738
     5  C   -0.085057
     6  N   -0.258997
     7  C   -0.035712
     8  C   -0.027627
     9  C   -0.060939
    10  C    0.016415
    11  C    0.091887
    12  C    0.060372
    13  C    0.048387
    14  C    0.147717
    15  O   -0.223210
    16  O   -0.355115
    17  N   -0.425920
    18  C    0.234262
    19  C   -0.180920
    20  C    0.001958
    21  C    0.112029
    22  C    0.124100
    23  C   -0.014866
    24  O   -0.238580
    25  C    0.075759
    26  N   -0.264258
    27  C    0.057656
    28  C   -0.022362
    29  C   -0.018579
    30  C    0.059715
    31  C    0.059217
    32  C    0.004514
    33  C    0.020366
    34  N   -0.336110
    35  C    0.086594
    36  C   -0.163131
    37  C    0.019851
    38  C    0.128385
    39  C    0.114965
    40  C    0.004914
    41  O   -0.190252
    42  C   -0.058751
    43  C    0.194400
    44  O   -0.207859
    45  O   -0.299573
    46  C    0.182565
    47  C    0.274923
    48  C   -0.127818
    49  C   -0.123669
    50  C    0.086032
    51  C    0.081246
    52  C    0.032767
    53  C    0.026997
    54  C   -0.147706
    55  C    0.044845
    56  C    0.038988
    57  C    0.036356
    58  C    0.023777
    59  C   -0.142058
    60  C    0.071415
    61  C    0.061305
    62  C    0.063209
    63  C   -0.017928
    64  C   -0.151565
    65  C    0.050724
    66  C    0.054477
    67  H   -0.006074
    68  H   -0.003597
    69  H   -0.030674
    70  H    0.057496
    71  H   -0.012607
    72  H    0.032625
    73  H    0.018745
    74  H    0.019052
    75  H    0.006004
    76  H    0.018426
    77  H    0.027708
    78  H    0.047624
    79  H    0.012752
    80  H    0.045456
    81  H    0.013963
    82  H    0.023574
    83  H    0.059779
    84  H    0.032627
    85  H    0.012103
    86  H    0.001877
    87  H    0.008900
    88  H    0.015367
    89  H    0.013844
    90  H    0.004321
    91  H    0.010469
    92  H    0.015057
    93  H    0.010302
    94  H    0.023934
    95  H    0.023764
    96  H    0.010260
    97  H    0.036773
    98  H    0.046210
    99  H    0.036775
   100  H    0.044080
   101  H    0.023947
   102  H    0.017271
   103  H    0.009158
   104  H   -0.002142
   105  H    0.037049
   106  H    0.008630
   107  H    0.015933
   108  H   -0.007874
   109  H    0.018206
   110  H    0.004773
   111  H    0.016916
   112  H   -0.011199
   113  H    0.001903
   114  H   -0.005706
   115  H    0.017441
   116  H   -0.002204
   117  H    0.010296
   118  H   -0.006506
   119  H   -0.019280
   120  H    0.001813
   121  H   -0.005728
   122  H    0.001096
   123  H    0.000877
   124  H    0.001062
   125  H    0.003217
   126  H   -0.003114
   127  H    0.002763
   128  H   -0.005899
   129  H    0.002630
   130  H   -0.013151
   131  H   -0.012158
   132  H   -0.012997
   133  H   -0.012264
   134  H   -0.004735
   135  H    0.009356
   136  H   -0.005026
   137  H    0.006699
   138  H    0.003205
   139  H    0.005694
   140  H    0.010409
 Sum of Mulliken charges =  -0.00000

 Dipole moment (field-independent basis, Debye):
    X=              7.1907    Y=              2.9985    Z=             -2.1527  Tot=              8.0828
 Quadrupole moment (field-independent basis, Debye-Ang):
   XX=           -402.1110   YY=           -420.2141   ZZ=           -402.9076
   XY=            -25.6642   XZ=              3.4588   YZ=              6.4181

 Normal termination of Gaussian 16 at Fri Apr 29 13:21:02 2022.
