 Gaussian 16, Revision A.03,
 Gaussian 16:  ES64L-G16RevA.03 25-Dec-2016

 ---------------------------------
 #p PBE1PBE/Def2SVP td=(nstates=5)
 ---------------------------------

 ----------------------------------------------------
 step_301_chromophore_6 TDDFT with PBE1PBE functional
 ----------------------------------------------------
 Symbolic Z-matrix:
 Charge =  0 Multiplicity = 1

                         Standard orientation:
 ---------------------------------------------------------------------
 Center     Atomic      Atomic             Coordinates (Angstroms)
 Number     Number       Type             X           Y           Z
 ---------------------------------------------------------------------
      1         12           0       -5.534543    1.013499   -0.349074
      2          6           0       -4.602153   -2.332130   -0.298942
      3          6           0       -2.290366    1.921972   -0.805106
      4          6           0       -6.519328    4.181885    0.151565
      5          6           0       -8.818237   -0.008813    0.494362
      6          7           0       -3.647661   -0.087612   -0.444344
      7          6           0       -3.489309   -1.468643   -0.395303
      8          6           0       -1.918387   -1.833441   -0.411226
      9          6           0       -1.265571   -0.445242   -0.419105
     10          6           0       -2.525267    0.519439   -0.720685
     11          6           0       -0.494340    0.034939    0.832297
     12          6           0       -1.611452   -2.739110   -1.744326
     13          6           0       -0.289861   -3.591357   -1.626645
     14          6           0        0.346556   -3.857800   -0.244476
     15          8           0       -0.250635   -4.098846    0.783555
     16          8           0        1.729436   -3.772669   -0.297161
     17          7           0       -4.590196    2.768710   -0.401456
     18          6           0       -3.202002    2.912751   -0.676599
     19          6           0       -2.945436    4.298750   -0.599344
     20          6           0       -4.107213    5.035587   -0.415388
     21          6           0       -5.131052    3.977629   -0.201079
     22          6           0       -1.598256    4.890872   -0.765605
     23          6           0       -4.344857    6.554771   -0.421121
     24          8           0       -5.534113    6.972466   -0.365885
     25          6           0       -3.264960    7.604592   -0.540803
     26          7           0       -7.335095    1.958783    0.422815
     27          6           0       -7.467611    3.260920    0.462234
     28          6           0       -8.849348    3.659737    0.926712
     29          6           0       -9.667496    2.316845    0.862094
     30          6           0       -8.568063    1.342833    0.581664
     31          6           0       -8.822974    4.301173    2.340754
     32          6           0      -10.791112    2.340853   -0.246183
     33          6           0      -12.004552    3.233586    0.054449
     34          7           0       -6.619110   -0.748651   -0.074927
     35          6           0       -7.927657   -1.026074    0.154434
     36          6           0       -8.174700   -2.472191    0.003395
     37          6           0       -6.854709   -3.063602   -0.132962
     38          6           0       -5.971840   -1.941393   -0.097858
     39          6           0       -9.362794   -3.276798    0.318672
     40          6           0       -6.114113   -4.272385   -0.278248
     41          8           0       -6.533289   -5.429530   -0.342814
     42          6           0       -4.569566   -3.855411   -0.405231
     43          6           0       -3.898433   -4.507515    0.784169
     44          8           0       -3.857859   -4.050251    1.895047
     45          8           0       -3.263245   -5.603314    0.380778
     46          6           0       -2.750758   -6.481400    1.406319
     47          6           0        2.538504   -3.884273    0.920293
     48          6           0        3.805236   -3.175577    0.757565
     49          6           0        4.933838   -3.672293    0.258916
     50          6           0        5.147365   -4.986582   -0.392527
     51          6           0        6.156967   -2.778116    0.097600
     52          6           0        5.931808   -1.374972   -0.447705
     53          6           0        6.904031   -1.140682   -1.658828
     54          6           0        8.093076   -0.069999   -1.262843
     55          6           0        8.791403    0.540025   -2.558166
     56          6           0        9.160217   -0.682199   -0.390388
     57          6           0       10.195308    0.338037    0.177850
     58          6           0       11.614029   -0.028210   -0.219716
     59          6           0       12.597319    1.157675   -0.379432
     60          6           0       12.616646    1.712169   -1.807736
     61          6           0       13.951507    0.561468    0.044409
     62          6           0       14.255202    1.131365    1.493102
     63          6           0       15.717035    1.440785    1.549182
     64          6           0       16.174364    2.812094    1.011256
     65          6           0       15.654154    3.838455    1.994718
     66          6           0       17.722565    2.865987    0.991482
     67          1           0       -1.280333    2.210302   -1.103393
     68          1           0       -6.822879    5.189471    0.442255
     69          1           0       -9.841755   -0.391059    0.491834
     70          1           0       -1.669812   -2.264166    0.558522
     71          1           0       -0.699813   -0.454774   -1.351117
     72          1           0       -0.953744   -0.437756    1.699583
     73          1           0       -0.549918    1.117234    0.948292
     74          1           0        0.542795   -0.284200    0.729522
     75          1           0       -1.339602   -2.074588   -2.564735
     76          1           0       -2.444428   -3.326708   -2.128777
     77          1           0        0.547341   -3.071201   -2.093595
     78          1           0       -0.546604   -4.533119   -2.112633
     79          1           0       -1.490539    5.655142    0.004105
     80          1           0       -1.522071    5.390926   -1.730705
     81          1           0       -0.847892    4.151597   -0.483669
     82          1           0       -2.649155    7.348742   -1.403848
     83          1           0       -2.767982    7.685170    0.426563
     84          1           0       -3.831631    8.479603   -0.858542
     85          1           0       -9.483557    4.270666    0.285137
     86          1           0      -10.077588    2.046965    1.834941
     87          1           0       -8.886890    3.575038    3.151667
     88          1           0       -9.625858    5.015758    2.526182
     89          1           0       -7.890438    4.835208    2.520423
     90          1           0      -11.199436    1.331320   -0.290905
     91          1           0      -10.361776    2.575561   -1.220647
     92          1           0      -11.889382    3.882358    0.922274
     93          1           0      -12.803408    2.548218    0.337530
     94          1           0      -12.267884    3.775051   -0.854595
     95          1           0       -9.934131   -3.442129   -0.594346
     96          1           0       -9.985169   -2.776251    1.060022
     97          1           0       -9.057723   -4.223140    0.764717
     98          1           0       -4.213093   -4.243732   -1.358306
     99          1           0       -3.548929   -6.752190    2.097508
    100          1           0       -1.920442   -5.956582    1.880367
    101          1           0       -2.336716   -7.389530    0.968636
    102          1           0        2.524885   -4.942218    1.181506
    103          1           0        1.946274   -3.361964    1.670733
    104          1           0        3.615069   -2.111420    0.898195
    105          1           0        5.526213   -5.004392   -1.414128
    106          1           0        4.276347   -5.639906   -0.351130
    107          1           0        5.910224   -5.504653    0.188979
    108          1           0        6.884110   -3.401129   -0.423851
    109          1           0        6.572854   -2.651903    1.097347
    110          1           0        6.164869   -0.667098    0.347173
    111          1           0        4.939332   -1.119673   -0.818820
    112          1           0        6.293067   -0.716794   -2.455750
    113          1           0        7.361886   -1.988400   -2.168620
    114          1           0        7.707896    0.701220   -0.595849
    115          1           0        8.324404    0.361708   -3.527031
    116          1           0        9.816936    0.173197   -2.527329
    117          1           0        9.003250    1.602959   -2.442528
    118          1           0        9.561492   -1.498447   -0.990305
    119          1           0        8.645875   -1.133171    0.458789
    120          1           0       10.100163    0.385395    1.262220
    121          1           0       10.070632    1.328195   -0.259794
    122          1           0       11.544082   -0.526476   -1.186618
    123          1           0       11.973017   -0.668259    0.586794
    124          1           0       12.278006    2.017866    0.208596
    125          1           0       12.877466    2.769540   -1.775505
    126          1           0       11.621262    1.538099   -2.217464
    127          1           0       13.443026    1.275824   -2.369779
    128          1           0       14.796604    0.755851   -0.615618
    129          1           0       13.944851   -0.527641    0.087959
    130          1           0       14.116492    0.459848    2.339662
    131          1           0       13.721352    2.019223    1.834515
    132          1           0       16.268326    0.777738    0.881685
    133          1           0       16.030031    1.323343    2.587028
    134          1           0       15.906904    2.946534   -0.037436
    135          1           0       14.899036    4.464511    1.518328
    136          1           0       16.407287    4.506988    2.413107
    137          1           0       15.269328    3.425411    2.927087
    138          1           0       17.854647    3.333497    0.016064
    139          1           0       18.157988    1.867438    1.022994
    140          1           0       18.171413    3.496604    1.759125
 ---------------------------------------------------------------------

 SCF Done:  E(RPBE1PBE) =  -3005.35285134     A.U. after   16 cycles

 Excitation energies and oscillator strengths:

 Excited State   1:      Singlet-A      1.8460 eV  671.64 nm  f=0.3643  <S**2>=0.000
     245 -> 248        0.16662
     246 -> 247        0.69514
     246 <- 247       -0.11004
 This state for optimization and/or second-order correction.
 Total Energy, E(TD-HF/TD-DFT) =  -3005.28501230
 Copying the excited state density for this state as the 1-particle RhoCI density.

 Excited State   2:      Singlet-A      2.2828 eV  543.12 nm  f=0.1045  <S**2>=0.000
     245 -> 247        0.64550
     246 -> 248       -0.27507

 Excited State   3:      Singlet-A      2.9921 eV  414.38 nm  f=0.0007  <S**2>=0.000
     243 -> 247        0.55947
     243 -> 249        0.15521
     243 -> 250        0.10712
     244 -> 247        0.37258

 Excited State   4:      Singlet-A      3.0536 eV  406.02 nm  f=0.0049  <S**2>=0.000
     242 -> 247        0.13502
     243 -> 247       -0.37199
     244 -> 247        0.57013

 Excited State   5:      Singlet-A      3.1276 eV  396.42 nm  f=0.0018  <S**2>=0.000
     241 -> 247        0.51889
     241 -> 249       -0.17877
     242 -> 247        0.36297
     242 -> 249       -0.11080
     246 -> 248       -0.10485

 The electronic state is 1-A.
 Alpha  occ. eigenvalues --  -46.91051 -19.24766 -19.24206 -19.20307 -19.18921
 Alpha  occ. eigenvalues --  -19.18303 -19.18074 -14.41889 -14.40133 -14.39027
 Alpha  occ. eigenvalues --  -14.38305 -10.36615 -10.34518 -10.32784 -10.31345
 Alpha  occ. eigenvalues --  -10.28700 -10.28650 -10.28587 -10.28237 -10.27321
 Alpha  occ. eigenvalues --  -10.27271 -10.27076 -10.26893 -10.26460 -10.26113
 Alpha  occ. eigenvalues --  -10.26112 -10.26007 -10.25630 -10.25569 -10.25568
 Alpha  occ. eigenvalues --  -10.25449 -10.25252 -10.25132 -10.25055 -10.24673
 Alpha  occ. eigenvalues --  -10.24636 -10.24389 -10.24366 -10.24297 -10.24143
 Alpha  occ. eigenvalues --  -10.24031 -10.23825 -10.23804 -10.23773 -10.23750
 Alpha  occ. eigenvalues --  -10.23715 -10.23492 -10.23006 -10.22991 -10.22986
 Alpha  occ. eigenvalues --  -10.22883 -10.22671 -10.22640 -10.22625 -10.22586
 Alpha  occ. eigenvalues --  -10.22465 -10.22411 -10.22373 -10.22280 -10.22182
 Alpha  occ. eigenvalues --  -10.22040 -10.22021 -10.21893 -10.21535 -10.21502
 Alpha  occ. eigenvalues --  -10.21464  -3.13324  -1.86161  -1.85687  -1.85572
 Alpha  occ. eigenvalues --   -1.11214  -1.10612  -1.03065  -1.02785  -1.02657
 Alpha  occ. eigenvalues --   -1.02004  -0.98855  -0.98352  -0.97508  -0.96906
 Alpha  occ. eigenvalues --   -0.85875  -0.85649  -0.84750  -0.83511  -0.83487
 Alpha  occ. eigenvalues --   -0.82826  -0.82478  -0.81936  -0.81449  -0.81211
 Alpha  occ. eigenvalues --   -0.80021  -0.79884  -0.78710  -0.77354  -0.77160
 Alpha  occ. eigenvalues --   -0.76677  -0.76223  -0.76021  -0.75034  -0.74723
 Alpha  occ. eigenvalues --   -0.74432  -0.72453  -0.71840  -0.71404  -0.70308
 Alpha  occ. eigenvalues --   -0.69870  -0.69637  -0.69321  -0.68848  -0.68458
 Alpha  occ. eigenvalues --   -0.67868  -0.66398  -0.65298  -0.64700  -0.63033
 Alpha  occ. eigenvalues --   -0.62898  -0.62435  -0.61800  -0.61383  -0.60655
 Alpha  occ. eigenvalues --   -0.59452  -0.59041  -0.58651  -0.58378  -0.58118
 Alpha  occ. eigenvalues --   -0.57461  -0.56933  -0.56214  -0.55895  -0.54943
 Alpha  occ. eigenvalues --   -0.54540  -0.53631  -0.53297  -0.52839  -0.52041
 Alpha  occ. eigenvalues --   -0.51581  -0.51210  -0.50553  -0.50207  -0.50056
 Alpha  occ. eigenvalues --   -0.49850  -0.49646  -0.48939  -0.48629  -0.48481
 Alpha  occ. eigenvalues --   -0.48203  -0.47976  -0.47914  -0.47665  -0.47339
 Alpha  occ. eigenvalues --   -0.47146  -0.47039  -0.46840  -0.46690  -0.46330
 Alpha  occ. eigenvalues --   -0.46076  -0.45916  -0.45741  -0.45296  -0.45073
 Alpha  occ. eigenvalues --   -0.45020  -0.44680  -0.44607  -0.44495  -0.43800
 Alpha  occ. eigenvalues --   -0.43686  -0.43522  -0.43301  -0.43209  -0.43077
 Alpha  occ. eigenvalues --   -0.42869  -0.42510  -0.42447  -0.42331  -0.42249
 Alpha  occ. eigenvalues --   -0.41895  -0.41840  -0.41622  -0.41352  -0.41301
 Alpha  occ. eigenvalues --   -0.41166  -0.40870  -0.40689  -0.40382  -0.40339
 Alpha  occ. eigenvalues --   -0.40235  -0.39979  -0.39786  -0.39502  -0.39291
 Alpha  occ. eigenvalues --   -0.39222  -0.39199  -0.38813  -0.38717  -0.38303
 Alpha  occ. eigenvalues --   -0.38227  -0.38094  -0.38035  -0.37877  -0.37520
 Alpha  occ. eigenvalues --   -0.37429  -0.37172  -0.37125  -0.36862  -0.36744
 Alpha  occ. eigenvalues --   -0.36494  -0.36312  -0.36128  -0.36048  -0.35820
 Alpha  occ. eigenvalues --   -0.35664  -0.35399  -0.35273  -0.34983  -0.34835
 Alpha  occ. eigenvalues --   -0.34693  -0.34499  -0.34452  -0.33870  -0.33753
 Alpha  occ. eigenvalues --   -0.33351  -0.32966  -0.32514  -0.32266  -0.32069
 Alpha  occ. eigenvalues --   -0.31821  -0.31686  -0.31273  -0.31154  -0.31126
 Alpha  occ. eigenvalues --   -0.30695  -0.30254  -0.29992  -0.29298  -0.28938
 Alpha  occ. eigenvalues --   -0.28571  -0.28244  -0.27658  -0.26581  -0.25886
 Alpha  occ. eigenvalues --   -0.25754  -0.25440  -0.24824  -0.24367  -0.20685
 Alpha  occ. eigenvalues --   -0.18117
 Alpha virt. eigenvalues --   -0.10573  -0.04571  -0.03851  -0.02021  -0.01178
 Alpha virt. eigenvalues --    0.00363   0.00550   0.01486   0.02807   0.03815
 Alpha virt. eigenvalues --    0.04388   0.04868   0.05245   0.05518   0.05847

 Mulliken charges:
               1
     1  Mg   0.991953
     2  C   -0.044034
     3  C   -0.140389
     4  C   -0.043331
     5  C   -0.071645
     6  N   -0.364986
     7  C    0.044508
     8  C   -0.102887
     9  C   -0.133044
    10  C    0.066112
    11  C    0.030549
    12  C    0.011638
    13  C   -0.026088
    14  C    0.214360
    15  O   -0.257699
    16  O   -0.386627
    17  N   -0.545840
    18  C    0.254591
    19  C   -0.217044
    20  C   -0.049607
    21  C    0.147557
    22  C    0.064927
    23  C    0.032784
    24  O   -0.273956
    25  C    0.001363
    26  N   -0.368508
    27  C    0.079010
    28  C   -0.098432
    29  C   -0.090707
    30  C    0.095444
    31  C    0.004966
    32  C   -0.061747
    33  C   -0.049953
    34  N   -0.457462
    35  C    0.104718
    36  C   -0.164879
    37  C   -0.026340
    38  C    0.179730
    39  C    0.054971
    40  C    0.092861
    41  O   -0.233656
    42  C   -0.169854
    43  C    0.293894
    44  O   -0.243774
    45  O   -0.335100
    46  C    0.126318
    47  C    0.234076
    48  C   -0.141318
    49  C   -0.162503
    50  C    0.018982
    51  C    0.022720
    52  C   -0.033881
    53  C   -0.023880
    54  C   -0.233033
    55  C   -0.020267
    56  C   -0.017116
    57  C   -0.025802
    58  C   -0.031817
    59  C   -0.228052
    60  C    0.007621
    61  C    0.005300
    62  C    0.010676
    63  C   -0.086791
    64  C   -0.240764
    65  C   -0.006971
    66  C   -0.002683
    67  H    0.023544
    68  H    0.027790
    69  H    0.001787
    70  H    0.095873
    71  H    0.026375
    72  H    0.058668
    73  H    0.048082
    74  H    0.046896
    75  H    0.039340
    76  H    0.050072
    77  H    0.059040
    78  H    0.078824
    79  H    0.041482
    80  H    0.071510
    81  H    0.039587
    82  H    0.050806
    83  H    0.084609
    84  H    0.058938
    85  H    0.050303
    86  H    0.038815
    87  H    0.035928
    88  H    0.042321
    89  H    0.042598
    90  H    0.038507
    91  H    0.043669
    92  H    0.043225
    93  H    0.038399
    94  H    0.052060
    95  H    0.054240
    96  H    0.038746
    97  H    0.065465
    98  H    0.082387
    99  H    0.058469
   100  H    0.067529
   101  H    0.046368
   102  H    0.042817
   103  H    0.036249
   104  H    0.027302
   105  H    0.064000
   106  H    0.036947
   107  H    0.045059
   108  H    0.022720
   109  H    0.051338
   110  H    0.037044
   111  H    0.048063
   112  H    0.022496
   113  H    0.032375
   114  H    0.032632
   115  H    0.044604
   116  H    0.028280
   117  H    0.038070
   118  H    0.025655
   119  H    0.017429
   120  H    0.034546
   121  H    0.027745
   122  H    0.034070
   123  H    0.035053
   124  H    0.037448
   125  H    0.031774
   126  H    0.028809
   127  H    0.030281
   128  H    0.024601
   129  H    0.035005
   130  H    0.019845
   131  H    0.019459
   132  H    0.021600
   133  H    0.021259
   134  H    0.031055
   135  H    0.037404
   136  H    0.022487
   137  H    0.032844
   138  H    0.030949
   139  H    0.032225
   140  H    0.037050
 Sum of Mulliken charges =  -0.00000

 Dipole moment (field-independent basis, Debye):
    X=              6.6298    Y=              2.4296    Z=             -2.0381  Tot=              7.3492
 Quadrupole moment (field-independent basis, Debye-Ang):
   XX=           -389.2503   YY=           -419.0024   ZZ=           -400.4549
   XY=            -23.4573   XZ=              2.5340   YZ=              7.0076

 Normal termination of Gaussian 16 at Fri Apr 29 13:36:43 2022.
