 Gaussian 16, Revision A.03,
 Gaussian 16:  ES64L-G16RevA.03 25-Dec-2016

 --------------------------------
 #p wB97XD/Def2SVP td=(nstates=5)
 --------------------------------

 ---------------------------------------------------
 step_301_chromophore_6 TDDFT with wB97XD functional
 ---------------------------------------------------
 Symbolic Z-matrix:
 Charge =  0 Multiplicity = 1

                         Standard orientation:
 ---------------------------------------------------------------------
 Center     Atomic      Atomic             Coordinates (Angstroms)
 Number     Number       Type             X           Y           Z
 ---------------------------------------------------------------------
      1         12           0       -5.534543    1.013499   -0.349074
      2          6           0       -4.602153   -2.332130   -0.298942
      3          6           0       -2.290366    1.921972   -0.805106
      4          6           0       -6.519328    4.181885    0.151565
      5          6           0       -8.818237   -0.008813    0.494362
      6          7           0       -3.647661   -0.087612   -0.444344
      7          6           0       -3.489309   -1.468643   -0.395303
      8          6           0       -1.918387   -1.833441   -0.411226
      9          6           0       -1.265571   -0.445242   -0.419105
     10          6           0       -2.525267    0.519439   -0.720685
     11          6           0       -0.494340    0.034939    0.832297
     12          6           0       -1.611452   -2.739110   -1.744326
     13          6           0       -0.289861   -3.591357   -1.626645
     14          6           0        0.346556   -3.857800   -0.244476
     15          8           0       -0.250635   -4.098846    0.783555
     16          8           0        1.729436   -3.772669   -0.297161
     17          7           0       -4.590196    2.768710   -0.401456
     18          6           0       -3.202002    2.912751   -0.676599
     19          6           0       -2.945436    4.298750   -0.599344
     20          6           0       -4.107213    5.035587   -0.415388
     21          6           0       -5.131052    3.977629   -0.201079
     22          6           0       -1.598256    4.890872   -0.765605
     23          6           0       -4.344857    6.554771   -0.421121
     24          8           0       -5.534113    6.972466   -0.365885
     25          6           0       -3.264960    7.604592   -0.540803
     26          7           0       -7.335095    1.958783    0.422815
     27          6           0       -7.467611    3.260920    0.462234
     28          6           0       -8.849348    3.659737    0.926712
     29          6           0       -9.667496    2.316845    0.862094
     30          6           0       -8.568063    1.342833    0.581664
     31          6           0       -8.822974    4.301173    2.340754
     32          6           0      -10.791112    2.340853   -0.246183
     33          6           0      -12.004552    3.233586    0.054449
     34          7           0       -6.619110   -0.748651   -0.074927
     35          6           0       -7.927657   -1.026074    0.154434
     36          6           0       -8.174700   -2.472191    0.003395
     37          6           0       -6.854709   -3.063602   -0.132962
     38          6           0       -5.971840   -1.941393   -0.097858
     39          6           0       -9.362794   -3.276798    0.318672
     40          6           0       -6.114113   -4.272385   -0.278248
     41          8           0       -6.533289   -5.429530   -0.342814
     42          6           0       -4.569566   -3.855411   -0.405231
     43          6           0       -3.898433   -4.507515    0.784169
     44          8           0       -3.857859   -4.050251    1.895047
     45          8           0       -3.263245   -5.603314    0.380778
     46          6           0       -2.750758   -6.481400    1.406319
     47          6           0        2.538504   -3.884273    0.920293
     48          6           0        3.805236   -3.175577    0.757565
     49          6           0        4.933838   -3.672293    0.258916
     50          6           0        5.147365   -4.986582   -0.392527
     51          6           0        6.156967   -2.778116    0.097600
     52          6           0        5.931808   -1.374972   -0.447705
     53          6           0        6.904031   -1.140682   -1.658828
     54          6           0        8.093076   -0.069999   -1.262843
     55          6           0        8.791403    0.540025   -2.558166
     56          6           0        9.160217   -0.682199   -0.390388
     57          6           0       10.195308    0.338037    0.177850
     58          6           0       11.614029   -0.028210   -0.219716
     59          6           0       12.597319    1.157675   -0.379432
     60          6           0       12.616646    1.712169   -1.807736
     61          6           0       13.951507    0.561468    0.044409
     62          6           0       14.255202    1.131365    1.493102
     63          6           0       15.717035    1.440785    1.549182
     64          6           0       16.174364    2.812094    1.011256
     65          6           0       15.654154    3.838455    1.994718
     66          6           0       17.722565    2.865987    0.991482
     67          1           0       -1.280333    2.210302   -1.103393
     68          1           0       -6.822879    5.189471    0.442255
     69          1           0       -9.841755   -0.391059    0.491834
     70          1           0       -1.669812   -2.264166    0.558522
     71          1           0       -0.699813   -0.454774   -1.351117
     72          1           0       -0.953744   -0.437756    1.699583
     73          1           0       -0.549918    1.117234    0.948292
     74          1           0        0.542795   -0.284200    0.729522
     75          1           0       -1.339602   -2.074588   -2.564735
     76          1           0       -2.444428   -3.326708   -2.128777
     77          1           0        0.547341   -3.071201   -2.093595
     78          1           0       -0.546604   -4.533119   -2.112633
     79          1           0       -1.490539    5.655142    0.004105
     80          1           0       -1.522071    5.390926   -1.730705
     81          1           0       -0.847892    4.151597   -0.483669
     82          1           0       -2.649155    7.348742   -1.403848
     83          1           0       -2.767982    7.685170    0.426563
     84          1           0       -3.831631    8.479603   -0.858542
     85          1           0       -9.483557    4.270666    0.285137
     86          1           0      -10.077588    2.046965    1.834941
     87          1           0       -8.886890    3.575038    3.151667
     88          1           0       -9.625858    5.015758    2.526182
     89          1           0       -7.890438    4.835208    2.520423
     90          1           0      -11.199436    1.331320   -0.290905
     91          1           0      -10.361776    2.575561   -1.220647
     92          1           0      -11.889382    3.882358    0.922274
     93          1           0      -12.803408    2.548218    0.337530
     94          1           0      -12.267884    3.775051   -0.854595
     95          1           0       -9.934131   -3.442129   -0.594346
     96          1           0       -9.985169   -2.776251    1.060022
     97          1           0       -9.057723   -4.223140    0.764717
     98          1           0       -4.213093   -4.243732   -1.358306
     99          1           0       -3.548929   -6.752190    2.097508
    100          1           0       -1.920442   -5.956582    1.880367
    101          1           0       -2.336716   -7.389530    0.968636
    102          1           0        2.524885   -4.942218    1.181506
    103          1           0        1.946274   -3.361964    1.670733
    104          1           0        3.615069   -2.111420    0.898195
    105          1           0        5.526213   -5.004392   -1.414128
    106          1           0        4.276347   -5.639906   -0.351130
    107          1           0        5.910224   -5.504653    0.188979
    108          1           0        6.884110   -3.401129   -0.423851
    109          1           0        6.572854   -2.651903    1.097347
    110          1           0        6.164869   -0.667098    0.347173
    111          1           0        4.939332   -1.119673   -0.818820
    112          1           0        6.293067   -0.716794   -2.455750
    113          1           0        7.361886   -1.988400   -2.168620
    114          1           0        7.707896    0.701220   -0.595849
    115          1           0        8.324404    0.361708   -3.527031
    116          1           0        9.816936    0.173197   -2.527329
    117          1           0        9.003250    1.602959   -2.442528
    118          1           0        9.561492   -1.498447   -0.990305
    119          1           0        8.645875   -1.133171    0.458789
    120          1           0       10.100163    0.385395    1.262220
    121          1           0       10.070632    1.328195   -0.259794
    122          1           0       11.544082   -0.526476   -1.186618
    123          1           0       11.973017   -0.668259    0.586794
    124          1           0       12.278006    2.017866    0.208596
    125          1           0       12.877466    2.769540   -1.775505
    126          1           0       11.621262    1.538099   -2.217464
    127          1           0       13.443026    1.275824   -2.369779
    128          1           0       14.796604    0.755851   -0.615618
    129          1           0       13.944851   -0.527641    0.087959
    130          1           0       14.116492    0.459848    2.339662
    131          1           0       13.721352    2.019223    1.834515
    132          1           0       16.268326    0.777738    0.881685
    133          1           0       16.030031    1.323343    2.587028
    134          1           0       15.906904    2.946534   -0.037436
    135          1           0       14.899036    4.464511    1.518328
    136          1           0       16.407287    4.506988    2.413107
    137          1           0       15.269328    3.425411    2.927087
    138          1           0       17.854647    3.333497    0.016064
    139          1           0       18.157988    1.867438    1.022994
    140          1           0       18.171413    3.496604    1.759125
 ---------------------------------------------------------------------

 SCF Done:  E(RwB97XD) =  -3007.86407154     A.U. after   18 cycles

 Excitation energies and oscillator strengths:

 Excited State   1:      Singlet-A      1.6920 eV  732.77 nm  f=0.3768  <S**2>=0.000
     245 -> 248        0.17153
     246 -> 247        0.68480
     245 <- 248        0.11097
 This state for optimization and/or second-order correction.
 Total Energy, E(TD-HF/TD-DFT) =  -3007.80189182
 Copying the excited state density for this state as the 1-particle RhoCI density.

 Excited State   2:      Singlet-A      2.2521 eV  550.54 nm  f=0.0963  <S**2>=0.000
     245 -> 247        0.62671
     246 -> 248       -0.30873

 Excited State   3:      Singlet-A      3.4983 eV  354.41 nm  f=0.0190  <S**2>=0.000
     242 -> 247       -0.31986
     244 -> 247        0.57794
     244 -> 249        0.10176

 Excited State   4:      Singlet-A      3.5099 eV  353.24 nm  f=0.3618  <S**2>=0.000
     239 -> 247       -0.20682
     239 -> 249        0.11793
     240 -> 249        0.12890
     242 -> 247        0.18330
     244 -> 247        0.22883
     245 -> 247        0.21242
     246 -> 248        0.50387

 Excited State   5:      Singlet-A      3.5653 eV  347.75 nm  f=0.0944  <S**2>=0.000
     239 -> 247        0.14361
     239 -> 249       -0.18593
     239 -> 250        0.11215
     240 -> 247        0.46092
     240 -> 249       -0.29544
     240 -> 250        0.14076
     242 -> 247        0.11900
     245 -> 247        0.10067
     246 -> 248        0.23565

 The electronic state is 1-A.
 Alpha  occ. eigenvalues --  -46.93991 -19.29312 -19.28716 -19.24966 -19.24070
 Alpha  occ. eigenvalues --  -19.22829 -19.22711 -14.47215 -14.44995 -14.44148
 Alpha  occ. eigenvalues --  -14.43030 -10.43392 -10.41286 -10.39940 -10.37957
 Alpha  occ. eigenvalues --  -10.35245 -10.35197 -10.35038 -10.34656 -10.33946
 Alpha  occ. eigenvalues --  -10.33733 -10.33411 -10.33262 -10.32342 -10.32339
 Alpha  occ. eigenvalues --  -10.32304 -10.32281 -10.32020 -10.31995 -10.31967
 Alpha  occ. eigenvalues --  -10.31930 -10.31837 -10.31500 -10.31453 -10.31435
 Alpha  occ. eigenvalues --  -10.31039 -10.30902 -10.30900 -10.30598 -10.30563
 Alpha  occ. eigenvalues --  -10.30433 -10.30292 -10.30284 -10.30195 -10.30079
 Alpha  occ. eigenvalues --  -10.29919 -10.29890 -10.29402 -10.29276 -10.29185
 Alpha  occ. eigenvalues --  -10.29050 -10.29009 -10.28992 -10.28989 -10.28949
 Alpha  occ. eigenvalues --  -10.28930 -10.28801 -10.28678 -10.28433 -10.28401
 Alpha  occ. eigenvalues --  -10.28360 -10.28353 -10.28086 -10.27973 -10.27886
 Alpha  occ. eigenvalues --  -10.27866  -3.20105  -1.93696  -1.93221  -1.93101
 Alpha  occ. eigenvalues --   -1.18529  -1.17984  -1.10621  -1.10292  -1.09991
 Alpha  occ. eigenvalues --   -1.09290  -1.06337  -1.05721  -1.05017  -1.04059
 Alpha  occ. eigenvalues --   -0.93355  -0.93331  -0.92434  -0.91383  -0.91172
 Alpha  occ. eigenvalues --   -0.90513  -0.90004  -0.89619  -0.89378  -0.88707
 Alpha  occ. eigenvalues --   -0.87652  -0.87244  -0.86404  -0.84872  -0.84815
 Alpha  occ. eigenvalues --   -0.84423  -0.84048  -0.83729  -0.82628  -0.82286
 Alpha  occ. eigenvalues --   -0.82126  -0.80419  -0.79460  -0.78902  -0.77982
 Alpha  occ. eigenvalues --   -0.77432  -0.77346  -0.77028  -0.76440  -0.76150
 Alpha  occ. eigenvalues --   -0.75512  -0.73806  -0.72852  -0.72321  -0.70602
 Alpha  occ. eigenvalues --   -0.70506  -0.69902  -0.69472  -0.69052  -0.68328
 Alpha  occ. eigenvalues --   -0.66988  -0.66505  -0.66083  -0.65847  -0.65774
 Alpha  occ. eigenvalues --   -0.64914  -0.64597  -0.63861  -0.63238  -0.62498
 Alpha  occ. eigenvalues --   -0.62188  -0.61031  -0.60728  -0.60215  -0.59340
 Alpha  occ. eigenvalues --   -0.58996  -0.58726  -0.58089  -0.57706  -0.57539
 Alpha  occ. eigenvalues --   -0.57245  -0.57048  -0.56322  -0.55981  -0.55936
 Alpha  occ. eigenvalues --   -0.55816  -0.55564  -0.55372  -0.55001  -0.54744
 Alpha  occ. eigenvalues --   -0.54681  -0.54365  -0.54235  -0.54014  -0.53713
 Alpha  occ. eigenvalues --   -0.53610  -0.53350  -0.53075  -0.52663  -0.52397
 Alpha  occ. eigenvalues --   -0.52207  -0.52044  -0.51851  -0.51836  -0.51442
 Alpha  occ. eigenvalues --   -0.51072  -0.50878  -0.50652  -0.50499  -0.50323
 Alpha  occ. eigenvalues --   -0.50150  -0.49824  -0.49744  -0.49700  -0.49499
 Alpha  occ. eigenvalues --   -0.49179  -0.49101  -0.48886  -0.48640  -0.48631
 Alpha  occ. eigenvalues --   -0.48401  -0.48053  -0.47901  -0.47560  -0.47549
 Alpha  occ. eigenvalues --   -0.47315  -0.47099  -0.46976  -0.46688  -0.46438
 Alpha  occ. eigenvalues --   -0.46368  -0.46289  -0.45937  -0.45799  -0.45594
 Alpha  occ. eigenvalues --   -0.45374  -0.45295  -0.45201  -0.44961  -0.44666
 Alpha  occ. eigenvalues --   -0.44560  -0.44259  -0.44215  -0.44082  -0.43885
 Alpha  occ. eigenvalues --   -0.43755  -0.43457  -0.43262  -0.42973  -0.42952
 Alpha  occ. eigenvalues --   -0.42634  -0.42425  -0.42374  -0.42043  -0.41957
 Alpha  occ. eigenvalues --   -0.41697  -0.41554  -0.41406  -0.40988  -0.40709
 Alpha  occ. eigenvalues --   -0.40414  -0.40045  -0.39539  -0.39110  -0.38893
 Alpha  occ. eigenvalues --   -0.38851  -0.38735  -0.38317  -0.38208  -0.38031
 Alpha  occ. eigenvalues --   -0.37592  -0.37290  -0.36994  -0.36067  -0.35909
 Alpha  occ. eigenvalues --   -0.35257  -0.35123  -0.34693  -0.33459  -0.33153
 Alpha  occ. eigenvalues --   -0.32624  -0.32164  -0.31656  -0.30520  -0.25765
 Alpha  occ. eigenvalues --   -0.22306
 Alpha virt. eigenvalues --   -0.06363   0.00899   0.02355   0.04483   0.05478
 Alpha virt. eigenvalues --    0.06254   0.07259   0.08207   0.09692   0.10163
 Alpha virt. eigenvalues --    0.11054   0.11468   0.12119   0.12226   0.12501

 Mulliken charges:
               1
     1  Mg   0.982082
     2  C   -0.035731
     3  C   -0.153235
     4  C   -0.074376
     5  C   -0.090296
     6  N   -0.326604
     7  C    0.005083
     8  C   -0.074915
     9  C   -0.108099
    10  C    0.045473
    11  C    0.043183
    12  C    0.024957
    13  C   -0.011198
    14  C    0.201274
    15  O   -0.253468
    16  O   -0.385194
    17  N   -0.515579
    18  C    0.250944
    19  C   -0.199201
    20  C   -0.042945
    21  C    0.142505
    22  C    0.076092
    23  C    0.029845
    24  O   -0.266273
    25  C    0.011774
    26  N   -0.336002
    27  C    0.078811
    28  C   -0.075784
    29  C   -0.065521
    30  C    0.081939
    31  C    0.014195
    32  C   -0.042924
    33  C   -0.037166
    34  N   -0.421433
    35  C    0.095876
    36  C   -0.168490
    37  C   -0.022938
    38  C    0.156824
    39  C    0.066660
    40  C    0.075988
    41  O   -0.225958
    42  C   -0.129172
    43  C    0.264435
    44  O   -0.237051
    45  O   -0.331970
    46  C    0.141612
    47  C    0.243956
    48  C   -0.148777
    49  C   -0.149194
    50  C    0.032943
    51  C    0.038957
    52  C   -0.017044
    53  C   -0.011483
    54  C   -0.201619
    55  C   -0.002060
    56  C    0.002898
    57  C   -0.008369
    58  C   -0.013092
    59  C   -0.199070
    60  C    0.026221
    61  C    0.021862
    62  C    0.019606
    63  C   -0.055987
    64  C   -0.215762
    65  C    0.002293
    66  C    0.007520
    67  H    0.019081
    68  H    0.021571
    69  H   -0.006331
    70  H    0.081568
    71  H    0.013602
    72  H    0.054430
    73  H    0.039716
    74  H    0.042473
    75  H    0.030414
    76  H    0.041065
    77  H    0.052884
    78  H    0.074764
    79  H    0.035997
    80  H    0.069011
    81  H    0.036282
    82  H    0.045461
    83  H    0.082391
    84  H    0.058959
    85  H    0.039106
    86  H    0.028711
    87  H    0.030571
    88  H    0.037476
    89  H    0.034991
    90  H    0.028668
    91  H    0.035149
    92  H    0.035616
    93  H    0.032832
    94  H    0.046566
    95  H    0.047387
    96  H    0.031409
    97  H    0.059961
    98  H    0.075878
    99  H    0.054872
   100  H    0.062769
   101  H    0.042909
   102  H    0.039687
   103  H    0.031763
   104  H    0.023502
   105  H    0.059144
   106  H    0.031864
   107  H    0.038417
   108  H    0.013082
   109  H    0.043383
   110  H    0.028353
   111  H    0.040309
   112  H    0.014641
   113  H    0.023805
   114  H    0.018841
   115  H    0.041012
   116  H    0.012403
   117  H    0.031510
   118  H    0.013950
   119  H    0.005299
   120  H    0.028862
   121  H    0.013402
   122  H    0.021196
   123  H    0.024893
   124  H    0.024956
   125  H    0.026234
   126  H    0.015127
   127  H    0.024337
   128  H    0.013672
   129  H    0.026619
   130  H    0.013360
   131  H    0.008089
   132  H    0.007960
   133  H    0.012055
   134  H    0.021049
   135  H    0.031837
   136  H    0.016569
   137  H    0.025761
   138  H    0.025340
   139  H    0.026524
   140  H    0.031159
 Sum of Mulliken charges =  -0.00000

 Dipole moment (field-independent basis, Debye):
    X=              7.3731    Y=              3.2245    Z=             -2.1883  Tot=              8.3396
 Quadrupole moment (field-independent basis, Debye-Ang):
   XX=           -398.0997   YY=           -415.3710   ZZ=           -400.1160
   XY=            -26.3352   XZ=              3.2502   YZ=              6.4649

 Normal termination of Gaussian 16 at Fri Apr 29 14:07:03 2022.
