 Gaussian 16, Revision A.03,
 Gaussian 16:  ES64L-G16RevA.03 25-Dec-2016

 --------------------
 #p ZINDO=(nstates=5)
 --------------------

 ----------------------------
 step_301_chromophore_6 ZINDO
 ----------------------------
 Symbolic Z-matrix:
 Charge =  0 Multiplicity = 1

                         Standard orientation:
 ---------------------------------------------------------------------
 Center     Atomic      Atomic             Coordinates (Angstroms)
 Number     Number       Type             X           Y           Z
 ---------------------------------------------------------------------
      1         12           0       -5.534543    1.013499   -0.349074
      2          6           0       -4.602153   -2.332130   -0.298942
      3          6           0       -2.290366    1.921972   -0.805106
      4          6           0       -6.519328    4.181885    0.151565
      5          6           0       -8.818237   -0.008813    0.494362
      6          7           0       -3.647661   -0.087612   -0.444344
      7          6           0       -3.489309   -1.468643   -0.395303
      8          6           0       -1.918387   -1.833441   -0.411226
      9          6           0       -1.265571   -0.445242   -0.419105
     10          6           0       -2.525267    0.519439   -0.720685
     11          6           0       -0.494340    0.034939    0.832297
     12          6           0       -1.611452   -2.739110   -1.744326
     13          6           0       -0.289861   -3.591357   -1.626645
     14          6           0        0.346556   -3.857800   -0.244476
     15          8           0       -0.250635   -4.098846    0.783555
     16          8           0        1.729436   -3.772669   -0.297161
     17          7           0       -4.590196    2.768710   -0.401456
     18          6           0       -3.202002    2.912751   -0.676599
     19          6           0       -2.945436    4.298750   -0.599344
     20          6           0       -4.107213    5.035587   -0.415388
     21          6           0       -5.131052    3.977629   -0.201079
     22          6           0       -1.598256    4.890872   -0.765605
     23          6           0       -4.344857    6.554771   -0.421121
     24          8           0       -5.534113    6.972466   -0.365885
     25          6           0       -3.264960    7.604592   -0.540803
     26          7           0       -7.335095    1.958783    0.422815
     27          6           0       -7.467611    3.260920    0.462234
     28          6           0       -8.849348    3.659737    0.926712
     29          6           0       -9.667496    2.316845    0.862094
     30          6           0       -8.568063    1.342833    0.581664
     31          6           0       -8.822974    4.301173    2.340754
     32          6           0      -10.791112    2.340853   -0.246183
     33          6           0      -12.004552    3.233586    0.054449
     34          7           0       -6.619110   -0.748651   -0.074927
     35          6           0       -7.927657   -1.026074    0.154434
     36          6           0       -8.174700   -2.472191    0.003395
     37          6           0       -6.854709   -3.063602   -0.132962
     38          6           0       -5.971840   -1.941393   -0.097858
     39          6           0       -9.362794   -3.276798    0.318672
     40          6           0       -6.114113   -4.272385   -0.278248
     41          8           0       -6.533289   -5.429530   -0.342814
     42          6           0       -4.569566   -3.855411   -0.405231
     43          6           0       -3.898433   -4.507515    0.784169
     44          8           0       -3.857859   -4.050251    1.895047
     45          8           0       -3.263245   -5.603314    0.380778
     46          6           0       -2.750758   -6.481400    1.406319
     47          6           0        2.538504   -3.884273    0.920293
     48          6           0        3.805236   -3.175577    0.757565
     49          6           0        4.933838   -3.672293    0.258916
     50          6           0        5.147365   -4.986582   -0.392527
     51          6           0        6.156967   -2.778116    0.097600
     52          6           0        5.931808   -1.374972   -0.447705
     53          6           0        6.904031   -1.140682   -1.658828
     54          6           0        8.093076   -0.069999   -1.262843
     55          6           0        8.791403    0.540025   -2.558166
     56          6           0        9.160217   -0.682199   -0.390388
     57          6           0       10.195308    0.338037    0.177850
     58          6           0       11.614029   -0.028210   -0.219716
     59          6           0       12.597319    1.157675   -0.379432
     60          6           0       12.616646    1.712169   -1.807736
     61          6           0       13.951507    0.561468    0.044409
     62          6           0       14.255202    1.131365    1.493102
     63          6           0       15.717035    1.440785    1.549182
     64          6           0       16.174364    2.812094    1.011256
     65          6           0       15.654154    3.838455    1.994718
     66          6           0       17.722565    2.865987    0.991482
     67          1           0       -1.280333    2.210302   -1.103393
     68          1           0       -6.822879    5.189471    0.442255
     69          1           0       -9.841755   -0.391059    0.491834
     70          1           0       -1.669812   -2.264166    0.558522
     71          1           0       -0.699813   -0.454774   -1.351117
     72          1           0       -0.953744   -0.437756    1.699583
     73          1           0       -0.549918    1.117234    0.948292
     74          1           0        0.542795   -0.284200    0.729522
     75          1           0       -1.339602   -2.074588   -2.564735
     76          1           0       -2.444428   -3.326708   -2.128777
     77          1           0        0.547341   -3.071201   -2.093595
     78          1           0       -0.546604   -4.533119   -2.112633
     79          1           0       -1.490539    5.655142    0.004105
     80          1           0       -1.522071    5.390926   -1.730705
     81          1           0       -0.847892    4.151597   -0.483669
     82          1           0       -2.649155    7.348742   -1.403848
     83          1           0       -2.767982    7.685170    0.426563
     84          1           0       -3.831631    8.479603   -0.858542
     85          1           0       -9.483557    4.270666    0.285137
     86          1           0      -10.077588    2.046965    1.834941
     87          1           0       -8.886890    3.575038    3.151667
     88          1           0       -9.625858    5.015758    2.526182
     89          1           0       -7.890438    4.835208    2.520423
     90          1           0      -11.199436    1.331320   -0.290905
     91          1           0      -10.361776    2.575561   -1.220647
     92          1           0      -11.889382    3.882358    0.922274
     93          1           0      -12.803408    2.548218    0.337530
     94          1           0      -12.267884    3.775051   -0.854595
     95          1           0       -9.934131   -3.442129   -0.594346
     96          1           0       -9.985169   -2.776251    1.060022
     97          1           0       -9.057723   -4.223140    0.764717
     98          1           0       -4.213093   -4.243732   -1.358306
     99          1           0       -3.548929   -6.752190    2.097508
    100          1           0       -1.920442   -5.956582    1.880367
    101          1           0       -2.336716   -7.389530    0.968636
    102          1           0        2.524885   -4.942218    1.181506
    103          1           0        1.946274   -3.361964    1.670733
    104          1           0        3.615069   -2.111420    0.898195
    105          1           0        5.526213   -5.004392   -1.414128
    106          1           0        4.276347   -5.639906   -0.351130
    107          1           0        5.910224   -5.504653    0.188979
    108          1           0        6.884110   -3.401129   -0.423851
    109          1           0        6.572854   -2.651903    1.097347
    110          1           0        6.164869   -0.667098    0.347173
    111          1           0        4.939332   -1.119673   -0.818820
    112          1           0        6.293067   -0.716794   -2.455750
    113          1           0        7.361886   -1.988400   -2.168620
    114          1           0        7.707896    0.701220   -0.595849
    115          1           0        8.324404    0.361708   -3.527031
    116          1           0        9.816936    0.173197   -2.527329
    117          1           0        9.003250    1.602959   -2.442528
    118          1           0        9.561492   -1.498447   -0.990305
    119          1           0        8.645875   -1.133171    0.458789
    120          1           0       10.100163    0.385395    1.262220
    121          1           0       10.070632    1.328195   -0.259794
    122          1           0       11.544082   -0.526476   -1.186618
    123          1           0       11.973017   -0.668259    0.586794
    124          1           0       12.278006    2.017866    0.208596
    125          1           0       12.877466    2.769540   -1.775505
    126          1           0       11.621262    1.538099   -2.217464
    127          1           0       13.443026    1.275824   -2.369779
    128          1           0       14.796604    0.755851   -0.615618
    129          1           0       13.944851   -0.527641    0.087959
    130          1           0       14.116492    0.459848    2.339662
    131          1           0       13.721352    2.019223    1.834515
    132          1           0       16.268326    0.777738    0.881685
    133          1           0       16.030031    1.323343    2.587028
    134          1           0       15.906904    2.946534   -0.037436
    135          1           0       14.899036    4.464511    1.518328
    136          1           0       16.407287    4.506988    2.413107
    137          1           0       15.269328    3.425411    2.927087
    138          1           0       17.854647    3.333497    0.016064
    139          1           0       18.157988    1.867438    1.022994
    140          1           0       18.171413    3.496604    1.759125
 ---------------------------------------------------------------------

 SCF Done:  E(RZINDO/S) =  -474.498128343     A.U. after   18 cycles

 Excitation energies and oscillator strengths:

 Excited State   1:      Singlet-A      1.2981 eV  955.14 nm  f=0.5480  <S**2>=0.000
     175 ->178        -0.15670
     176 ->177         0.66860
 This state for optimization and/or second-order correction.
 Total Energy, E(CIS/TDA) =  -474.450424813
 Copying the excited state density for this state as the 1-particle RhoCI density.

 Excited State   2:      Singlet-A      1.9778 eV  626.88 nm  f=0.0228  <S**2>=0.000
     175 ->177         0.51908
     176 ->178         0.43816

 Excited State   3:      Singlet-A      2.8754 eV  431.19 nm  f=0.4415  <S**2>=0.000
     168 ->179        -0.16087
     175 ->177        -0.29407
     176 ->178         0.41877
     176 ->179        -0.24983
     176 ->180        -0.28156

 Excited State   4:      Singlet-A      2.8995 eV  427.60 nm  f=0.0471  <S**2>=0.000
     167 ->177         0.12260
     167 ->179        -0.21139
     168 ->177         0.27030
     168 ->179        -0.42107
     168 ->180         0.18522
     168 ->186        -0.15618
     176 ->178        -0.14155
     176 ->179         0.12016
     176 ->180         0.11887

 Excited State   5:      Singlet-A      3.0341 eV  408.63 nm  f=0.0720  <S**2>=0.000
     170 ->180        -0.13158
     171 ->177         0.28054
     171 ->178        -0.23414
     171 ->179         0.18576
     171 ->180         0.38980
     171 ->186         0.12213
     171 ->187         0.11883
     171 ->188         0.13200
     171 ->202        -0.13765

 The electronic state is 1-A.
 Alpha  occ. eigenvalues --   -1.83572  -1.81762  -1.80587  -1.73763  -1.72836
 Alpha  occ. eigenvalues --   -1.70351  -1.67950  -1.62829  -1.57878  -1.57688
 Alpha  occ. eigenvalues --   -1.57055  -1.52413  -1.48670  -1.47822  -1.47509
 Alpha  occ. eigenvalues --   -1.43222  -1.41855  -1.41374  -1.38449  -1.38393
 Alpha  occ. eigenvalues --   -1.35466  -1.33541  -1.32707  -1.32449  -1.28833
 Alpha  occ. eigenvalues --   -1.27326  -1.25040  -1.23733  -1.22113  -1.18055
 Alpha  occ. eigenvalues --   -1.16519  -1.16407  -1.15201  -1.14314  -1.13441
 Alpha  occ. eigenvalues --   -1.12711  -1.10597  -1.10188  -1.04657  -1.03040
 Alpha  occ. eigenvalues --   -1.02525  -1.00022  -0.98111  -0.97347  -0.96779
 Alpha  occ. eigenvalues --   -0.95921  -0.94772  -0.94194  -0.93386  -0.92647
 Alpha  occ. eigenvalues --   -0.92208  -0.90378  -0.87967  -0.87227  -0.85549
 Alpha  occ. eigenvalues --   -0.84802  -0.83522  -0.82516  -0.81812  -0.80331
 Alpha  occ. eigenvalues --   -0.80148  -0.79681  -0.78393  -0.78006  -0.76078
 Alpha  occ. eigenvalues --   -0.75864  -0.74912  -0.74485  -0.73733  -0.73698
 Alpha  occ. eigenvalues --   -0.72835  -0.72192  -0.71802  -0.71330  -0.70853
 Alpha  occ. eigenvalues --   -0.70134  -0.69913  -0.68936  -0.68255  -0.67873
 Alpha  occ. eigenvalues --   -0.67782  -0.67509  -0.67121  -0.66692  -0.66384
 Alpha  occ. eigenvalues --   -0.64966  -0.64412  -0.64180  -0.63927  -0.63392
 Alpha  occ. eigenvalues --   -0.63124  -0.62568  -0.62279  -0.62028  -0.61734
 Alpha  occ. eigenvalues --   -0.61421  -0.61228  -0.60901  -0.60093  -0.59519
 Alpha  occ. eigenvalues --   -0.59255  -0.59101  -0.58763  -0.58120  -0.57802
 Alpha  occ. eigenvalues --   -0.57555  -0.57424  -0.57261  -0.56642  -0.56578
 Alpha  occ. eigenvalues --   -0.56314  -0.55759  -0.55347  -0.54989  -0.54395
 Alpha  occ. eigenvalues --   -0.54173  -0.54043  -0.53449  -0.53215  -0.52888
 Alpha  occ. eigenvalues --   -0.52513  -0.52159  -0.52030  -0.51407  -0.51109
 Alpha  occ. eigenvalues --   -0.50710  -0.50675  -0.50032  -0.49711  -0.49658
 Alpha  occ. eigenvalues --   -0.49551  -0.49445  -0.48992  -0.48790  -0.48712
 Alpha  occ. eigenvalues --   -0.48564  -0.48337  -0.47698  -0.47350  -0.47028
 Alpha  occ. eigenvalues --   -0.46897  -0.46826  -0.46701  -0.46618  -0.46319
 Alpha  occ. eigenvalues --   -0.46149  -0.45765  -0.45476  -0.45463  -0.45042
 Alpha  occ. eigenvalues --   -0.44980  -0.44842  -0.44310  -0.43894  -0.43670
 Alpha  occ. eigenvalues --   -0.43540  -0.43141  -0.42666  -0.42116  -0.41673
 Alpha  occ. eigenvalues --   -0.40964  -0.40189  -0.40175  -0.38935  -0.38550
 Alpha  occ. eigenvalues --   -0.37065  -0.36533  -0.36003  -0.34698  -0.34081
 Alpha  occ. eigenvalues --   -0.33727  -0.32968  -0.31968  -0.30495  -0.26536
 Alpha  occ. eigenvalues --   -0.21304
 Alpha virt. eigenvalues --   -0.07823  -0.01685  -0.00424   0.01388   0.02034
 Alpha virt. eigenvalues --    0.02785   0.03157   0.03677   0.04404   0.05171
 Alpha virt. eigenvalues --    0.06703   0.07041   0.07393   0.07631   0.08786

 Mulliken charges:
               1
     1  Mg   0.423284
     2  C   -0.006960
     3  C   -0.049930
     4  C   -0.108751
     5  C   -0.075612
     6  N   -0.230009
     7  C    0.051152
     8  C   -0.000103
     9  C   -0.002362
    10  C    0.135536
    11  C   -0.042077
    12  C   -0.027397
    13  C   -0.000046
    14  C    0.462506
    15  O   -0.505582
    16  O   -0.291080
    17  N   -0.335923
    18  C    0.107706
    19  C    0.046700
    20  C   -0.048523
    21  C    0.181362
    22  C   -0.050908
    23  C    0.322453
    24  O   -0.532013
    25  C   -0.028025
    26  N   -0.288147
    27  C    0.198688
    28  C   -0.000300
    29  C   -0.007443
    30  C    0.107960
    31  C   -0.050644
    32  C   -0.029126
    33  C   -0.059674
    34  N   -0.307448
    35  C    0.092807
    36  C   -0.011625
    37  C   -0.064185
    38  C    0.082710
    39  C   -0.033286
    40  C    0.332106
    41  O   -0.537566
    42  C    0.049977
    43  C    0.499740
    44  O   -0.523525
    45  O   -0.262018
    46  C    0.077742
    47  C    0.107492
    48  C   -0.083928
    49  C    0.013596
    50  C   -0.035343
    51  C   -0.024029
    52  C   -0.023888
    53  C   -0.047567
    54  C   -0.021024
    55  C   -0.068782
    56  C   -0.031704
    57  C   -0.039654
    58  C   -0.037036
    59  C   -0.015854
    60  C   -0.063351
    61  C   -0.029750
    62  C   -0.045759
    63  C   -0.033214
    64  C   -0.012395
    65  C   -0.052525
    66  C   -0.067169
    67  H    0.030337
    68  H    0.039873
    69  H    0.020560
    70  H    0.064505
    71  H    0.020481
    72  H    0.035286
    73  H    0.024178
    74  H    0.021259
    75  H    0.016918
    76  H    0.039961
    77  H    0.033255
    78  H    0.050430
    79  H    0.020212
    80  H    0.043424
    81  H    0.027913
    82  H    0.034720
    83  H    0.053821
    84  H    0.043531
    85  H    0.037638
    86  H    0.033180
    87  H    0.020236
    88  H    0.018493
    89  H    0.020325
    90  H    0.016254
    91  H    0.025531
    92  H    0.023062
    93  H    0.015563
    94  H    0.023428
    95  H    0.030841
    96  H    0.018288
    97  H    0.034439
    98  H    0.057755
    99  H    0.047840
   100  H    0.048260
   101  H    0.026727
   102  H    0.045820
   103  H    0.036512
   104  H    0.031812
   105  H    0.035671
   106  H    0.016583
   107  H    0.020980
   108  H    0.022680
   109  H    0.021369
   110  H    0.022429
   111  H    0.026629
   112  H    0.006470
   113  H    0.029373
   114  H    0.022291
   115  H    0.027674
   116  H    0.018571
   117  H    0.015334
   118  H    0.020348
   119  H    0.005527
   120  H    0.021189
   121  H    0.020723
   122  H    0.024193
   123  H    0.018187
   124  H    0.026495
   125  H    0.013098
   126  H    0.025659
   127  H    0.020445
   128  H    0.021961
   129  H    0.021449
   130  H    0.014076
   131  H    0.024346
   132  H    0.008415
   133  H    0.014192
   134  H    0.029708
   135  H    0.012463
   136  H    0.011623
   137  H    0.018665
   138  H    0.013729
   139  H    0.020505
   140  H    0.024028
 Sum of Mulliken charges =  -0.00000

 Dipole moment (field-independent basis, Debye):
    X=             10.5635    Y=              6.0864    Z=             -4.2233  Tot=             12.9023
 N-N= 4.261250167749D+03 E-N= 0.000000000000D+00  KE=-9.197645809472D+03
 Leave Link  601 at Fri Apr 29 14:19:00 2022, MaxMem=  6710886400 cpu:               0.8 elap:               0.0
 (Enter /sw/apps/gaussian-16.0/g16/l9999.exe)
 1\1\GINC-BP1-COMPUTE102\SP\RZINDO CIS\STO-3G\C55H74Mg1N4O6\OF15641\29-
 Apr-2022\0\\#p ZINDO=(nstates=5)\\step_301_chromophore_6 ZINDO\\0,1\Mg
 ,0,16.776,-2.36,27.938\C,0,16.023,-0.28,30.616\C,0,18.338,-4.524,30.04
 4\C,0,17.872,-3.974,25.208\C,0,15.458,0.125,25.787\N,0,17.211,-2.347,3
 0.081\C,0,16.812,-1.385,31.003\C,0,17.43,-1.735,32.451\C,0,18.26,-2.99
 ,32.152\C,0,17.767,-3.375,30.663\C,0,19.803,-2.909,32.215\C,0,16.19,-1
 .971,33.499\C,0,16.61,-1.797,35.009\C,0,17.912,-1.051,35.376\O,0,18.34

 Normal termination of Gaussian 16 at Fri Apr 29 14:19:00 2022.
