 Gaussian 16, Revision A.03,
 Gaussian 16:  ES64L-G16RevA.03 25-Dec-2016

 ------------------------------
 #p blyp/Def2SVP td=(nstates=5)
 ------------------------------

 ---------------------------------------------------
 step_1551_chromophore_19 TDDFT with blyp functional
 ---------------------------------------------------
 Symbolic Z-matrix:
 Charge =  0 Multiplicity = 1

                         Standard orientation:
 ---------------------------------------------------------------------
 Center     Atomic      Atomic             Coordinates (Angstroms)
 Number     Number       Type             X           Y           Z
 ---------------------------------------------------------------------
      1         12           0       -5.892735    0.445435   -0.048124
      2          6           0       -3.490992   -2.217760   -0.157059
      3          6           0       -3.250501    2.627758    0.159689
      4          6           0       -8.143893    2.858485    0.270382
      5          6           0       -8.354970   -1.939934    0.090815
      6          7           0       -3.557667    0.191900    0.257689
      7          6           0       -2.888633   -0.963076   -0.088645
      8          6           0       -1.340253   -0.569085   -0.230626
      9          6           0       -1.335635    0.940629    0.084897
     10          6           0       -2.766817    1.350567    0.224944
     11          6           0       -0.528262    1.343749    1.331190
     12          6           0       -0.693147   -1.033690   -1.575408
     13          6           0        0.650336   -1.771911   -1.591579
     14          6           0        1.668467   -1.530310   -0.410339
     15          8           0        1.503051   -1.847729    0.771918
     16          8           0        2.822776   -0.963283   -0.828696
     17          7           0       -5.703187    2.507882    0.267125
     18          6           0       -4.555418    3.225141    0.319218
     19          6           0       -4.882210    4.608473    0.456637
     20          6           0       -6.330127    4.693631    0.394833
     21          6           0       -6.803154    3.293750    0.269876
     22          6           0       -3.914185    5.737264    0.408654
     23          6           0       -7.188037    6.018908    0.410004
     24          8           0       -8.409566    6.080494    0.302443
     25          6           0       -6.492304    7.399222    0.253214
     26          7           0       -7.927233    0.416147    0.265527
     27          6           0       -8.634303    1.539100    0.300513
     28          6           0      -10.164343    1.246892    0.419828
     29          6           0      -10.166821   -0.300095    0.321301
     30          6           0       -8.744066   -0.627113    0.223493
     31          6           0      -10.769002    1.789599    1.673591
     32          6           0      -11.222101   -0.754660   -0.794004
     33          6           0      -10.705175   -1.514001   -2.045421
     34          7           0       -5.961207   -1.653757   -0.069518
     35          6           0       -7.079244   -2.454497   -0.062570
     36          6           0       -6.647943   -3.830725   -0.285676
     37          6           0       -5.229880   -3.812171   -0.335817
     38          6           0       -4.906841   -2.454698   -0.184047
     39          6           0       -7.647129   -4.982771   -0.471984
     40          6           0       -4.040748   -4.600320   -0.481644
     41          8           0       -3.840739   -5.818383   -0.565928
     42          6           0       -2.859587   -3.587486   -0.477987
     43          6           0       -1.987546   -4.049650    0.573057
     44          8           0       -2.093910   -3.775148    1.758749
     45          8           0       -1.007021   -4.850049   -0.012979
     46          6           0       -0.028049   -5.337187    0.951295
     47          6           0        3.626858   -0.423781    0.252380
     48          6           0        4.952062   -0.143032   -0.287040
     49          6           0        5.835180   -1.134167   -0.654652
     50          6           0        5.654790   -2.592876   -0.271432
     51          6           0        7.146852   -0.888528   -1.366438
     52          6           0        8.056931    0.333515   -0.848522
     53          6           0        8.148391    1.441449   -1.929881
     54          6           0        9.455930    2.239358   -1.894460
     55          6           0        9.273295    3.791837   -2.269597
     56          6           0       10.570657    1.594808   -2.780055
     57          6           0       11.997112    1.982566   -2.385488
     58          6           0       13.058237    0.790764   -2.224460
     59          6           0       13.769168    0.747991   -0.806737
     60          6           0       15.109501   -0.074079   -0.904227
     61          6           0       12.884703    0.175230    0.322790
     62          6           0       12.467424    1.088517    1.453310
     63          6           0       11.386103    0.454308    2.376100
     64          6           0       12.112737   -0.316874    3.512435
     65          6           0       11.482718   -1.675329    3.689567
     66          6           0       12.405430    0.552712    4.751585
     67          1           0       -2.395994    3.301066    0.072674
     68          1           0       -8.950956    3.587876    0.172525
     69          1           0       -9.171769   -2.653575   -0.044779
     70          1           0       -0.936842   -1.146728    0.601511
     71          1           0       -0.888341    1.514180   -0.726999
     72          1           0       -1.174422    1.553070    2.183546
     73          1           0        0.049531    2.168671    0.911815
     74          1           0        0.023032    0.501672    1.749855
     75          1           0       -0.600168   -0.103073   -2.134100
     76          1           0       -1.332097   -1.657755   -2.201328
     77          1           0        1.161632   -1.587206   -2.536369
     78          1           0        0.427538   -2.837676   -1.549689
     79          1           0       -3.875851    6.159849   -0.595481
     80          1           0       -2.878819    5.474385    0.627144
     81          1           0       -4.194288    6.505090    1.129146
     82          1           0       -6.238513    7.784158    1.241072
     83          1           0       -7.257103    8.079182   -0.120076
     84          1           0       -5.633154    7.317734   -0.413064
     85          1           0      -10.666082    1.828848   -0.353649
     86          1           0      -10.528065   -0.693152    1.272414
     87          1           0       -9.934506    2.202303    2.239968
     88          1           0      -11.190169    1.095845    2.401502
     89          1           0      -11.497342    2.548715    1.388290
     90          1           0      -11.929811    0.000604   -1.137042
     91          1           0      -11.906776   -1.504492   -0.396438
     92          1           0      -11.336881   -1.385829   -2.924799
     93          1           0      -10.638763   -2.594437   -1.919306
     94          1           0       -9.732160   -1.091152   -2.297711
     95          1           0       -8.613305   -4.593987   -0.796846
     96          1           0       -7.761586   -5.676280    0.360409
     97          1           0       -7.398146   -5.483113   -1.408321
     98          1           0       -2.284342   -3.606593   -1.403668
     99          1           0       -0.465049   -5.948949    1.739784
    100          1           0        0.547514   -4.535647    1.415980
    101          1           0        0.596818   -6.021147    0.377683
    102          1           0        3.757888   -1.131867    1.070198
    103          1           0        3.188148    0.481175    0.674394
    104          1           0        5.262365    0.880044   -0.501443
    105          1           0        5.705583   -3.187444   -1.183308
    106          1           0        4.614740   -2.772648   -0.000319
    107          1           0        6.293244   -2.925605    0.546982
    108          1           0        6.884646   -0.625309   -2.390859
    109          1           0        7.633631   -1.860689   -1.451900
    110          1           0        9.036840   -0.109659   -0.669739
    111          1           0        7.641629    0.646812    0.109106
    112          1           0        7.226510    2.021514   -1.913281
    113          1           0        8.285073    0.876376   -2.852907
    114          1           0        9.767819    2.190304   -0.851124
    115          1           0       10.078689    4.077194   -2.946647
    116          1           0        9.336758    4.368553   -1.347158
    117          1           0        8.332571    3.909670   -2.805992
    118          1           0       10.386553    1.990547   -3.778327
    119          1           0       10.542343    0.514262   -2.640946
    120          1           0       12.008956    2.633910   -1.511967
    121          1           0       12.336758    2.486594   -3.290409
    122          1           0       13.857043    0.977202   -2.942990
    123          1           0       12.689756   -0.181381   -2.552193
    124          1           0       14.063352    1.749741   -0.493445
    125          1           0       15.136698   -0.745546   -1.762889
    126          1           0       15.398966   -0.708550   -0.065694
    127          1           0       15.919323    0.636315   -1.072414
    128          1           0       13.298449   -0.750729    0.722551
    129          1           0       11.943370   -0.104042   -0.152051
    130          1           0       11.980581    1.984681    1.068978
    131          1           0       13.357467    1.414977    1.991077
    132          1           0       10.728492   -0.181001    1.782972
    133          1           0       10.738845    1.262358    2.718025
    134          1           0       13.159858   -0.459044    3.243364
    135          1           0       11.920231   -2.381653    2.984290
    136          1           0       10.397561   -1.661668    3.587218
    137          1           0       11.547814   -2.141004    4.672220
    138          1           0       13.467673    0.595392    4.989969
    139          1           0       11.841058    0.213537    5.620981
    140          1           0       12.269710    1.608066    4.518879
 ---------------------------------------------------------------------

 SCF Done:  E(RB-LYP) =  -3007.37683404     A.U. after   20 cycles

 Excitation energies and oscillator strengths:

 Excited State   1:      Singlet-A      1.8220 eV  680.49 nm  f=0.0247  <S**2>=0.000
     244 -> 247        0.68221
     246 -> 247        0.16808
 This state for optimization and/or second-order correction.
 Total Energy, E(TD-HF/TD-DFT) =  -3007.30987731
 Copying the excited state density for this state as the 1-particle RhoCI density.

 Excited State   2:      Singlet-A      1.8375 eV  674.74 nm  f=0.3188  <S**2>=0.000
     244 -> 247       -0.16938
     245 -> 248       -0.15445
     245 -> 249        0.11342
     246 -> 247        0.67013
     246 <- 247       -0.14728

 Excited State   3:      Singlet-A      1.9486 eV  636.27 nm  f=0.0013  <S**2>=0.000
     243 -> 247        0.70445

 Excited State   4:      Singlet-A      2.0042 eV  618.61 nm  f=0.0952  <S**2>=0.000
     245 -> 247        0.66044
     246 -> 248        0.16347
     246 -> 249       -0.13498

 Excited State   5:      Singlet-A      2.1556 eV  575.17 nm  f=0.0013  <S**2>=0.000
     242 -> 247        0.70656

 The electronic state is 1-A.
 Alpha  occ. eigenvalues --  -46.27646 -18.82672 -18.81237 -18.77367 -18.76109
 Alpha  occ. eigenvalues --  -18.75673 -18.75595 -14.03434 -14.02426 -14.01208
 Alpha  occ. eigenvalues --  -14.00829 -10.04746 -10.02694 -10.00199  -9.99744
 Alpha  occ. eigenvalues --   -9.97366  -9.96712  -9.96188  -9.96084  -9.96060
 Alpha  occ. eigenvalues --   -9.96024  -9.95945  -9.95826  -9.95299  -9.94708
 Alpha  occ. eigenvalues --   -9.94210  -9.94158  -9.93918  -9.93816  -9.93776
 Alpha  occ. eigenvalues --   -9.93609  -9.93582  -9.93463  -9.93286  -9.93246
 Alpha  occ. eigenvalues --   -9.93229  -9.93201  -9.93107  -9.92901  -9.92790
 Alpha  occ. eigenvalues --   -9.92467  -9.92465  -9.92411  -9.92372  -9.92184
 Alpha  occ. eigenvalues --   -9.92145  -9.92117  -9.92077  -9.91956  -9.91940
 Alpha  occ. eigenvalues --   -9.91795  -9.91701  -9.91569  -9.91552  -9.91518
 Alpha  occ. eigenvalues --   -9.91480  -9.91468  -9.91444  -9.91372  -9.91353
 Alpha  occ. eigenvalues --   -9.91098  -9.91038  -9.90843  -9.90781  -9.90681
 Alpha  occ. eigenvalues --   -9.90623  -2.92222  -1.72641  -1.72114  -1.71931
 Alpha  occ. eigenvalues --   -0.99083  -0.96462  -0.91146  -0.90534  -0.89915
 Alpha  occ. eigenvalues --   -0.89184  -0.88465  -0.86477  -0.85900  -0.83872
 Alpha  occ. eigenvalues --   -0.75508  -0.73594  -0.72910  -0.72812  -0.72432
 Alpha  occ. eigenvalues --   -0.72247  -0.72079  -0.71326  -0.70645  -0.70288
 Alpha  occ. eigenvalues --   -0.69448  -0.69143  -0.68265  -0.67844  -0.67239
 Alpha  occ. eigenvalues --   -0.66675  -0.65652  -0.65357  -0.64743  -0.63960
 Alpha  occ. eigenvalues --   -0.63741  -0.62650  -0.62185  -0.61841  -0.60821
 Alpha  occ. eigenvalues --   -0.60356  -0.60209  -0.60003  -0.59222  -0.59065
 Alpha  occ. eigenvalues --   -0.58244  -0.57832  -0.56649  -0.55466  -0.55179
 Alpha  occ. eigenvalues --   -0.54172  -0.53952  -0.52600  -0.52426  -0.52138
 Alpha  occ. eigenvalues --   -0.51247  -0.51098  -0.50851  -0.50365  -0.50220
 Alpha  occ. eigenvalues --   -0.49585  -0.49339  -0.48959  -0.47542  -0.46584
 Alpha  occ. eigenvalues --   -0.46161  -0.45953  -0.45452  -0.45101  -0.44526
 Alpha  occ. eigenvalues --   -0.44112  -0.43951  -0.43430  -0.43003  -0.42594
 Alpha  occ. eigenvalues --   -0.42078  -0.41759  -0.41728  -0.41300  -0.41053
 Alpha  occ. eigenvalues --   -0.40864  -0.40616  -0.40563  -0.40108  -0.39949
 Alpha  occ. eigenvalues --   -0.39825  -0.39531  -0.39440  -0.39343  -0.39229
 Alpha  occ. eigenvalues --   -0.39047  -0.38595  -0.38508  -0.38439  -0.38149
 Alpha  occ. eigenvalues --   -0.37941  -0.37842  -0.37658  -0.37489  -0.37338
 Alpha  occ. eigenvalues --   -0.37006  -0.36855  -0.36803  -0.36642  -0.36474
 Alpha  occ. eigenvalues --   -0.36364  -0.36145  -0.35880  -0.35669  -0.35519
 Alpha  occ. eigenvalues --   -0.35392  -0.34978  -0.34848  -0.34679  -0.34423
 Alpha  occ. eigenvalues --   -0.34393  -0.34259  -0.34117  -0.33973  -0.33829
 Alpha  occ. eigenvalues --   -0.33593  -0.33453  -0.33186  -0.33104  -0.32890
 Alpha  occ. eigenvalues --   -0.32696  -0.32552  -0.32430  -0.32252  -0.32046
 Alpha  occ. eigenvalues --   -0.31996  -0.31966  -0.31912  -0.31751  -0.31411
 Alpha  occ. eigenvalues --   -0.31242  -0.31194  -0.30883  -0.30804  -0.30686
 Alpha  occ. eigenvalues --   -0.30526  -0.30147  -0.30003  -0.29910  -0.29817
 Alpha  occ. eigenvalues --   -0.29666  -0.29511  -0.29314  -0.29309  -0.28999
 Alpha  occ. eigenvalues --   -0.28803  -0.28715  -0.28464  -0.28334  -0.27975
 Alpha  occ. eigenvalues --   -0.27197  -0.27123  -0.26997  -0.26595  -0.26541
 Alpha  occ. eigenvalues --   -0.26120  -0.26023  -0.25658  -0.25647  -0.25466
 Alpha  occ. eigenvalues --   -0.24958  -0.24897  -0.24332  -0.24216  -0.23899
 Alpha  occ. eigenvalues --   -0.22795  -0.22729  -0.21948  -0.21263  -0.20899
 Alpha  occ. eigenvalues --   -0.20387  -0.19684  -0.18810  -0.18400  -0.17215
 Alpha  occ. eigenvalues --   -0.16086
 Alpha virt. eigenvalues --   -0.11766  -0.06714  -0.05976  -0.04770  -0.04091
 Alpha virt. eigenvalues --   -0.03150  -0.02871  -0.01768  -0.01048  -0.00044
 Alpha virt. eigenvalues --    0.01388   0.01651   0.01726   0.02439   0.02559

 Mulliken charges:
               1
     1  Mg   0.686943
     2  C    0.066285
     3  C   -0.035840
     4  C   -0.040281
     5  C   -0.093020
     6  N   -0.217358
     7  C   -0.124651
     8  C    0.066953
     9  C   -0.031660
    10  C    0.006198
    11  C    0.134159
    12  C    0.109205
    13  C    0.143315
    14  C    0.077641
    15  O   -0.214388
    16  O   -0.240524
    17  N   -0.268292
    18  C    0.140523
    19  C   -0.138476
    20  C   -0.001188
    21  C    0.118560
    22  C    0.162919
    23  C   -0.049465
    24  O   -0.168777
    25  C    0.114282
    26  N   -0.198644
    27  C   -0.001624
    28  C   -0.032642
    29  C    0.132910
    30  C    0.001617
    31  C    0.131018
    32  C    0.070810
    33  C    0.038735
    34  N   -0.231556
    35  C    0.141877
    36  C   -0.180985
    37  C    0.118703
    38  C    0.051355
    39  C    0.169749
    40  C   -0.061273
    41  O   -0.137122
    42  C    0.053820
    43  C    0.104225
    44  O   -0.178462
    45  O   -0.281150
    46  C    0.226922
    47  C    0.321016
    48  C   -0.104773
    49  C   -0.180843
    50  C    0.138091
    51  C    0.142862
    52  C    0.048227
    53  C    0.117247
    54  C   -0.122766
    55  C    0.103923
    56  C    0.093210
    57  C    0.089930
    58  C    0.084601
    59  C   -0.046211
    60  C    0.081553
    61  C    0.120275
    62  C    0.034973
    63  C    0.115625
    64  C   -0.076273
    65  C    0.112974
    66  C    0.114794
    67  H   -0.078444
    68  H   -0.045642
    69  H   -0.070929
    70  H    0.012136
    71  H   -0.032256
    72  H   -0.007904
    73  H   -0.001757
    74  H    0.003252
    75  H   -0.030433
    76  H   -0.013770
    77  H   -0.011685
    78  H    0.004478
    79  H    0.014523
    80  H   -0.020098
    81  H    0.000425
    82  H    0.008771
    83  H   -0.009086
    84  H    0.001153
    85  H   -0.017276
    86  H   -0.022515
    87  H   -0.011115
    88  H   -0.015073
    89  H   -0.001376
    90  H   -0.015420
    91  H   -0.034057
    92  H   -0.014904
    93  H   -0.000891
    94  H    0.001635
    95  H   -0.031072
    96  H    0.024548
    97  H   -0.004512
    98  H    0.000213
    99  H    0.006938
   100  H    0.022601
   101  H   -0.001166
   102  H    0.007307
   103  H   -0.014038
   104  H   -0.045181
   105  H   -0.006969
   106  H   -0.021036
   107  H    0.020829
   108  H   -0.012507
   109  H   -0.043488
   110  H   -0.015573
   111  H   -0.014652
   112  H   -0.023163
   113  H   -0.034680
   114  H   -0.032934
   115  H   -0.018167
   116  H   -0.004602
   117  H   -0.012057
   118  H   -0.024713
   119  H   -0.029486
   120  H   -0.013328
   121  H   -0.035489
   122  H   -0.039841
   123  H   -0.029535
   124  H   -0.036041
   125  H   -0.021498
   126  H   -0.016785
   127  H   -0.019457
   128  H   -0.038771
   129  H   -0.049130
   130  H   -0.040673
   131  H   -0.030166
   132  H   -0.037228
   133  H   -0.036668
   134  H   -0.031023
   135  H   -0.010563
   136  H   -0.020308
   137  H   -0.035720
   138  H   -0.028222
   139  H   -0.012123
   140  H   -0.031392
 Sum of Mulliken charges =  -0.00000

 Dipole moment (field-independent basis, Debye):
    X=              2.7458    Y=              2.7355    Z=             -3.3255  Tot=              5.1070
 Quadrupole moment (field-independent basis, Debye-Ang):
   XX=           -363.1858   YY=           -432.6628   ZZ=           -407.0583
   XY=             12.5776   XZ=              6.2743   YZ=              2.5688

 Normal termination of Gaussian 16 at Thu Apr 28 12:34:12 2022.
