 Gaussian 16, Revision A.03,
 Gaussian 16:  ES64L-G16RevA.03 25-Dec-2016

 -----------------------------------
 #p cam-b3lyp/Def2SVP td=(nstates=5)
 -----------------------------------

 --------------------------------------------------------
 step_1551_chromophore_19 TDDFT with cam-b3lyp functional
 --------------------------------------------------------
 Symbolic Z-matrix:
 Charge =  0 Multiplicity = 1

                         Standard orientation:
 ---------------------------------------------------------------------
 Center     Atomic      Atomic             Coordinates (Angstroms)
 Number     Number       Type             X           Y           Z
 ---------------------------------------------------------------------
      1         12           0       -5.892735    0.445435   -0.048124
      2          6           0       -3.490992   -2.217760   -0.157059
      3          6           0       -3.250501    2.627758    0.159689
      4          6           0       -8.143893    2.858485    0.270382
      5          6           0       -8.354970   -1.939934    0.090815
      6          7           0       -3.557667    0.191900    0.257689
      7          6           0       -2.888633   -0.963076   -0.088645
      8          6           0       -1.340253   -0.569085   -0.230626
      9          6           0       -1.335635    0.940629    0.084897
     10          6           0       -2.766817    1.350567    0.224944
     11          6           0       -0.528262    1.343749    1.331190
     12          6           0       -0.693147   -1.033690   -1.575408
     13          6           0        0.650336   -1.771911   -1.591579
     14          6           0        1.668467   -1.530310   -0.410339
     15          8           0        1.503051   -1.847729    0.771918
     16          8           0        2.822776   -0.963283   -0.828696
     17          7           0       -5.703187    2.507882    0.267125
     18          6           0       -4.555418    3.225141    0.319218
     19          6           0       -4.882210    4.608473    0.456637
     20          6           0       -6.330127    4.693631    0.394833
     21          6           0       -6.803154    3.293750    0.269876
     22          6           0       -3.914185    5.737264    0.408654
     23          6           0       -7.188037    6.018908    0.410004
     24          8           0       -8.409566    6.080494    0.302443
     25          6           0       -6.492304    7.399222    0.253214
     26          7           0       -7.927233    0.416147    0.265527
     27          6           0       -8.634303    1.539100    0.300513
     28          6           0      -10.164343    1.246892    0.419828
     29          6           0      -10.166821   -0.300095    0.321301
     30          6           0       -8.744066   -0.627113    0.223493
     31          6           0      -10.769002    1.789599    1.673591
     32          6           0      -11.222101   -0.754660   -0.794004
     33          6           0      -10.705175   -1.514001   -2.045421
     34          7           0       -5.961207   -1.653757   -0.069518
     35          6           0       -7.079244   -2.454497   -0.062570
     36          6           0       -6.647943   -3.830725   -0.285676
     37          6           0       -5.229880   -3.812171   -0.335817
     38          6           0       -4.906841   -2.454698   -0.184047
     39          6           0       -7.647129   -4.982771   -0.471984
     40          6           0       -4.040748   -4.600320   -0.481644
     41          8           0       -3.840739   -5.818383   -0.565928
     42          6           0       -2.859587   -3.587486   -0.477987
     43          6           0       -1.987546   -4.049650    0.573057
     44          8           0       -2.093910   -3.775148    1.758749
     45          8           0       -1.007021   -4.850049   -0.012979
     46          6           0       -0.028049   -5.337187    0.951295
     47          6           0        3.626858   -0.423781    0.252380
     48          6           0        4.952062   -0.143032   -0.287040
     49          6           0        5.835180   -1.134167   -0.654652
     50          6           0        5.654790   -2.592876   -0.271432
     51          6           0        7.146852   -0.888528   -1.366438
     52          6           0        8.056931    0.333515   -0.848522
     53          6           0        8.148391    1.441449   -1.929881
     54          6           0        9.455930    2.239358   -1.894460
     55          6           0        9.273295    3.791837   -2.269597
     56          6           0       10.570657    1.594808   -2.780055
     57          6           0       11.997112    1.982566   -2.385488
     58          6           0       13.058237    0.790764   -2.224460
     59          6           0       13.769168    0.747991   -0.806737
     60          6           0       15.109501   -0.074079   -0.904227
     61          6           0       12.884703    0.175230    0.322790
     62          6           0       12.467424    1.088517    1.453310
     63          6           0       11.386103    0.454308    2.376100
     64          6           0       12.112737   -0.316874    3.512435
     65          6           0       11.482718   -1.675329    3.689567
     66          6           0       12.405430    0.552712    4.751585
     67          1           0       -2.395994    3.301066    0.072674
     68          1           0       -8.950956    3.587876    0.172525
     69          1           0       -9.171769   -2.653575   -0.044779
     70          1           0       -0.936842   -1.146728    0.601511
     71          1           0       -0.888341    1.514180   -0.726999
     72          1           0       -1.174422    1.553070    2.183546
     73          1           0        0.049531    2.168671    0.911815
     74          1           0        0.023032    0.501672    1.749855
     75          1           0       -0.600168   -0.103073   -2.134100
     76          1           0       -1.332097   -1.657755   -2.201328
     77          1           0        1.161632   -1.587206   -2.536369
     78          1           0        0.427538   -2.837676   -1.549689
     79          1           0       -3.875851    6.159849   -0.595481
     80          1           0       -2.878819    5.474385    0.627144
     81          1           0       -4.194288    6.505090    1.129146
     82          1           0       -6.238513    7.784158    1.241072
     83          1           0       -7.257103    8.079182   -0.120076
     84          1           0       -5.633154    7.317734   -0.413064
     85          1           0      -10.666082    1.828848   -0.353649
     86          1           0      -10.528065   -0.693152    1.272414
     87          1           0       -9.934506    2.202303    2.239968
     88          1           0      -11.190169    1.095845    2.401502
     89          1           0      -11.497342    2.548715    1.388290
     90          1           0      -11.929811    0.000604   -1.137042
     91          1           0      -11.906776   -1.504492   -0.396438
     92          1           0      -11.336881   -1.385829   -2.924799
     93          1           0      -10.638763   -2.594437   -1.919306
     94          1           0       -9.732160   -1.091152   -2.297711
     95          1           0       -8.613305   -4.593987   -0.796846
     96          1           0       -7.761586   -5.676280    0.360409
     97          1           0       -7.398146   -5.483113   -1.408321
     98          1           0       -2.284342   -3.606593   -1.403668
     99          1           0       -0.465049   -5.948949    1.739784
    100          1           0        0.547514   -4.535647    1.415980
    101          1           0        0.596818   -6.021147    0.377683
    102          1           0        3.757888   -1.131867    1.070198
    103          1           0        3.188148    0.481175    0.674394
    104          1           0        5.262365    0.880044   -0.501443
    105          1           0        5.705583   -3.187444   -1.183308
    106          1           0        4.614740   -2.772648   -0.000319
    107          1           0        6.293244   -2.925605    0.546982
    108          1           0        6.884646   -0.625309   -2.390859
    109          1           0        7.633631   -1.860689   -1.451900
    110          1           0        9.036840   -0.109659   -0.669739
    111          1           0        7.641629    0.646812    0.109106
    112          1           0        7.226510    2.021514   -1.913281
    113          1           0        8.285073    0.876376   -2.852907
    114          1           0        9.767819    2.190304   -0.851124
    115          1           0       10.078689    4.077194   -2.946647
    116          1           0        9.336758    4.368553   -1.347158
    117          1           0        8.332571    3.909670   -2.805992
    118          1           0       10.386553    1.990547   -3.778327
    119          1           0       10.542343    0.514262   -2.640946
    120          1           0       12.008956    2.633910   -1.511967
    121          1           0       12.336758    2.486594   -3.290409
    122          1           0       13.857043    0.977202   -2.942990
    123          1           0       12.689756   -0.181381   -2.552193
    124          1           0       14.063352    1.749741   -0.493445
    125          1           0       15.136698   -0.745546   -1.762889
    126          1           0       15.398966   -0.708550   -0.065694
    127          1           0       15.919323    0.636315   -1.072414
    128          1           0       13.298449   -0.750729    0.722551
    129          1           0       11.943370   -0.104042   -0.152051
    130          1           0       11.980581    1.984681    1.068978
    131          1           0       13.357467    1.414977    1.991077
    132          1           0       10.728492   -0.181001    1.782972
    133          1           0       10.738845    1.262358    2.718025
    134          1           0       13.159858   -0.459044    3.243364
    135          1           0       11.920231   -2.381653    2.984290
    136          1           0       10.397561   -1.661668    3.587218
    137          1           0       11.547814   -2.141004    4.672220
    138          1           0       13.467673    0.595392    4.989969
    139          1           0       11.841058    0.213537    5.620981
    140          1           0       12.269710    1.608066    4.518879
 ---------------------------------------------------------------------

 SCF Done:  E(RCAM-B3LYP) =  -3007.17155479     A.U. after   19 cycles

 Excitation energies and oscillator strengths:

 Excited State   1:      Singlet-A      1.7231 eV  719.52 nm  f=0.4234  <S**2>=0.000
     245 -> 248       -0.17103
     246 -> 247        0.68657
     245 <- 248       -0.10416
 This state for optimization and/or second-order correction.
 Total Energy, E(TD-HF/TD-DFT) =  -3007.10823032
 Copying the excited state density for this state as the 1-particle RhoCI density.

 Excited State   2:      Singlet-A      2.1911 eV  565.85 nm  f=0.1628  <S**2>=0.000
     245 -> 247        0.66040
     246 -> 248        0.23679

 Excited State   3:      Singlet-A      3.3647 eV  368.49 nm  f=0.0029  <S**2>=0.000
     242 -> 247       -0.19754
     243 -> 247        0.66344

 Excited State   4:      Singlet-A      3.4544 eV  358.92 nm  f=0.0004  <S**2>=0.000
     240 -> 247        0.54658
     240 -> 249       -0.32079
     240 -> 250       -0.12888
     242 -> 247        0.16965

 Excited State   5:      Singlet-A      3.5183 eV  352.39 nm  f=0.0122  <S**2>=0.000
     240 -> 247       -0.16796
     242 -> 247        0.59874
     243 -> 247        0.17145
     246 -> 248       -0.22311

 The electronic state is 1-A.
 Alpha  occ. eigenvalues --  -46.89232 -19.25526 -19.24207 -19.20283 -19.19261
 Alpha  occ. eigenvalues --  -19.18959 -19.18853 -14.42370 -14.41144 -14.39603
 Alpha  occ. eigenvalues --  -14.39265 -10.40053 -10.38184 -10.35435 -10.35235
 Alpha  occ. eigenvalues --  -10.31383 -10.31327 -10.30541 -10.30406 -10.30375
 Alpha  occ. eigenvalues --  -10.30195 -10.30036 -10.29988 -10.29631 -10.29167
 Alpha  occ. eigenvalues --  -10.28916 -10.28264 -10.27992 -10.27908 -10.27863
 Alpha  occ. eigenvalues --  -10.27762 -10.27672 -10.27600 -10.27511 -10.27477
 Alpha  occ. eigenvalues --  -10.27307 -10.27122 -10.27008 -10.26852 -10.26607
 Alpha  occ. eigenvalues --  -10.26596 -10.26395 -10.26370 -10.26175 -10.26108
 Alpha  occ. eigenvalues --  -10.25912 -10.25838 -10.25721 -10.25689 -10.25624
 Alpha  occ. eigenvalues --  -10.25611 -10.25602 -10.25392 -10.25355 -10.25241
 Alpha  occ. eigenvalues --  -10.25221 -10.25200 -10.25104 -10.25097 -10.25050
 Alpha  occ. eigenvalues --  -10.24759 -10.24667 -10.24451 -10.24349 -10.24255
 Alpha  occ. eigenvalues --  -10.24229  -3.17709  -1.92605  -1.92169  -1.92006
 Alpha  occ. eigenvalues --   -1.17514  -1.15044  -1.09513  -1.09042  -1.07731
 Alpha  occ. eigenvalues --   -1.07157  -1.06293  -1.04191  -1.03392  -1.01380
 Alpha  occ. eigenvalues --   -0.92728  -0.90446  -0.89691  -0.89528  -0.89151
 Alpha  occ. eigenvalues --   -0.88926  -0.88766  -0.87904  -0.87186  -0.86886
 Alpha  occ. eigenvalues --   -0.86023  -0.85496  -0.84508  -0.84103  -0.83359
 Alpha  occ. eigenvalues --   -0.82696  -0.81660  -0.81280  -0.80662  -0.79796
 Alpha  occ. eigenvalues --   -0.79703  -0.78331  -0.77766  -0.77441  -0.76205
 Alpha  occ. eigenvalues --   -0.75706  -0.75538  -0.75292  -0.74462  -0.74292
 Alpha  occ. eigenvalues --   -0.73316  -0.72829  -0.71494  -0.70237  -0.69899
 Alpha  occ. eigenvalues --   -0.68801  -0.68522  -0.67004  -0.66816  -0.66275
 Alpha  occ. eigenvalues --   -0.65466  -0.65272  -0.64905  -0.64232  -0.64104
 Alpha  occ. eigenvalues --   -0.63552  -0.63265  -0.62877  -0.61279  -0.60207
 Alpha  occ. eigenvalues --   -0.59698  -0.59549  -0.58979  -0.58450  -0.57977
 Alpha  occ. eigenvalues --   -0.57677  -0.57255  -0.56599  -0.56179  -0.55923
 Alpha  occ. eigenvalues --   -0.55153  -0.54837  -0.54588  -0.54469  -0.54087
 Alpha  occ. eigenvalues --   -0.53724  -0.53241  -0.53136  -0.52805  -0.52717
 Alpha  occ. eigenvalues --   -0.52458  -0.52206  -0.52123  -0.51994  -0.51925
 Alpha  occ. eigenvalues --   -0.51726  -0.51174  -0.50989  -0.50859  -0.50609
 Alpha  occ. eigenvalues --   -0.50390  -0.50223  -0.49962  -0.49804  -0.49684
 Alpha  occ. eigenvalues --   -0.49462  -0.49017  -0.48898  -0.48853  -0.48787
 Alpha  occ. eigenvalues --   -0.48693  -0.48510  -0.48304  -0.48158  -0.47917
 Alpha  occ. eigenvalues --   -0.47623  -0.47279  -0.47066  -0.46550  -0.46423
 Alpha  occ. eigenvalues --   -0.46088  -0.46030  -0.45959  -0.45749  -0.45596
 Alpha  occ. eigenvalues --   -0.45232  -0.45146  -0.44900  -0.44720  -0.44689
 Alpha  occ. eigenvalues --   -0.44543  -0.44190  -0.44052  -0.43911  -0.43846
 Alpha  occ. eigenvalues --   -0.43618  -0.43454  -0.43380  -0.43266  -0.42862
 Alpha  occ. eigenvalues --   -0.42816  -0.42722  -0.42685  -0.42438  -0.42098
 Alpha  occ. eigenvalues --   -0.41948  -0.41755  -0.41556  -0.41323  -0.41077
 Alpha  occ. eigenvalues --   -0.40977  -0.40770  -0.40696  -0.40372  -0.40103
 Alpha  occ. eigenvalues --   -0.39867  -0.39662  -0.39555  -0.39234  -0.39017
 Alpha  occ. eigenvalues --   -0.38214  -0.38005  -0.37744  -0.37469  -0.37277
 Alpha  occ. eigenvalues --   -0.37202  -0.36907  -0.36683  -0.36253  -0.36036
 Alpha  occ. eigenvalues --   -0.35975  -0.35704  -0.35447  -0.34661  -0.34602
 Alpha  occ. eigenvalues --   -0.33749  -0.33531  -0.33217  -0.31244  -0.31076
 Alpha  occ. eigenvalues --   -0.30474  -0.30371  -0.29641  -0.29339  -0.23864
 Alpha  occ. eigenvalues --   -0.21456
 Alpha virt. eigenvalues --   -0.09026  -0.01287   0.00306   0.02070   0.02248
 Alpha virt. eigenvalues --    0.03552   0.04392   0.05855   0.06090   0.06807
 Alpha virt. eigenvalues --    0.07760   0.07774   0.08530   0.08673   0.09336

 Mulliken charges:
               1
     1  Mg   0.818484
     2  C    0.039853
     3  C   -0.053553
     4  C   -0.051357
     5  C   -0.094671
     6  N   -0.285685
     7  C   -0.068902
     8  C    0.007423
     9  C   -0.085240
    10  C    0.029145
    11  C    0.076403
    12  C    0.055647
    13  C    0.081147
    14  C    0.151898
    15  O   -0.257048
    16  O   -0.302664
    17  N   -0.357267
    18  C    0.151045
    19  C   -0.146262
    20  C   -0.066175
    21  C    0.137339
    22  C    0.098866
    23  C    0.030534
    24  O   -0.209380
    25  C    0.033316
    26  N   -0.274299
    27  C    0.012675
    28  C   -0.081778
    29  C    0.068758
    30  C    0.018537
    31  C    0.068437
    32  C    0.016272
    33  C   -0.019870
    34  N   -0.322884
    35  C    0.140158
    36  C   -0.170641
    37  C    0.034237
    38  C    0.088958
    39  C    0.124069
    40  C    0.039834
    41  O   -0.174279
    42  C   -0.027382
    43  C    0.195671
    44  O   -0.213104
    45  O   -0.344252
    46  C    0.183817
    47  C    0.281868
    48  C   -0.127735
    49  C   -0.192792
    50  C    0.073081
    51  C    0.083780
    52  C   -0.007508
    53  C    0.064028
    54  C   -0.168338
    55  C    0.047146
    56  C    0.039779
    57  C    0.033008
    58  C    0.033955
    59  C   -0.104941
    60  C    0.023987
    61  C    0.075393
    62  C   -0.017187
    63  C    0.058066
    64  C   -0.138538
    65  C    0.052133
    66  C    0.057261
    67  H   -0.044875
    68  H   -0.004131
    69  H   -0.034459
    70  H    0.047006
    71  H    0.002833
    72  H    0.020131
    73  H    0.019816
    74  H    0.027522
    75  H    0.000561
    76  H    0.015844
    77  H    0.024689
    78  H    0.033188
    79  H    0.039925
    80  H    0.009098
    81  H    0.026194
    82  H    0.036332
    83  H    0.026092
    84  H    0.028203
    85  H    0.017078
    86  H    0.015140
    87  H    0.016805
    88  H    0.010759
    89  H    0.022446
    90  H    0.013592
    91  H   -0.004273
    92  H    0.011496
    93  H    0.018047
    94  H    0.023413
    95  H   -0.006878
    96  H    0.051087
    97  H    0.023101
    98  H    0.041929
    99  H    0.031424
   100  H    0.045711
   101  H    0.023306
   102  H    0.038684
   103  H    0.014372
   104  H   -0.013457
   105  H    0.018291
   106  H    0.003803
   107  H    0.045205
   108  H    0.017660
   109  H   -0.010731
   110  H    0.009209
   111  H    0.013829
   112  H    0.003871
   113  H   -0.005778
   114  H   -0.005447
   115  H    0.004666
   116  H    0.018911
   117  H    0.011478
   118  H    0.003651
   119  H   -0.004017
   120  H    0.011499
   121  H   -0.005192
   122  H   -0.009159
   123  H   -0.001562
   124  H   -0.003374
   125  H    0.002202
   126  H    0.007886
   127  H    0.004801
   128  H   -0.011673
   129  H   -0.025699
   130  H   -0.014113
   131  H   -0.004586
   132  H   -0.008977
   133  H   -0.005929
   134  H    0.000175
   135  H    0.012535
   136  H    0.003362
   137  H   -0.009038
   138  H   -0.003190
   139  H    0.011743
   140  H   -0.006342
 Sum of Mulliken charges =  -0.00000

 Dipole moment (field-independent basis, Debye):
    X=              2.6173    Y=              2.8869    Z=             -3.5499  Tot=              5.2713
 Quadrupole moment (field-independent basis, Debye-Ang):
   XX=           -360.3553   YY=           -428.3226   ZZ=           -407.1501
   XY=             12.1355   XZ=              7.2859   YZ=              3.1198

 Normal termination of Gaussian 16 at Thu Apr 28 11:34:02 2022.
