 Gaussian 16, Revision A.03,
 Gaussian 16:  ES64L-G16RevA.03 25-Dec-2016

 ---------------------------------
 #p PBE1PBE/Def2SVP td=(nstates=5)
 ---------------------------------

 ------------------------------------------------------
 step_1551_chromophore_19 TDDFT with PBE1PBE functional
 ------------------------------------------------------
 Symbolic Z-matrix:
 Charge =  0 Multiplicity = 1

                         Standard orientation:
 ---------------------------------------------------------------------
 Center     Atomic      Atomic             Coordinates (Angstroms)
 Number     Number       Type             X           Y           Z
 ---------------------------------------------------------------------
      1         12           0       -5.892735    0.445435   -0.048124
      2          6           0       -3.490992   -2.217760   -0.157059
      3          6           0       -3.250501    2.627758    0.159689
      4          6           0       -8.143893    2.858485    0.270382
      5          6           0       -8.354970   -1.939934    0.090815
      6          7           0       -3.557667    0.191900    0.257689
      7          6           0       -2.888633   -0.963076   -0.088645
      8          6           0       -1.340253   -0.569085   -0.230626
      9          6           0       -1.335635    0.940629    0.084897
     10          6           0       -2.766817    1.350567    0.224944
     11          6           0       -0.528262    1.343749    1.331190
     12          6           0       -0.693147   -1.033690   -1.575408
     13          6           0        0.650336   -1.771911   -1.591579
     14          6           0        1.668467   -1.530310   -0.410339
     15          8           0        1.503051   -1.847729    0.771918
     16          8           0        2.822776   -0.963283   -0.828696
     17          7           0       -5.703187    2.507882    0.267125
     18          6           0       -4.555418    3.225141    0.319218
     19          6           0       -4.882210    4.608473    0.456637
     20          6           0       -6.330127    4.693631    0.394833
     21          6           0       -6.803154    3.293750    0.269876
     22          6           0       -3.914185    5.737264    0.408654
     23          6           0       -7.188037    6.018908    0.410004
     24          8           0       -8.409566    6.080494    0.302443
     25          6           0       -6.492304    7.399222    0.253214
     26          7           0       -7.927233    0.416147    0.265527
     27          6           0       -8.634303    1.539100    0.300513
     28          6           0      -10.164343    1.246892    0.419828
     29          6           0      -10.166821   -0.300095    0.321301
     30          6           0       -8.744066   -0.627113    0.223493
     31          6           0      -10.769002    1.789599    1.673591
     32          6           0      -11.222101   -0.754660   -0.794004
     33          6           0      -10.705175   -1.514001   -2.045421
     34          7           0       -5.961207   -1.653757   -0.069518
     35          6           0       -7.079244   -2.454497   -0.062570
     36          6           0       -6.647943   -3.830725   -0.285676
     37          6           0       -5.229880   -3.812171   -0.335817
     38          6           0       -4.906841   -2.454698   -0.184047
     39          6           0       -7.647129   -4.982771   -0.471984
     40          6           0       -4.040748   -4.600320   -0.481644
     41          8           0       -3.840739   -5.818383   -0.565928
     42          6           0       -2.859587   -3.587486   -0.477987
     43          6           0       -1.987546   -4.049650    0.573057
     44          8           0       -2.093910   -3.775148    1.758749
     45          8           0       -1.007021   -4.850049   -0.012979
     46          6           0       -0.028049   -5.337187    0.951295
     47          6           0        3.626858   -0.423781    0.252380
     48          6           0        4.952062   -0.143032   -0.287040
     49          6           0        5.835180   -1.134167   -0.654652
     50          6           0        5.654790   -2.592876   -0.271432
     51          6           0        7.146852   -0.888528   -1.366438
     52          6           0        8.056931    0.333515   -0.848522
     53          6           0        8.148391    1.441449   -1.929881
     54          6           0        9.455930    2.239358   -1.894460
     55          6           0        9.273295    3.791837   -2.269597
     56          6           0       10.570657    1.594808   -2.780055
     57          6           0       11.997112    1.982566   -2.385488
     58          6           0       13.058237    0.790764   -2.224460
     59          6           0       13.769168    0.747991   -0.806737
     60          6           0       15.109501   -0.074079   -0.904227
     61          6           0       12.884703    0.175230    0.322790
     62          6           0       12.467424    1.088517    1.453310
     63          6           0       11.386103    0.454308    2.376100
     64          6           0       12.112737   -0.316874    3.512435
     65          6           0       11.482718   -1.675329    3.689567
     66          6           0       12.405430    0.552712    4.751585
     67          1           0       -2.395994    3.301066    0.072674
     68          1           0       -8.950956    3.587876    0.172525
     69          1           0       -9.171769   -2.653575   -0.044779
     70          1           0       -0.936842   -1.146728    0.601511
     71          1           0       -0.888341    1.514180   -0.726999
     72          1           0       -1.174422    1.553070    2.183546
     73          1           0        0.049531    2.168671    0.911815
     74          1           0        0.023032    0.501672    1.749855
     75          1           0       -0.600168   -0.103073   -2.134100
     76          1           0       -1.332097   -1.657755   -2.201328
     77          1           0        1.161632   -1.587206   -2.536369
     78          1           0        0.427538   -2.837676   -1.549689
     79          1           0       -3.875851    6.159849   -0.595481
     80          1           0       -2.878819    5.474385    0.627144
     81          1           0       -4.194288    6.505090    1.129146
     82          1           0       -6.238513    7.784158    1.241072
     83          1           0       -7.257103    8.079182   -0.120076
     84          1           0       -5.633154    7.317734   -0.413064
     85          1           0      -10.666082    1.828848   -0.353649
     86          1           0      -10.528065   -0.693152    1.272414
     87          1           0       -9.934506    2.202303    2.239968
     88          1           0      -11.190169    1.095845    2.401502
     89          1           0      -11.497342    2.548715    1.388290
     90          1           0      -11.929811    0.000604   -1.137042
     91          1           0      -11.906776   -1.504492   -0.396438
     92          1           0      -11.336881   -1.385829   -2.924799
     93          1           0      -10.638763   -2.594437   -1.919306
     94          1           0       -9.732160   -1.091152   -2.297711
     95          1           0       -8.613305   -4.593987   -0.796846
     96          1           0       -7.761586   -5.676280    0.360409
     97          1           0       -7.398146   -5.483113   -1.408321
     98          1           0       -2.284342   -3.606593   -1.403668
     99          1           0       -0.465049   -5.948949    1.739784
    100          1           0        0.547514   -4.535647    1.415980
    101          1           0        0.596818   -6.021147    0.377683
    102          1           0        3.757888   -1.131867    1.070198
    103          1           0        3.188148    0.481175    0.674394
    104          1           0        5.262365    0.880044   -0.501443
    105          1           0        5.705583   -3.187444   -1.183308
    106          1           0        4.614740   -2.772648   -0.000319
    107          1           0        6.293244   -2.925605    0.546982
    108          1           0        6.884646   -0.625309   -2.390859
    109          1           0        7.633631   -1.860689   -1.451900
    110          1           0        9.036840   -0.109659   -0.669739
    111          1           0        7.641629    0.646812    0.109106
    112          1           0        7.226510    2.021514   -1.913281
    113          1           0        8.285073    0.876376   -2.852907
    114          1           0        9.767819    2.190304   -0.851124
    115          1           0       10.078689    4.077194   -2.946647
    116          1           0        9.336758    4.368553   -1.347158
    117          1           0        8.332571    3.909670   -2.805992
    118          1           0       10.386553    1.990547   -3.778327
    119          1           0       10.542343    0.514262   -2.640946
    120          1           0       12.008956    2.633910   -1.511967
    121          1           0       12.336758    2.486594   -3.290409
    122          1           0       13.857043    0.977202   -2.942990
    123          1           0       12.689756   -0.181381   -2.552193
    124          1           0       14.063352    1.749741   -0.493445
    125          1           0       15.136698   -0.745546   -1.762889
    126          1           0       15.398966   -0.708550   -0.065694
    127          1           0       15.919323    0.636315   -1.072414
    128          1           0       13.298449   -0.750729    0.722551
    129          1           0       11.943370   -0.104042   -0.152051
    130          1           0       11.980581    1.984681    1.068978
    131          1           0       13.357467    1.414977    1.991077
    132          1           0       10.728492   -0.181001    1.782972
    133          1           0       10.738845    1.262358    2.718025
    134          1           0       13.159858   -0.459044    3.243364
    135          1           0       11.920231   -2.381653    2.984290
    136          1           0       10.397561   -1.661668    3.587218
    137          1           0       11.547814   -2.141004    4.672220
    138          1           0       13.467673    0.595392    4.989969
    139          1           0       11.841058    0.213537    5.620981
    140          1           0       12.269710    1.608066    4.518879
 ---------------------------------------------------------------------

 SCF Done:  E(RPBE1PBE) =  -3005.36041053     A.U. after   15 cycles

 Excitation energies and oscillator strengths:

 Excited State   1:      Singlet-A      1.8828 eV  658.52 nm  f=0.4097  <S**2>=0.000
     245 -> 248       -0.15898
     246 -> 247        0.69391
     246 <- 247       -0.10985
 This state for optimization and/or second-order correction.
 Total Energy, E(TD-HF/TD-DFT) =  -3005.29122034
 Copying the excited state density for this state as the 1-particle RhoCI density.

 Excited State   2:      Singlet-A      2.2047 eV  562.37 nm  f=0.1479  <S**2>=0.000
     245 -> 247        0.66848
     246 -> 248        0.20524

 Excited State   3:      Singlet-A      2.9572 eV  419.26 nm  f=0.0001  <S**2>=0.000
     242 -> 247        0.31325
     243 -> 247        0.59654

 Excited State   4:      Singlet-A      2.9811 eV  415.90 nm  f=0.0001  <S**2>=0.000
     240 -> 247       -0.23638
     241 -> 247        0.62210
     241 -> 249       -0.15748

 Excited State   5:      Singlet-A      3.0238 eV  410.02 nm  f=0.0054  <S**2>=0.000
     242 -> 247        0.60915
     243 -> 247       -0.33130

 The electronic state is 1-A.
 Alpha  occ. eigenvalues --  -46.92622 -19.26182 -19.24831 -19.20562 -19.19437
 Alpha  occ. eigenvalues --  -19.19132 -19.19102 -14.41780 -14.40762 -14.39280
 Alpha  occ. eigenvalues --  -14.38892 -10.37090 -10.35146 -10.32656 -10.32322
 Alpha  occ. eigenvalues --  -10.29045 -10.28764 -10.28328 -10.28146 -10.28042
 Alpha  occ. eigenvalues --  -10.27968 -10.27768 -10.27277 -10.27234 -10.26762
 Alpha  occ. eigenvalues --  -10.26486 -10.25775 -10.25729 -10.25719 -10.25651
 Alpha  occ. eigenvalues --  -10.25488 -10.25461 -10.25317 -10.25201 -10.25179
 Alpha  occ. eigenvalues --  -10.25128 -10.24944 -10.24645 -10.24587 -10.24231
 Alpha  occ. eigenvalues --  -10.24078 -10.23917 -10.23888 -10.23726 -10.23708
 Alpha  occ. eigenvalues --  -10.23647 -10.23437 -10.23299 -10.23251 -10.23121
 Alpha  occ. eigenvalues --  -10.23019 -10.23016 -10.22960 -10.22916 -10.22824
 Alpha  occ. eigenvalues --  -10.22796 -10.22766 -10.22681 -10.22542 -10.22523
 Alpha  occ. eigenvalues --  -10.22327 -10.22191 -10.21872 -10.21776 -10.21722
 Alpha  occ. eigenvalues --  -10.21588  -3.14681  -1.87517  -1.87059  -1.86900
 Alpha  occ. eigenvalues --   -1.12321  -1.09748  -1.04291  -1.03712  -1.02569
 Alpha  occ. eigenvalues --   -1.01937  -1.00908  -0.98844  -0.98149  -0.95993
 Alpha  occ. eigenvalues --   -0.87063  -0.84583  -0.83827  -0.83776  -0.83329
 Alpha  occ. eigenvalues --   -0.83253  -0.82937  -0.82255  -0.81300  -0.81175
 Alpha  occ. eigenvalues --   -0.80308  -0.79771  -0.78735  -0.78354  -0.77618
 Alpha  occ. eigenvalues --   -0.76907  -0.75902  -0.75496  -0.74983  -0.73997
 Alpha  occ. eigenvalues --   -0.73863  -0.72633  -0.72044  -0.71768  -0.70281
 Alpha  occ. eigenvalues --   -0.70033  -0.69714  -0.69640  -0.68616  -0.68456
 Alpha  occ. eigenvalues --   -0.67737  -0.67172  -0.65954  -0.64551  -0.64214
 Alpha  occ. eigenvalues --   -0.63210  -0.62810  -0.61329  -0.61163  -0.60724
 Alpha  occ. eigenvalues --   -0.59828  -0.59648  -0.59458  -0.58762  -0.58644
 Alpha  occ. eigenvalues --   -0.57697  -0.57414  -0.57050  -0.55829  -0.54778
 Alpha  occ. eigenvalues --   -0.54255  -0.54022  -0.53541  -0.52983  -0.52530
 Alpha  occ. eigenvalues --   -0.52129  -0.51590  -0.51092  -0.50777  -0.50502
 Alpha  occ. eigenvalues --   -0.49655  -0.49363  -0.49227  -0.48833  -0.48609
 Alpha  occ. eigenvalues --   -0.48186  -0.47700  -0.47581  -0.47433  -0.47329
 Alpha  occ. eigenvalues --   -0.46882  -0.46764  -0.46671  -0.46531  -0.46367
 Alpha  occ. eigenvalues --   -0.46237  -0.45668  -0.45489  -0.45432  -0.45200
 Alpha  occ. eigenvalues --   -0.44984  -0.44795  -0.44560  -0.44360  -0.44257
 Alpha  occ. eigenvalues --   -0.44048  -0.43642  -0.43503  -0.43420  -0.43381
 Alpha  occ. eigenvalues --   -0.43294  -0.43093  -0.42910  -0.42803  -0.42567
 Alpha  occ. eigenvalues --   -0.42265  -0.41934  -0.41714  -0.41260  -0.41175
 Alpha  occ. eigenvalues --   -0.40760  -0.40707  -0.40584  -0.40454  -0.40329
 Alpha  occ. eigenvalues --   -0.39921  -0.39882  -0.39639  -0.39542  -0.39389
 Alpha  occ. eigenvalues --   -0.39296  -0.38919  -0.38730  -0.38617  -0.38563
 Alpha  occ. eigenvalues --   -0.38466  -0.38194  -0.38120  -0.38036  -0.37662
 Alpha  occ. eigenvalues --   -0.37615  -0.37469  -0.37448  -0.37259  -0.36980
 Alpha  occ. eigenvalues --   -0.36730  -0.36450  -0.36334  -0.36078  -0.35902
 Alpha  occ. eigenvalues --   -0.35765  -0.35651  -0.35559  -0.35114  -0.34950
 Alpha  occ. eigenvalues --   -0.34752  -0.34467  -0.34438  -0.34065  -0.33979
 Alpha  occ. eigenvalues --   -0.33129  -0.32762  -0.32610  -0.32478  -0.32231
 Alpha  occ. eigenvalues --   -0.32105  -0.31907  -0.31526  -0.31134  -0.30921
 Alpha  occ. eigenvalues --   -0.30871  -0.30737  -0.30338  -0.29574  -0.29478
 Alpha  occ. eigenvalues --   -0.28938  -0.28740  -0.28354  -0.26921  -0.25981
 Alpha  occ. eigenvalues --   -0.25829  -0.25377  -0.25245  -0.24673  -0.20860
 Alpha  occ. eigenvalues --   -0.19070
 Alpha virt. eigenvalues --   -0.11432  -0.04894  -0.03811  -0.02205  -0.01012
 Alpha virt. eigenvalues --   -0.00641  -0.00066   0.01302   0.01820   0.02936
 Alpha virt. eigenvalues --    0.04166   0.04490   0.04640   0.05232   0.05473

 Mulliken charges:
               1
     1  Mg   0.962060
     2  C    0.041657
     3  C   -0.049765
     4  C   -0.037882
     5  C   -0.083235
     6  N   -0.377653
     7  C    0.007611
     8  C   -0.063248
     9  C   -0.169644
    10  C    0.067193
    11  C    0.024087
    12  C    0.006834
    13  C    0.003284
    14  C    0.216625
    15  O   -0.289376
    16  O   -0.332061
    17  N   -0.477775
    18  C    0.179701
    19  C   -0.175123
    20  C   -0.110930
    21  C    0.168481
    22  C    0.036119
    23  C    0.085466
    24  O   -0.244341
    25  C   -0.047116
    26  N   -0.393540
    27  C    0.048798
    28  C   -0.160547
    29  C    0.000847
    30  C    0.052999
    31  C    0.015020
    32  C   -0.044043
    33  C   -0.095573
    34  N   -0.452077
    35  C    0.157638
    36  C   -0.180431
    37  C   -0.008346
    38  C    0.127189
    39  C    0.074323
    40  C    0.126248
    41  O   -0.219961
    42  C   -0.145703
    43  C    0.292595
    44  O   -0.248214
    45  O   -0.376390
    46  C    0.126430
    47  C    0.229688
    48  C   -0.140408
    49  C   -0.228193
    50  C    0.004544
    51  C    0.027426
    52  C   -0.078118
    53  C    0.005548
    54  C   -0.249904
    55  C   -0.013279
    56  C   -0.022770
    57  C   -0.026843
    58  C   -0.022122
    59  C   -0.190949
    60  C   -0.034800
    61  C    0.025985
    62  C   -0.089780
    63  C    0.000432
    64  C   -0.230124
    65  C   -0.009987
    66  C    0.000783
    67  H   -0.010490
    68  H    0.026764
    69  H   -0.002517
    70  H    0.087803
    71  H    0.039724
    72  H    0.047976
    73  H    0.045753
    74  H    0.055363
    75  H    0.033437
    76  H    0.048078
    77  H    0.056250
    78  H    0.067516
    79  H    0.067940
    80  H    0.037373
    81  H    0.055694
    82  H    0.063536
    83  H    0.054543
    84  H    0.055272
    85  H    0.053194
    86  H    0.052869
    87  H    0.045847
    88  H    0.038075
    89  H    0.048832
    90  H    0.044318
    91  H    0.029199
    92  H    0.040413
    93  H    0.045213
    94  H    0.054642
    95  H    0.019848
    96  H    0.076720
    97  H    0.050728
    98  H    0.079006
    99  H    0.054057
   100  H    0.068872
   101  H    0.045643
   102  H    0.065481
   103  H    0.042216
   104  H    0.018521
   105  H    0.047101
   106  H    0.033276
   107  H    0.072462
   108  H    0.051438
   109  H    0.020209
   110  H    0.046405
   111  H    0.046254
   112  H    0.035765
   113  H    0.029216
   114  H    0.036438
   115  H    0.032422
   116  H    0.045929
   117  H    0.038720
   118  H    0.036862
   119  H    0.029142
   120  H    0.042546
   121  H    0.028382
   122  H    0.024627
   123  H    0.028637
   124  H    0.034238
   125  H    0.029438
   126  H    0.034439
   127  H    0.032881
   128  H    0.020667
   129  H    0.012115
   130  H    0.020389
   131  H    0.028791
   132  H    0.024272
   133  H    0.026095
   134  H    0.038111
   135  H    0.040422
   136  H    0.030845
   137  H    0.018784
   138  H    0.023946
   139  H    0.038852
   140  H    0.020818
 Sum of Mulliken charges =  -0.00000

 Dipole moment (field-independent basis, Debye):
    X=              2.6680    Y=              3.0319    Z=             -3.5808  Tot=              5.3975
 Quadrupole moment (field-independent basis, Debye-Ang):
   XX=           -354.3036   YY=           -425.5629   ZZ=           -404.7436
   XY=             11.8332   XZ=              7.0780   YZ=              3.0912

 Normal termination of Gaussian 16 at Thu Apr 28 11:51:46 2022.
