 Gaussian 16, Revision A.03,
 Gaussian 16:  ES64L-G16RevA.03 25-Dec-2016

 --------------------------------
 #p wB97XD/Def2SVP td=(nstates=5)
 --------------------------------

 -----------------------------------------------------
 step_1551_chromophore_19 TDDFT with wB97XD functional
 -----------------------------------------------------
 Symbolic Z-matrix:
 Charge =  0 Multiplicity = 1

                         Standard orientation:
 ---------------------------------------------------------------------
 Center     Atomic      Atomic             Coordinates (Angstroms)
 Number     Number       Type             X           Y           Z
 ---------------------------------------------------------------------
      1         12           0       -5.892735    0.445435   -0.048124
      2          6           0       -3.490992   -2.217760   -0.157059
      3          6           0       -3.250501    2.627758    0.159689
      4          6           0       -8.143893    2.858485    0.270382
      5          6           0       -8.354970   -1.939934    0.090815
      6          7           0       -3.557667    0.191900    0.257689
      7          6           0       -2.888633   -0.963076   -0.088645
      8          6           0       -1.340253   -0.569085   -0.230626
      9          6           0       -1.335635    0.940629    0.084897
     10          6           0       -2.766817    1.350567    0.224944
     11          6           0       -0.528262    1.343749    1.331190
     12          6           0       -0.693147   -1.033690   -1.575408
     13          6           0        0.650336   -1.771911   -1.591579
     14          6           0        1.668467   -1.530310   -0.410339
     15          8           0        1.503051   -1.847729    0.771918
     16          8           0        2.822776   -0.963283   -0.828696
     17          7           0       -5.703187    2.507882    0.267125
     18          6           0       -4.555418    3.225141    0.319218
     19          6           0       -4.882210    4.608473    0.456637
     20          6           0       -6.330127    4.693631    0.394833
     21          6           0       -6.803154    3.293750    0.269876
     22          6           0       -3.914185    5.737264    0.408654
     23          6           0       -7.188037    6.018908    0.410004
     24          8           0       -8.409566    6.080494    0.302443
     25          6           0       -6.492304    7.399222    0.253214
     26          7           0       -7.927233    0.416147    0.265527
     27          6           0       -8.634303    1.539100    0.300513
     28          6           0      -10.164343    1.246892    0.419828
     29          6           0      -10.166821   -0.300095    0.321301
     30          6           0       -8.744066   -0.627113    0.223493
     31          6           0      -10.769002    1.789599    1.673591
     32          6           0      -11.222101   -0.754660   -0.794004
     33          6           0      -10.705175   -1.514001   -2.045421
     34          7           0       -5.961207   -1.653757   -0.069518
     35          6           0       -7.079244   -2.454497   -0.062570
     36          6           0       -6.647943   -3.830725   -0.285676
     37          6           0       -5.229880   -3.812171   -0.335817
     38          6           0       -4.906841   -2.454698   -0.184047
     39          6           0       -7.647129   -4.982771   -0.471984
     40          6           0       -4.040748   -4.600320   -0.481644
     41          8           0       -3.840739   -5.818383   -0.565928
     42          6           0       -2.859587   -3.587486   -0.477987
     43          6           0       -1.987546   -4.049650    0.573057
     44          8           0       -2.093910   -3.775148    1.758749
     45          8           0       -1.007021   -4.850049   -0.012979
     46          6           0       -0.028049   -5.337187    0.951295
     47          6           0        3.626858   -0.423781    0.252380
     48          6           0        4.952062   -0.143032   -0.287040
     49          6           0        5.835180   -1.134167   -0.654652
     50          6           0        5.654790   -2.592876   -0.271432
     51          6           0        7.146852   -0.888528   -1.366438
     52          6           0        8.056931    0.333515   -0.848522
     53          6           0        8.148391    1.441449   -1.929881
     54          6           0        9.455930    2.239358   -1.894460
     55          6           0        9.273295    3.791837   -2.269597
     56          6           0       10.570657    1.594808   -2.780055
     57          6           0       11.997112    1.982566   -2.385488
     58          6           0       13.058237    0.790764   -2.224460
     59          6           0       13.769168    0.747991   -0.806737
     60          6           0       15.109501   -0.074079   -0.904227
     61          6           0       12.884703    0.175230    0.322790
     62          6           0       12.467424    1.088517    1.453310
     63          6           0       11.386103    0.454308    2.376100
     64          6           0       12.112737   -0.316874    3.512435
     65          6           0       11.482718   -1.675329    3.689567
     66          6           0       12.405430    0.552712    4.751585
     67          1           0       -2.395994    3.301066    0.072674
     68          1           0       -8.950956    3.587876    0.172525
     69          1           0       -9.171769   -2.653575   -0.044779
     70          1           0       -0.936842   -1.146728    0.601511
     71          1           0       -0.888341    1.514180   -0.726999
     72          1           0       -1.174422    1.553070    2.183546
     73          1           0        0.049531    2.168671    0.911815
     74          1           0        0.023032    0.501672    1.749855
     75          1           0       -0.600168   -0.103073   -2.134100
     76          1           0       -1.332097   -1.657755   -2.201328
     77          1           0        1.161632   -1.587206   -2.536369
     78          1           0        0.427538   -2.837676   -1.549689
     79          1           0       -3.875851    6.159849   -0.595481
     80          1           0       -2.878819    5.474385    0.627144
     81          1           0       -4.194288    6.505090    1.129146
     82          1           0       -6.238513    7.784158    1.241072
     83          1           0       -7.257103    8.079182   -0.120076
     84          1           0       -5.633154    7.317734   -0.413064
     85          1           0      -10.666082    1.828848   -0.353649
     86          1           0      -10.528065   -0.693152    1.272414
     87          1           0       -9.934506    2.202303    2.239968
     88          1           0      -11.190169    1.095845    2.401502
     89          1           0      -11.497342    2.548715    1.388290
     90          1           0      -11.929811    0.000604   -1.137042
     91          1           0      -11.906776   -1.504492   -0.396438
     92          1           0      -11.336881   -1.385829   -2.924799
     93          1           0      -10.638763   -2.594437   -1.919306
     94          1           0       -9.732160   -1.091152   -2.297711
     95          1           0       -8.613305   -4.593987   -0.796846
     96          1           0       -7.761586   -5.676280    0.360409
     97          1           0       -7.398146   -5.483113   -1.408321
     98          1           0       -2.284342   -3.606593   -1.403668
     99          1           0       -0.465049   -5.948949    1.739784
    100          1           0        0.547514   -4.535647    1.415980
    101          1           0        0.596818   -6.021147    0.377683
    102          1           0        3.757888   -1.131867    1.070198
    103          1           0        3.188148    0.481175    0.674394
    104          1           0        5.262365    0.880044   -0.501443
    105          1           0        5.705583   -3.187444   -1.183308
    106          1           0        4.614740   -2.772648   -0.000319
    107          1           0        6.293244   -2.925605    0.546982
    108          1           0        6.884646   -0.625309   -2.390859
    109          1           0        7.633631   -1.860689   -1.451900
    110          1           0        9.036840   -0.109659   -0.669739
    111          1           0        7.641629    0.646812    0.109106
    112          1           0        7.226510    2.021514   -1.913281
    113          1           0        8.285073    0.876376   -2.852907
    114          1           0        9.767819    2.190304   -0.851124
    115          1           0       10.078689    4.077194   -2.946647
    116          1           0        9.336758    4.368553   -1.347158
    117          1           0        8.332571    3.909670   -2.805992
    118          1           0       10.386553    1.990547   -3.778327
    119          1           0       10.542343    0.514262   -2.640946
    120          1           0       12.008956    2.633910   -1.511967
    121          1           0       12.336758    2.486594   -3.290409
    122          1           0       13.857043    0.977202   -2.942990
    123          1           0       12.689756   -0.181381   -2.552193
    124          1           0       14.063352    1.749741   -0.493445
    125          1           0       15.136698   -0.745546   -1.762889
    126          1           0       15.398966   -0.708550   -0.065694
    127          1           0       15.919323    0.636315   -1.072414
    128          1           0       13.298449   -0.750729    0.722551
    129          1           0       11.943370   -0.104042   -0.152051
    130          1           0       11.980581    1.984681    1.068978
    131          1           0       13.357467    1.414977    1.991077
    132          1           0       10.728492   -0.181001    1.782972
    133          1           0       10.738845    1.262358    2.718025
    134          1           0       13.159858   -0.459044    3.243364
    135          1           0       11.920231   -2.381653    2.984290
    136          1           0       10.397561   -1.661668    3.587218
    137          1           0       11.547814   -2.141004    4.672220
    138          1           0       13.467673    0.595392    4.989969
    139          1           0       11.841058    0.213537    5.620981
    140          1           0       12.269710    1.608066    4.518879
 ---------------------------------------------------------------------

 SCF Done:  E(RwB97XD) =  -3007.87143184     A.U. after   19 cycles

 Excitation energies and oscillator strengths:

 Excited State   1:      Singlet-A      1.6636 eV  745.28 nm  f=0.4216  <S**2>=0.000
     245 -> 248       -0.17717
     246 -> 247        0.68434
     245 <- 248       -0.11376
 This state for optimization and/or second-order correction.
 Total Energy, E(TD-HF/TD-DFT) =  -3007.81029581
 Copying the excited state density for this state as the 1-particle RhoCI density.

 Excited State   2:      Singlet-A      2.1362 eV  580.39 nm  f=0.1581  <S**2>=0.000
     245 -> 247        0.65805
     246 -> 248        0.24119

 Excited State   3:      Singlet-A      3.3973 eV  364.95 nm  f=0.0018  <S**2>=0.000
     241 -> 247       -0.28163
     243 -> 247        0.62661

 Excited State   4:      Singlet-A      3.4819 eV  356.08 nm  f=0.0011  <S**2>=0.000
     240 -> 247        0.52346
     240 -> 249       -0.34209
     240 -> 250        0.15031
     241 -> 247        0.18271
     243 -> 247        0.11015

 Excited State   5:      Singlet-A      3.5383 eV  350.41 nm  f=0.0227  <S**2>=0.000
     240 -> 247       -0.20015
     240 -> 249        0.10575
     241 -> 247        0.52714
     242 -> 247        0.12562
     243 -> 247        0.22983
     246 -> 248       -0.26730

 The electronic state is 1-A.
 Alpha  occ. eigenvalues --  -46.95581 -19.30738 -19.29436 -19.25196 -19.24199
 Alpha  occ. eigenvalues --  -19.24070 -19.23860 -14.46946 -14.45753 -14.44177
 Alpha  occ. eigenvalues --  -14.43870 -10.43856 -10.42027 -10.39418 -10.39297
 Alpha  occ. eigenvalues --  -10.35398 -10.35262 -10.34527 -10.34388 -10.34387
 Alpha  occ. eigenvalues --  -10.34203 -10.33996 -10.33774 -10.33677 -10.33201
 Alpha  occ. eigenvalues --  -10.33119 -10.32165 -10.32102 -10.31989 -10.31908
 Alpha  occ. eigenvalues --  -10.31842 -10.31716 -10.31667 -10.31582 -10.31515
 Alpha  occ. eigenvalues --  -10.31329 -10.31141 -10.30957 -10.30882 -10.30665
 Alpha  occ. eigenvalues --  -10.30515 -10.30436 -10.30287 -10.30170 -10.30059
 Alpha  occ. eigenvalues --  -10.29909 -10.29779 -10.29691 -10.29651 -10.29557
 Alpha  occ. eigenvalues --  -10.29495 -10.29448 -10.29293 -10.29249 -10.29179
 Alpha  occ. eigenvalues --  -10.29149 -10.29139 -10.29042 -10.28938 -10.28881
 Alpha  occ. eigenvalues --  -10.28674 -10.28562 -10.28287 -10.28163 -10.28144
 Alpha  occ. eigenvalues --  -10.28021  -3.21507  -1.95090  -1.94634  -1.94472
 Alpha  occ. eigenvalues --   -1.19680  -1.17205  -1.11718  -1.11321  -1.09900
 Alpha  occ. eigenvalues --   -1.09356  -1.08295  -1.06260  -1.05411  -1.03377
 Alpha  occ. eigenvalues --   -0.94740  -0.92249  -0.91447  -0.91413  -0.90966
 Alpha  occ. eigenvalues --   -0.90825  -0.90579  -0.89832  -0.88959  -0.88811
 Alpha  occ. eigenvalues --   -0.87984  -0.87390  -0.86381  -0.85998  -0.85233
 Alpha  occ. eigenvalues --   -0.84550  -0.83562  -0.83151  -0.82616  -0.81707
 Alpha  occ. eigenvalues --   -0.81539  -0.80276  -0.79666  -0.79366  -0.77971
 Alpha  occ. eigenvalues --   -0.77650  -0.77386  -0.77229  -0.76289  -0.76118
 Alpha  occ. eigenvalues --   -0.75302  -0.74768  -0.73469  -0.72157  -0.71822
 Alpha  occ. eigenvalues --   -0.70772  -0.70428  -0.68888  -0.68760  -0.68201
 Alpha  occ. eigenvalues --   -0.67344  -0.67244  -0.66898  -0.66205  -0.66088
 Alpha  occ. eigenvalues --   -0.65363  -0.65064  -0.64706  -0.63283  -0.62195
 Alpha  occ. eigenvalues --   -0.61651  -0.61506  -0.60970  -0.60416  -0.59944
 Alpha  occ. eigenvalues --   -0.59663  -0.59114  -0.58535  -0.58157  -0.57895
 Alpha  occ. eigenvalues --   -0.57091  -0.56758  -0.56573  -0.56319  -0.56026
 Alpha  occ. eigenvalues --   -0.55614  -0.55112  -0.54998  -0.54752  -0.54636
 Alpha  occ. eigenvalues --   -0.54296  -0.54118  -0.54042  -0.53901  -0.53839
 Alpha  occ. eigenvalues --   -0.53609  -0.53113  -0.52921  -0.52754  -0.52513
 Alpha  occ. eigenvalues --   -0.52301  -0.52122  -0.51861  -0.51685  -0.51615
 Alpha  occ. eigenvalues --   -0.51381  -0.50930  -0.50820  -0.50752  -0.50700
 Alpha  occ. eigenvalues --   -0.50635  -0.50388  -0.50236  -0.50062  -0.49861
 Alpha  occ. eigenvalues --   -0.49520  -0.49252  -0.49000  -0.48463  -0.48336
 Alpha  occ. eigenvalues --   -0.47961  -0.47897  -0.47811  -0.47637  -0.47481
 Alpha  occ. eigenvalues --   -0.47095  -0.47056  -0.46809  -0.46676  -0.46632
 Alpha  occ. eigenvalues --   -0.46472  -0.46123  -0.45916  -0.45827  -0.45773
 Alpha  occ. eigenvalues --   -0.45512  -0.45305  -0.45263  -0.45167  -0.44783
 Alpha  occ. eigenvalues --   -0.44739  -0.44670  -0.44583  -0.44377  -0.44059
 Alpha  occ. eigenvalues --   -0.43840  -0.43715  -0.43548  -0.43169  -0.42957
 Alpha  occ. eigenvalues --   -0.42849  -0.42654  -0.42577  -0.42214  -0.41980
 Alpha  occ. eigenvalues --   -0.41773  -0.41496  -0.41461  -0.41089  -0.40917
 Alpha  occ. eigenvalues --   -0.40113  -0.39821  -0.39588  -0.39399  -0.39315
 Alpha  occ. eigenvalues --   -0.39109  -0.38953  -0.38534  -0.38094  -0.37968
 Alpha  occ. eigenvalues --   -0.37877  -0.37623  -0.37291  -0.36550  -0.36448
 Alpha  occ. eigenvalues --   -0.35728  -0.35509  -0.35443  -0.33473  -0.33095
 Alpha  occ. eigenvalues --   -0.32575  -0.32398  -0.31804  -0.31376  -0.25783
 Alpha  occ. eigenvalues --   -0.23261
 Alpha virt. eigenvalues --   -0.07395   0.00639   0.02373   0.04310   0.05191
 Alpha virt. eigenvalues --    0.05801   0.06695   0.08038   0.08568   0.09493
 Alpha virt. eigenvalues --    0.10645   0.11030   0.11479   0.11791   0.12352

 Mulliken charges:
               1
     1  Mg   0.954807
     2  C    0.032087
     3  C   -0.066776
     4  C   -0.057655
     5  C   -0.097422
     6  N   -0.348806
     7  C   -0.021625
     8  C   -0.036879
     9  C   -0.138698
    10  C    0.055604
    11  C    0.031378
    12  C    0.015217
    13  C    0.023634
    14  C    0.201913
    15  O   -0.285071
    16  O   -0.331261
    17  N   -0.442653
    18  C    0.169171
    19  C   -0.166323
    20  C   -0.105988
    21  C    0.158538
    22  C    0.051449
    23  C    0.078287
    24  O   -0.239948
    25  C   -0.031579
    26  N   -0.353027
    27  C    0.034187
    28  C   -0.133646
    29  C    0.019871
    30  C    0.041401
    31  C    0.022354
    32  C   -0.031959
    33  C   -0.074377
    34  N   -0.413571
    35  C    0.152518
    36  C   -0.180978
    37  C   -0.008698
    38  C    0.117147
    39  C    0.086707
    40  C    0.112381
    41  O   -0.209795
    42  C   -0.101314
    43  C    0.266871
    44  O   -0.241880
    45  O   -0.374959
    46  C    0.140416
    47  C    0.247855
    48  C   -0.149028
    49  C   -0.215826
    50  C    0.021166
    51  C    0.041705
    52  C   -0.058848
    53  C    0.026061
    54  C   -0.219418
    55  C   -0.000908
    56  C   -0.000444
    57  C   -0.013364
    58  C   -0.005366
    59  C   -0.164818
    60  C   -0.022828
    61  C    0.044013
    62  C   -0.064734
    63  C    0.015412
    64  C   -0.199841
    65  C    0.002808
    66  C    0.008966
    67  H   -0.019123
    68  H    0.023154
    69  H   -0.013349
    70  H    0.070720
    71  H    0.028692
    72  H    0.042706
    73  H    0.040899
    74  H    0.049084
    75  H    0.025667
    76  H    0.039873
    77  H    0.052763
    78  H    0.058265
    79  H    0.061829
    80  H    0.032742
    81  H    0.047801
    82  H    0.059290
    83  H    0.052614
    84  H    0.048732
    85  H    0.043253
    86  H    0.042594
    87  H    0.038246
    88  H    0.032802
    89  H    0.044597
    90  H    0.037693
    91  H    0.021522
    92  H    0.035892
    93  H    0.037747
    94  H    0.043420
    95  H    0.013363
    96  H    0.074322
    97  H    0.046136
    98  H    0.070124
    99  H    0.049927
   100  H    0.065655
   101  H    0.042502
   102  H    0.058417
   103  H    0.038550
   104  H    0.013311
   105  H    0.040985
   106  H    0.024678
   107  H    0.068110
   108  H    0.041248
   109  H    0.014631
   110  H    0.034201
   111  H    0.037335
   112  H    0.027692
   113  H    0.015227
   114  H    0.018079
   115  H    0.025292
   116  H    0.041268
   117  H    0.032909
   118  H    0.027850
   119  H    0.015303
   120  H    0.031273
   121  H    0.021164
   122  H    0.016143
   123  H    0.020772
   124  H    0.023052
   125  H    0.022953
   126  H    0.029234
   127  H    0.027059
   128  H    0.009889
   129  H   -0.006334
   130  H    0.009685
   131  H    0.018352
   132  H    0.013452
   133  H    0.019192
   134  H    0.024349
   135  H    0.034245
   136  H    0.024062
   137  H    0.013569
   138  H    0.018860
   139  H    0.033850
   140  H    0.014317
 Sum of Mulliken charges =  -0.00000

 Dipole moment (field-independent basis, Debye):
    X=              2.6491    Y=              2.8932    Z=             -3.6329  Tot=              5.3466
 Quadrupole moment (field-independent basis, Debye-Ang):
   XX=           -355.0889   YY=           -423.7029   ZZ=           -404.3748
   XY=             12.4279   XZ=              7.6090   YZ=              3.2010

 Normal termination of Gaussian 16 at Thu Apr 28 12:21:07 2022.
