 Gaussian 16, Revision A.03,
 Gaussian 16:  ES64L-G16RevA.03 25-Dec-2016

 --------------------
 #p ZINDO=(nstates=5)
 --------------------

 ------------------------------
 step_1551_chromophore_19 ZINDO
 ------------------------------
 Symbolic Z-matrix:
 Charge =  0 Multiplicity = 1

                         Standard orientation:
 ---------------------------------------------------------------------
 Center     Atomic      Atomic             Coordinates (Angstroms)
 Number     Number       Type             X           Y           Z
 ---------------------------------------------------------------------
      1         12           0       -5.892735    0.445435   -0.048124
      2          6           0       -3.490992   -2.217760   -0.157059
      3          6           0       -3.250501    2.627758    0.159689
      4          6           0       -8.143893    2.858485    0.270382
      5          6           0       -8.354970   -1.939934    0.090815
      6          7           0       -3.557667    0.191900    0.257689
      7          6           0       -2.888633   -0.963076   -0.088645
      8          6           0       -1.340253   -0.569085   -0.230626
      9          6           0       -1.335635    0.940629    0.084897
     10          6           0       -2.766817    1.350567    0.224944
     11          6           0       -0.528262    1.343749    1.331190
     12          6           0       -0.693147   -1.033690   -1.575408
     13          6           0        0.650336   -1.771911   -1.591579
     14          6           0        1.668467   -1.530310   -0.410339
     15          8           0        1.503051   -1.847729    0.771918
     16          8           0        2.822776   -0.963283   -0.828696
     17          7           0       -5.703187    2.507882    0.267125
     18          6           0       -4.555418    3.225141    0.319218
     19          6           0       -4.882210    4.608473    0.456637
     20          6           0       -6.330127    4.693631    0.394833
     21          6           0       -6.803154    3.293750    0.269876
     22          6           0       -3.914185    5.737264    0.408654
     23          6           0       -7.188037    6.018908    0.410004
     24          8           0       -8.409566    6.080494    0.302443
     25          6           0       -6.492304    7.399222    0.253214
     26          7           0       -7.927233    0.416147    0.265527
     27          6           0       -8.634303    1.539100    0.300513
     28          6           0      -10.164343    1.246892    0.419828
     29          6           0      -10.166821   -0.300095    0.321301
     30          6           0       -8.744066   -0.627113    0.223493
     31          6           0      -10.769002    1.789599    1.673591
     32          6           0      -11.222101   -0.754660   -0.794004
     33          6           0      -10.705175   -1.514001   -2.045421
     34          7           0       -5.961207   -1.653757   -0.069518
     35          6           0       -7.079244   -2.454497   -0.062570
     36          6           0       -6.647943   -3.830725   -0.285676
     37          6           0       -5.229880   -3.812171   -0.335817
     38          6           0       -4.906841   -2.454698   -0.184047
     39          6           0       -7.647129   -4.982771   -0.471984
     40          6           0       -4.040748   -4.600320   -0.481644
     41          8           0       -3.840739   -5.818383   -0.565928
     42          6           0       -2.859587   -3.587486   -0.477987
     43          6           0       -1.987546   -4.049650    0.573057
     44          8           0       -2.093910   -3.775148    1.758749
     45          8           0       -1.007021   -4.850049   -0.012979
     46          6           0       -0.028049   -5.337187    0.951295
     47          6           0        3.626858   -0.423781    0.252380
     48          6           0        4.952062   -0.143032   -0.287040
     49          6           0        5.835180   -1.134167   -0.654652
     50          6           0        5.654790   -2.592876   -0.271432
     51          6           0        7.146852   -0.888528   -1.366438
     52          6           0        8.056931    0.333515   -0.848522
     53          6           0        8.148391    1.441449   -1.929881
     54          6           0        9.455930    2.239358   -1.894460
     55          6           0        9.273295    3.791837   -2.269597
     56          6           0       10.570657    1.594808   -2.780055
     57          6           0       11.997112    1.982566   -2.385488
     58          6           0       13.058237    0.790764   -2.224460
     59          6           0       13.769168    0.747991   -0.806737
     60          6           0       15.109501   -0.074079   -0.904227
     61          6           0       12.884703    0.175230    0.322790
     62          6           0       12.467424    1.088517    1.453310
     63          6           0       11.386103    0.454308    2.376100
     64          6           0       12.112737   -0.316874    3.512435
     65          6           0       11.482718   -1.675329    3.689567
     66          6           0       12.405430    0.552712    4.751585
     67          1           0       -2.395994    3.301066    0.072674
     68          1           0       -8.950956    3.587876    0.172525
     69          1           0       -9.171769   -2.653575   -0.044779
     70          1           0       -0.936842   -1.146728    0.601511
     71          1           0       -0.888341    1.514180   -0.726999
     72          1           0       -1.174422    1.553070    2.183546
     73          1           0        0.049531    2.168671    0.911815
     74          1           0        0.023032    0.501672    1.749855
     75          1           0       -0.600168   -0.103073   -2.134100
     76          1           0       -1.332097   -1.657755   -2.201328
     77          1           0        1.161632   -1.587206   -2.536369
     78          1           0        0.427538   -2.837676   -1.549689
     79          1           0       -3.875851    6.159849   -0.595481
     80          1           0       -2.878819    5.474385    0.627144
     81          1           0       -4.194288    6.505090    1.129146
     82          1           0       -6.238513    7.784158    1.241072
     83          1           0       -7.257103    8.079182   -0.120076
     84          1           0       -5.633154    7.317734   -0.413064
     85          1           0      -10.666082    1.828848   -0.353649
     86          1           0      -10.528065   -0.693152    1.272414
     87          1           0       -9.934506    2.202303    2.239968
     88          1           0      -11.190169    1.095845    2.401502
     89          1           0      -11.497342    2.548715    1.388290
     90          1           0      -11.929811    0.000604   -1.137042
     91          1           0      -11.906776   -1.504492   -0.396438
     92          1           0      -11.336881   -1.385829   -2.924799
     93          1           0      -10.638763   -2.594437   -1.919306
     94          1           0       -9.732160   -1.091152   -2.297711
     95          1           0       -8.613305   -4.593987   -0.796846
     96          1           0       -7.761586   -5.676280    0.360409
     97          1           0       -7.398146   -5.483113   -1.408321
     98          1           0       -2.284342   -3.606593   -1.403668
     99          1           0       -0.465049   -5.948949    1.739784
    100          1           0        0.547514   -4.535647    1.415980
    101          1           0        0.596818   -6.021147    0.377683
    102          1           0        3.757888   -1.131867    1.070198
    103          1           0        3.188148    0.481175    0.674394
    104          1           0        5.262365    0.880044   -0.501443
    105          1           0        5.705583   -3.187444   -1.183308
    106          1           0        4.614740   -2.772648   -0.000319
    107          1           0        6.293244   -2.925605    0.546982
    108          1           0        6.884646   -0.625309   -2.390859
    109          1           0        7.633631   -1.860689   -1.451900
    110          1           0        9.036840   -0.109659   -0.669739
    111          1           0        7.641629    0.646812    0.109106
    112          1           0        7.226510    2.021514   -1.913281
    113          1           0        8.285073    0.876376   -2.852907
    114          1           0        9.767819    2.190304   -0.851124
    115          1           0       10.078689    4.077194   -2.946647
    116          1           0        9.336758    4.368553   -1.347158
    117          1           0        8.332571    3.909670   -2.805992
    118          1           0       10.386553    1.990547   -3.778327
    119          1           0       10.542343    0.514262   -2.640946
    120          1           0       12.008956    2.633910   -1.511967
    121          1           0       12.336758    2.486594   -3.290409
    122          1           0       13.857043    0.977202   -2.942990
    123          1           0       12.689756   -0.181381   -2.552193
    124          1           0       14.063352    1.749741   -0.493445
    125          1           0       15.136698   -0.745546   -1.762889
    126          1           0       15.398966   -0.708550   -0.065694
    127          1           0       15.919323    0.636315   -1.072414
    128          1           0       13.298449   -0.750729    0.722551
    129          1           0       11.943370   -0.104042   -0.152051
    130          1           0       11.980581    1.984681    1.068978
    131          1           0       13.357467    1.414977    1.991077
    132          1           0       10.728492   -0.181001    1.782972
    133          1           0       10.738845    1.262358    2.718025
    134          1           0       13.159858   -0.459044    3.243364
    135          1           0       11.920231   -2.381653    2.984290
    136          1           0       10.397561   -1.661668    3.587218
    137          1           0       11.547814   -2.141004    4.672220
    138          1           0       13.467673    0.595392    4.989969
    139          1           0       11.841058    0.213537    5.620981
    140          1           0       12.269710    1.608066    4.518879
 ---------------------------------------------------------------------

 SCF Done:  E(RZINDO/S) =  -474.347979639     A.U. after   20 cycles

 Excitation energies and oscillator strengths:

 Excited State   1:      Singlet-A      1.2483 eV  993.23 nm  f=0.6531  <S**2>=0.000
     175 ->178        -0.18807
     176 ->177         0.66303
 This state for optimization and/or second-order correction.
 Total Energy, E(CIS/TDA) =  -474.302105550
 Copying the excited state density for this state as the 1-particle RhoCI density.

 Excited State   2:      Singlet-A      1.9149 eV  647.47 nm  f=0.1149  <S**2>=0.000
     175 ->177         0.59369
     176 ->178         0.35486

 Excited State   3:      Singlet-A      2.9580 eV  419.15 nm  f=0.0002  <S**2>=0.000
     167 ->180         0.12714
     168 ->179        -0.19414
     169 ->177         0.23424
     169 ->178         0.16218
     169 ->179         0.16245
     169 ->180         0.37103
     169 ->186         0.18926
     170 ->177         0.14506
     170 ->180         0.19557

 Excited State   4:      Singlet-A      2.9626 eV  418.50 nm  f=0.0006  <S**2>=0.000
     168 ->177         0.34265
     168 ->179        -0.42951
     168 ->180         0.20055
     168 ->186        -0.11102
     168 ->187         0.14558
     169 ->180        -0.12094
     170 ->179        -0.11308

 Excited State   5:      Singlet-A      3.0680 eV  404.12 nm  f=1.0172  <S**2>=0.000
     171 ->177         0.11299
     175 ->177        -0.31901
     176 ->178         0.57364
     176 ->180         0.10967

 The electronic state is 1-A.
 Alpha  occ. eigenvalues --   -1.86324  -1.82939  -1.79229  -1.75524  -1.72849
 Alpha  occ. eigenvalues --   -1.70998  -1.64538  -1.60672  -1.58183  -1.57306
 Alpha  occ. eigenvalues --   -1.54188  -1.51051  -1.48715  -1.47489  -1.46554
 Alpha  occ. eigenvalues --   -1.44665  -1.41879  -1.41527  -1.39257  -1.37548
 Alpha  occ. eigenvalues --   -1.37127  -1.33035  -1.32900  -1.32033  -1.29536
 Alpha  occ. eigenvalues --   -1.27606  -1.26228  -1.22468  -1.19459  -1.18598
 Alpha  occ. eigenvalues --   -1.18104  -1.17277  -1.15126  -1.13381  -1.12971
 Alpha  occ. eigenvalues --   -1.11431  -1.10488  -1.09840  -1.04512  -1.03822
 Alpha  occ. eigenvalues --   -1.01520  -1.00871  -0.98797  -0.98107  -0.97866
 Alpha  occ. eigenvalues --   -0.95462  -0.94539  -0.93922  -0.92783  -0.92644
 Alpha  occ. eigenvalues --   -0.90334  -0.90206  -0.89421  -0.88528  -0.87804
 Alpha  occ. eigenvalues --   -0.85700  -0.84536  -0.83983  -0.81292  -0.80792
 Alpha  occ. eigenvalues --   -0.78801  -0.78000  -0.77514  -0.77185  -0.76370
 Alpha  occ. eigenvalues --   -0.75700  -0.74862  -0.74703  -0.74453  -0.74237
 Alpha  occ. eigenvalues --   -0.73662  -0.72286  -0.71772  -0.71490  -0.70756
 Alpha  occ. eigenvalues --   -0.70254  -0.69249  -0.68698  -0.68644  -0.68047
 Alpha  occ. eigenvalues --   -0.67828  -0.67321  -0.66341  -0.65956  -0.65413
 Alpha  occ. eigenvalues --   -0.65217  -0.64995  -0.64563  -0.64097  -0.63638
 Alpha  occ. eigenvalues --   -0.63316  -0.63174  -0.63059  -0.62471  -0.62114
 Alpha  occ. eigenvalues --   -0.61476  -0.61111  -0.60146  -0.59869  -0.59653
 Alpha  occ. eigenvalues --   -0.59156  -0.58728  -0.58596  -0.58530  -0.58161
 Alpha  occ. eigenvalues --   -0.57971  -0.57617  -0.57088  -0.56724  -0.56180
 Alpha  occ. eigenvalues --   -0.56035  -0.55461  -0.55389  -0.54429  -0.54049
 Alpha  occ. eigenvalues --   -0.53793  -0.53718  -0.53119  -0.52933  -0.52599
 Alpha  occ. eigenvalues --   -0.52417  -0.51968  -0.51771  -0.51594  -0.51376
 Alpha  occ. eigenvalues --   -0.50741  -0.50633  -0.50439  -0.50201  -0.50066
 Alpha  occ. eigenvalues --   -0.49903  -0.49842  -0.49725  -0.49571  -0.48962
 Alpha  occ. eigenvalues --   -0.48777  -0.48690  -0.48206  -0.48080  -0.47903
 Alpha  occ. eigenvalues --   -0.47644  -0.47470  -0.46695  -0.46288  -0.46151
 Alpha  occ. eigenvalues --   -0.45788  -0.45734  -0.45490  -0.45398  -0.45370
 Alpha  occ. eigenvalues --   -0.44724  -0.44513  -0.44455  -0.44050  -0.43941
 Alpha  occ. eigenvalues --   -0.43404  -0.43282  -0.43026  -0.42213  -0.42161
 Alpha  occ. eigenvalues --   -0.42156  -0.41569  -0.41155  -0.39139  -0.38758
 Alpha  occ. eigenvalues --   -0.37769  -0.36767  -0.35526  -0.35020  -0.34838
 Alpha  occ. eigenvalues --   -0.33433  -0.32633  -0.32182  -0.31469  -0.26407
 Alpha  occ. eigenvalues --   -0.22027
 Alpha virt. eigenvalues --   -0.08873  -0.01617  -0.00669   0.01288   0.01621
 Alpha virt. eigenvalues --    0.01907   0.03175   0.03422   0.04301   0.04796
 Alpha virt. eigenvalues --    0.06190   0.07175   0.07628   0.07771   0.07830

 Mulliken charges:
               1
     1  Mg   0.429987
     2  C   -0.064936
     3  C   -0.085130
     4  C   -0.050555
     5  C   -0.055786
     6  N   -0.328175
     7  C    0.140214
     8  C    0.005323
     9  C    0.016682
    10  C    0.136414
    11  C   -0.056236
    12  C   -0.017622
    13  C    0.009439
    14  C    0.459775
    15  O   -0.523260
    16  O   -0.255436
    17  N   -0.307055
    18  C    0.113226
    19  C   -0.006981
    20  C   -0.061475
    21  C    0.122729
    22  C   -0.038670
    23  C    0.313716
    24  O   -0.516261
    25  C   -0.034382
    26  N   -0.235080
    27  C    0.115094
    28  C   -0.003047
    29  C    0.012416
    30  C    0.143853
    31  C   -0.052820
    32  C   -0.036960
    33  C   -0.057182
    34  N   -0.324282
    35  C    0.094132
    36  C    0.043099
    37  C   -0.050910
    38  C    0.143671
    39  C   -0.044693
    40  C    0.345571
    41  O   -0.522700
    42  C    0.055539
    43  C    0.497220
    44  O   -0.521642
    45  O   -0.272911
    46  C    0.074197
    47  C    0.118661
    48  C   -0.101386
    49  C   -0.003035
    50  C   -0.046859
    51  C   -0.036241
    52  C   -0.035648
    53  C   -0.033517
    54  C   -0.022981
    55  C   -0.064638
    56  C   -0.034022
    57  C   -0.045625
    58  C   -0.038027
    59  C   -0.009808
    60  C   -0.063932
    61  C   -0.031187
    62  C   -0.032414
    63  C   -0.032759
    64  C   -0.006744
    65  C   -0.051523
    66  C   -0.057366
    67  H    0.012203
    68  H    0.047372
    69  H    0.024997
    70  H    0.051540
    71  H    0.020956
    72  H    0.028321
    73  H    0.027813
    74  H    0.032408
    75  H    0.016633
    76  H    0.023007
    77  H    0.033334
    78  H    0.043002
    79  H    0.030823
    80  H    0.017768
    81  H    0.025436
    82  H    0.038541
    83  H    0.036626
    84  H    0.037342
    85  H    0.035127
    86  H    0.035230
    87  H    0.021116
    88  H    0.020810
    89  H    0.023892
    90  H    0.028676
    91  H    0.009721
    92  H    0.015834
    93  H    0.022472
    94  H    0.017405
    95  H    0.016791
    96  H    0.048607
    97  H    0.028960
    98  H    0.056216
    99  H    0.044593
   100  H    0.051463
   101  H    0.022900
   102  H    0.055575
   103  H    0.034645
   104  H    0.027770
   105  H    0.024839
   106  H    0.017104
   107  H    0.040292
   108  H    0.023046
   109  H    0.022249
   110  H    0.018875
   111  H    0.027097
   112  H    0.028749
   113  H    0.018203
   114  H    0.014933
   115  H    0.019640
   116  H    0.024000
   117  H    0.023075
   118  H    0.027009
   119  H    0.023076
   120  H    0.030294
   121  H    0.014035
   122  H    0.008937
   123  H    0.027975
   124  H    0.022674
   125  H    0.014971
   126  H    0.021409
   127  H    0.011011
   128  H    0.021128
   129  H    0.008342
   130  H    0.008440
   131  H    0.020380
   132  H    0.019116
   133  H    0.017173
   134  H    0.017108
   135  H    0.018419
   136  H    0.015288
   137  H    0.011175
   138  H    0.014385
   139  H    0.023768
   140  H    0.016800
 Sum of Mulliken charges =  -0.00000

 Dipole moment (field-independent basis, Debye):
    X=              2.6456    Y=              3.6712    Z=             -6.1138  Tot=              7.6062
 N-N= 4.307632576654D+03 E-N= 0.000000000000D+00  KE=-9.289866887730D+03
 Leave Link  601 at Thu Apr 28 12:34:20 2022, MaxMem=  6710886400 cpu:               0.8 elap:               0.0
 (Enter /sw/apps/gaussian-16.0/g16/l9999.exe)
 1\1\GINC-BP1-COMPUTE165\SP\RZINDO CIS\STO-3G\C55H74Mg1N4O6\OF15641\28-
 Apr-2022\0\\#p ZINDO=(nstates=5)\\step_1551_chromophore_19 ZINDO\\0,1\
 Mg,0,25.695,50.805,26.225\C,0,23.636,52.014,28.903\C,0,27.687,49.342,2
 8.608\C,0,27.69,49.893,23.739\C,0,23.761,52.642,24.067\N,0,25.797,50.9
 12,28.589\C,0,24.704,51.245,29.361\C,0,25.009,50.707,30.841\C,0,26.399
 ,50.055,30.694\C,0,26.737,50.097,29.238\C,0,27.515,50.703,31.532\C,0,2
 3.858,49.839,31.445\C,0,23.33,50.102,32.86\C,0,24.289,50.769,33.921\O,

 Normal termination of Gaussian 16 at Thu Apr 28 12:34:20 2022.
