 Gaussian 16, Revision A.03,
 Gaussian 16:  ES64L-G16RevA.03 25-Dec-2016

 ------------------------------
 #p blyp/Def2SVP td=(nstates=5)
 ------------------------------

 --------------------------------------------------
 step_901_chromophore_19 TDDFT with blyp functional
 --------------------------------------------------
 Symbolic Z-matrix:
 Charge =  0 Multiplicity = 1

                         Standard orientation:
 ---------------------------------------------------------------------
 Center     Atomic      Atomic             Coordinates (Angstroms)
 Number     Number       Type             X           Y           Z
 ---------------------------------------------------------------------
      1         12           0       -5.888835    0.457306   -0.004615
      2          6           0       -3.508805   -2.159790   -0.293891
      3          6           0       -3.311647    2.591544    0.228586
      4          6           0       -8.172369    2.909716    0.305679
      5          6           0       -8.413094   -1.831323   -0.321911
      6          7           0       -3.620756    0.228302   -0.272302
      7          6           0       -2.872699   -0.917671   -0.237622
      8          6           0       -1.370800   -0.588278   -0.140841
      9          6           0       -1.344465    0.960206    0.087254
     10          6           0       -2.881040    1.292950   -0.018697
     11          6           0       -0.521898    1.513112    1.398643
     12          6           0       -0.550778   -1.137723   -1.405006
     13          6           0        0.526563   -2.231444   -1.191301
     14          6           0        1.547565   -2.129156   -0.046436
     15          8           0        1.679923   -2.851113    0.923002
     16          8           0        2.457436   -1.120003   -0.249780
     17          7           0       -5.766026    2.393990    0.289474
     18          6           0       -4.640014    3.110995    0.399157
     19          6           0       -5.015430    4.501164    0.663206
     20          6           0       -6.378569    4.519695    0.817523
     21          6           0       -6.849068    3.225157    0.474843
     22          6           0       -3.970223    5.616788    0.892442
     23          6           0       -7.181053    5.704462    1.263415
     24          8           0       -8.383430    5.586397    1.500876
     25          6           0       -6.577112    7.073707    1.456262
     26          7           0       -7.980650    0.526075    0.048722
     27          6           0       -8.731553    1.659245    0.130137
     28          6           0      -10.216618    1.343354   -0.058700
     29          6           0      -10.146284   -0.065895   -0.662836
     30          6           0       -8.726007   -0.486849   -0.269373
     31          6           0      -11.097680    1.412980    1.339539
     32          6           0      -10.370859   -0.112471   -2.215226
     33          6           0      -11.369302   -1.129433   -2.727884
     34          7           0       -5.976615   -1.592721   -0.147564
     35          6           0       -7.125726   -2.369822   -0.321058
     36          6           0       -6.615197   -3.785513   -0.434853
     37          6           0       -5.221265   -3.697653   -0.454679
     38          6           0       -4.902526   -2.365183   -0.316575
     39          6           0       -7.486744   -5.009265   -0.578669
     40          6           0       -4.070388   -4.481659   -0.461867
     41          8           0       -3.959942   -5.681948   -0.438969
     42          6           0       -2.823689   -3.504661   -0.408999
     43          6           0       -2.118443   -3.876251    0.789603
     44          8           0       -2.472836   -3.644465    1.921343
     45          8           0       -1.110939   -4.655862    0.350916
     46          6           0       -0.333259   -5.533342    1.289691
     47          6           0        3.650218   -0.930332    0.569322
     48          6           0        4.894025   -0.571012   -0.282323
     49          6           0        6.227704   -0.715364    0.003237
     50          6           0        6.711931   -1.063168    1.391034
     51          6           0        7.328919   -0.556305   -1.005595
     52          6           0        8.178445    0.705109   -0.882508
     53          6           0        8.094393    1.523504   -2.208584
     54          6           0        9.413590    2.308957   -2.553882
     55          6           0        9.170322    3.638808   -3.302474
     56          6           0       10.445725    1.416583   -3.216908
     57          6           0       11.940127    1.739824   -2.975185
     58          6           0       12.674486    0.655050   -2.082056
     59          6           0       13.774062    1.248974   -1.142714
     60          6           0       15.088915    0.435041   -1.155592
     61          6           0       13.264478    1.450389    0.302481
     62          6           0       13.185625    0.255722    1.244071
     63          6           0       11.888340    0.164849    2.124026
     64          6           0       12.102498   -0.308290    3.590250
     65          6           0       12.751433   -1.755935    3.605012
     66          6           0       10.824395   -0.250990    4.512520
     67          1           0       -2.500325    3.317400    0.310093
     68          1           0       -8.887404    3.736029    0.305002
     69          1           0       -9.340409   -2.388873   -0.466860
     70          1           0       -1.060221   -1.141449    0.746070
     71          1           0       -0.911665    1.466922   -0.775732
     72          1           0       -1.183402    1.709256    2.242874
     73          1           0       -0.048853    2.452524    1.112058
     74          1           0        0.308084    0.868504    1.686950
     75          1           0       -0.153863   -0.290955   -1.965210
     76          1           0       -1.367067   -1.558038   -1.992448
     77          1           0        1.026939   -2.364722   -2.150892
     78          1           0        0.075338   -3.212005   -1.042266
     79          1           0       -4.082796    6.053970    1.885611
     80          1           0       -4.040097    6.338102    0.077857
     81          1           0       -2.976668    5.171384    0.938256
     82          1           0       -5.972859    7.168841    2.358493
     83          1           0       -7.454579    7.715835    1.524379
     84          1           0       -5.946753    7.187428    0.574350
     85          1           0      -10.626696    2.065334   -0.765197
     86          1           0      -10.858386   -0.654914   -0.084837
     87          1           0      -10.735323    1.997878    2.185093
     88          1           0      -11.327019    0.455883    1.807683
     89          1           0      -12.019772    1.917429    1.051744
     90          1           0       -9.446371   -0.347106   -2.742246
     91          1           0      -10.717188    0.821977   -2.656237
     92          1           0      -12.206772   -0.605523   -3.189039
     93          1           0      -11.582040   -1.816495   -1.908464
     94          1           0      -10.942686   -1.532889   -3.646189
     95          1           0       -8.398141   -4.947198    0.016011
     96          1           0       -6.941246   -5.928829   -0.367304
     97          1           0       -7.826648   -5.140868   -1.604960
     98          1           0       -2.221333   -3.566934   -1.315304
     99          1           0        0.540773   -5.006841    1.673340
    100          1           0       -0.073335   -6.469595    0.798110
    101          1           0       -0.881512   -5.773610    2.200885
    102          1           0        3.903814   -1.854144    1.090442
    103          1           0        3.505929   -0.160581    1.327050
    104          1           0        4.626936   -0.170123   -1.260502
    105          1           0        5.906188   -1.105769    2.123710
    106          1           0        7.457526   -0.330857    1.700171
    107          1           0        7.202646   -2.025322    1.533428
    108          1           0        6.867282   -0.762951   -1.970602
    109          1           0        7.968255   -1.399277   -0.744481
    110          1           0        9.252101    0.541700   -0.795027
    111          1           0        7.789436    1.324623   -0.074482
    112          1           0        7.338559    2.308080   -2.158100
    113          1           0        7.875392    0.877094   -3.058019
    114          1           0        9.865119    2.462467   -1.574336
    115          1           0        8.670980    3.450310   -4.252682
    116          1           0       10.073705    4.128493   -3.665661
    117          1           0        8.646993    4.369507   -2.685092
    118          1           0       10.243885    1.470680   -4.286876
    119          1           0       10.451296    0.352409   -2.977943
    120          1           0       12.070977    2.760989   -2.617865
    121          1           0       12.414009    1.787895   -3.955455
    122          1           0       13.204104   -0.057826   -2.714597
    123          1           0       11.905047    0.105980   -1.539121
    124          1           0       13.926336    2.186449   -1.676515
    125          1           0       15.749058    0.654606   -0.317204
    126          1           0       15.655316    0.704248   -2.047861
    127          1           0       15.007941   -0.647575   -1.258851
    128          1           0       12.228243    1.775221    0.214493
    129          1           0       13.867961    2.231009    0.767913
    130          1           0       14.023277    0.384596    1.930136
    131          1           0       13.250628   -0.581202    0.549157
    132          1           0       11.184628   -0.522723    1.655433
    133          1           0       11.342222    1.093774    2.293015
    134          1           0       12.890051    0.311532    4.017266
    135          1           0       12.098524   -2.514773    4.035815
    136          1           0       13.662135   -1.821781    4.199315
    137          1           0       12.884254   -2.134687    2.591374
    138          1           0       10.935899    0.567538    5.224194
    139          1           0       10.737947   -1.151289    5.121753
    140          1           0        9.873415   -0.226061    3.980783
 ---------------------------------------------------------------------

 SCF Done:  E(RB-LYP) =  -3007.40044102     A.U. after   20 cycles

 Excitation energies and oscillator strengths:

 Excited State   1:      Singlet-A      1.8526 eV  669.24 nm  f=0.2909  <S**2>=0.000
     245 -> 248       -0.18176
     246 -> 247        0.68090
     246 <- 247       -0.14507
 This state for optimization and/or second-order correction.
 Total Energy, E(TD-HF/TD-DFT) =  -3007.33235847
 Copying the excited state density for this state as the 1-particle RhoCI density.

 Excited State   2:      Singlet-A      1.9989 eV  620.25 nm  f=0.0347  <S**2>=0.000
     244 -> 247        0.52229
     245 -> 247        0.44003
     246 -> 248        0.13223

 Excited State   3:      Singlet-A      2.1010 eV  590.12 nm  f=0.0095  <S**2>=0.000
     243 -> 247        0.60096
     244 -> 247        0.29206
     245 -> 247       -0.20541

 Excited State   4:      Singlet-A      2.1548 eV  575.39 nm  f=0.0387  <S**2>=0.000
     243 -> 247        0.35691
     244 -> 247       -0.35918
     245 -> 247        0.42113
     246 -> 248        0.20970

 Excited State   5:      Singlet-A      2.4810 eV  499.74 nm  f=0.0001  <S**2>=0.000
     242 -> 247        0.70709

 The electronic state is 1-A.
 Alpha  occ. eigenvalues --  -46.25800 -18.81671 -18.81287 -18.77142 -18.75586
 Alpha  occ. eigenvalues --  -18.75377 -18.75224 -14.02685 -14.02419 -14.00889
 Alpha  occ. eigenvalues --  -14.00668 -10.04741 -10.02555  -9.99535  -9.98872
 Alpha  occ. eigenvalues --   -9.98468  -9.96420  -9.96015  -9.95995  -9.95769
 Alpha  occ. eigenvalues --   -9.95504  -9.95479  -9.95418  -9.94934  -9.94479
 Alpha  occ. eigenvalues --   -9.94117  -9.94044  -9.93984  -9.93968  -9.93901
 Alpha  occ. eigenvalues --   -9.93763  -9.93276  -9.93235  -9.93226  -9.93214
 Alpha  occ. eigenvalues --   -9.92913  -9.92785  -9.92550  -9.92523  -9.92484
 Alpha  occ. eigenvalues --   -9.92405  -9.92377  -9.92297  -9.92246  -9.92238
 Alpha  occ. eigenvalues --   -9.92166  -9.92085  -9.92083  -9.92061  -9.91963
 Alpha  occ. eigenvalues --   -9.91810  -9.91646  -9.91636  -9.91573  -9.91543
 Alpha  occ. eigenvalues --   -9.91534  -9.91481  -9.91401  -9.91360  -9.91300
 Alpha  occ. eigenvalues --   -9.91212  -9.90976  -9.90959  -9.90795  -9.90497
 Alpha  occ. eigenvalues --   -9.90051  -2.90734  -1.71163  -1.70622  -1.70443
 Alpha  occ. eigenvalues --   -0.97911  -0.96953  -0.91992  -0.91174  -0.89745
 Alpha  occ. eigenvalues --   -0.89456  -0.87615  -0.86518  -0.86101  -0.85299
 Alpha  occ. eigenvalues --   -0.75740  -0.73855  -0.72941  -0.72328  -0.72146
 Alpha  occ. eigenvalues --   -0.71865  -0.71560  -0.70747  -0.70466  -0.70397
 Alpha  occ. eigenvalues --   -0.69360  -0.68824  -0.68047  -0.67567  -0.67281
 Alpha  occ. eigenvalues --   -0.66446  -0.65847  -0.65309  -0.64999  -0.64572
 Alpha  occ. eigenvalues --   -0.64157  -0.62759  -0.62080  -0.61568  -0.60659
 Alpha  occ. eigenvalues --   -0.60425  -0.59918  -0.59906  -0.59629  -0.59219
 Alpha  occ. eigenvalues --   -0.58576  -0.57521  -0.56760  -0.56011  -0.54549
 Alpha  occ. eigenvalues --   -0.54172  -0.53863  -0.53255  -0.52931  -0.51900
 Alpha  occ. eigenvalues --   -0.51846  -0.51379  -0.50981  -0.50197  -0.49779
 Alpha  occ. eigenvalues --   -0.49422  -0.49047  -0.48063  -0.47711  -0.46916
 Alpha  occ. eigenvalues --   -0.46273  -0.46068  -0.45408  -0.45052  -0.44369
 Alpha  occ. eigenvalues --   -0.44134  -0.43058  -0.42703  -0.42404  -0.42076
 Alpha  occ. eigenvalues --   -0.42013  -0.41705  -0.41443  -0.41370  -0.41195
 Alpha  occ. eigenvalues --   -0.41092  -0.40617  -0.40339  -0.40238  -0.40124
 Alpha  occ. eigenvalues --   -0.39911  -0.39643  -0.39348  -0.39250  -0.39167
 Alpha  occ. eigenvalues --   -0.39122  -0.38630  -0.38462  -0.38109  -0.37903
 Alpha  occ. eigenvalues --   -0.37655  -0.37607  -0.37550  -0.37431  -0.37025
 Alpha  occ. eigenvalues --   -0.36949  -0.36916  -0.36558  -0.36504  -0.36258
 Alpha  occ. eigenvalues --   -0.36189  -0.36022  -0.35882  -0.35408  -0.35351
 Alpha  occ. eigenvalues --   -0.35235  -0.35056  -0.34892  -0.34530  -0.34475
 Alpha  occ. eigenvalues --   -0.34276  -0.34257  -0.34113  -0.34007  -0.33886
 Alpha  occ. eigenvalues --   -0.33677  -0.33600  -0.33458  -0.33320  -0.32986
 Alpha  occ. eigenvalues --   -0.32877  -0.32833  -0.32625  -0.32448  -0.32283
 Alpha  occ. eigenvalues --   -0.32082  -0.31929  -0.31864  -0.31660  -0.31509
 Alpha  occ. eigenvalues --   -0.31232  -0.30977  -0.30877  -0.30549  -0.30439
 Alpha  occ. eigenvalues --   -0.30405  -0.30324  -0.30262  -0.29950  -0.29819
 Alpha  occ. eigenvalues --   -0.29558  -0.29425  -0.29365  -0.29288  -0.28826
 Alpha  occ. eigenvalues --   -0.28473  -0.28407  -0.28250  -0.28133  -0.27755
 Alpha  occ. eigenvalues --   -0.27454  -0.27255  -0.26770  -0.26724  -0.26482
 Alpha  occ. eigenvalues --   -0.26324  -0.26047  -0.25713  -0.25438  -0.25422
 Alpha  occ. eigenvalues --   -0.25286  -0.25093  -0.24890  -0.24351  -0.23874
 Alpha  occ. eigenvalues --   -0.23221  -0.22166  -0.22065  -0.21299  -0.21118
 Alpha  occ. eigenvalues --   -0.20448  -0.20115  -0.18646  -0.18441  -0.17053
 Alpha  occ. eigenvalues --   -0.15415
 Alpha virt. eigenvalues --   -0.10998  -0.06687  -0.05545  -0.04318  -0.03419
 Alpha virt. eigenvalues --   -0.02139  -0.01183  -0.00886  -0.00305   0.00412
 Alpha virt. eigenvalues --    0.01290   0.01421   0.02023   0.02626   0.02744

 Mulliken charges:
               1
     1  Mg   0.711532
     2  C   -0.032497
     3  C   -0.063200
     4  C   -0.096380
     5  C   -0.072964
     6  N   -0.164996
     7  C   -0.140149
     8  C    0.025009
     9  C    0.015029
    10  C   -0.005887
    11  C    0.102631
    12  C    0.133575
    13  C    0.125148
    14  C    0.080635
    15  O   -0.173721
    16  O   -0.284471
    17  N   -0.314716
    18  C    0.137528
    19  C   -0.172656
    20  C    0.090863
    21  C    0.149643
    22  C    0.171382
    23  C   -0.115258
    24  O   -0.179620
    25  C    0.153489
    26  N   -0.184900
    27  C    0.033395
    28  C    0.017458
    29  C    0.034667
    30  C   -0.023218
    31  C    0.092417
    32  C    0.094633
    33  C    0.082775
    34  N   -0.274421
    35  C    0.173561
    36  C   -0.183427
    37  C    0.151964
    38  C    0.129765
    39  C    0.162904
    40  C   -0.121019
    41  O   -0.112052
    42  C    0.064497
    43  C    0.117284
    44  O   -0.167818
    45  O   -0.272354
    46  C    0.210301
    47  C    0.307066
    48  C   -0.121622
    49  C   -0.161487
    50  C    0.115124
    51  C    0.180794
    52  C    0.095545
    53  C    0.071759
    54  C   -0.050128
    55  C    0.111053
    56  C    0.084044
    57  C    0.052604
    58  C    0.077708
    59  C   -0.049359
    60  C    0.101281
    61  C    0.084229
    62  C    0.097780
    63  C    0.084933
    64  C   -0.104231
    65  C    0.084240
    66  C    0.105464
    67  H   -0.076367
    68  H   -0.048591
    69  H   -0.069182
    70  H    0.001244
    71  H   -0.022765
    72  H    0.006095
    73  H   -0.012685
    74  H    0.006031
    75  H   -0.016368
    76  H   -0.018489
    77  H   -0.004037
    78  H    0.006036
    79  H    0.001342
    80  H    0.013916
    81  H   -0.023040
    82  H    0.015040
    83  H   -0.000880
    84  H   -0.003670
    85  H   -0.027769
    86  H   -0.033785
    87  H    0.001331
    88  H   -0.004542
    89  H   -0.003596
    90  H   -0.017118
    91  H   -0.025653
    92  H   -0.019353
    93  H    0.006173
    94  H   -0.021716
    95  H   -0.008149
    96  H    0.004113
    97  H   -0.004822
    98  H   -0.004854
    99  H    0.025116
   100  H    0.020285
   101  H    0.011057
   102  H    0.007573
   103  H    0.008537
   104  H   -0.037596
   105  H   -0.020656
   106  H   -0.000256
   107  H   -0.006127
   108  H   -0.022561
   109  H   -0.036337
   110  H   -0.017450
   111  H   -0.011166
   112  H   -0.040277
   113  H   -0.032598
   114  H   -0.041097
   115  H   -0.018217
   116  H   -0.025452
   117  H   -0.005155
   118  H   -0.049458
   119  H   -0.039138
   120  H   -0.024065
   121  H   -0.037759
   122  H   -0.039598
   123  H   -0.024127
   124  H   -0.038960
   125  H   -0.019034
   126  H   -0.027072
   127  H   -0.012807
   128  H   -0.036914
   129  H   -0.033214
   130  H   -0.026436
   131  H   -0.018615
   132  H   -0.031502
   133  H   -0.027636
   134  H   -0.031417
   135  H   -0.030188
   136  H   -0.012197
   137  H   -0.019203
   138  H   -0.009179
   139  H   -0.023202
   140  H   -0.012956
 Sum of Mulliken charges =  -0.00000

 Dipole moment (field-independent basis, Debye):
    X=              3.1436    Y=              3.7039    Z=             -2.9850  Tot=              5.7019
 Quadrupole moment (field-independent basis, Debye-Ang):
   XX=           -372.3515   YY=           -422.6749   ZZ=           -402.3238
   XY=              4.0224   XZ=             18.0927   YZ=              2.1865

 Normal termination of Gaussian 16 at Sat Apr 30 21:45:22 2022.
