 Gaussian 16, Revision A.03,
 Gaussian 16:  ES64L-G16RevA.03 25-Dec-2016

 -----------------------------------
 #p cam-b3lyp/Def2SVP td=(nstates=5)
 -----------------------------------

 -------------------------------------------------------
 step_901_chromophore_19 TDDFT with cam-b3lyp functional
 -------------------------------------------------------
 Symbolic Z-matrix:
 Charge =  0 Multiplicity = 1

                         Standard orientation:
 ---------------------------------------------------------------------
 Center     Atomic      Atomic             Coordinates (Angstroms)
 Number     Number       Type             X           Y           Z
 ---------------------------------------------------------------------
      1         12           0       -5.888835    0.457306   -0.004615
      2          6           0       -3.508805   -2.159790   -0.293891
      3          6           0       -3.311647    2.591544    0.228586
      4          6           0       -8.172369    2.909716    0.305679
      5          6           0       -8.413094   -1.831323   -0.321911
      6          7           0       -3.620756    0.228302   -0.272302
      7          6           0       -2.872699   -0.917671   -0.237622
      8          6           0       -1.370800   -0.588278   -0.140841
      9          6           0       -1.344465    0.960206    0.087254
     10          6           0       -2.881040    1.292950   -0.018697
     11          6           0       -0.521898    1.513112    1.398643
     12          6           0       -0.550778   -1.137723   -1.405006
     13          6           0        0.526563   -2.231444   -1.191301
     14          6           0        1.547565   -2.129156   -0.046436
     15          8           0        1.679923   -2.851113    0.923002
     16          8           0        2.457436   -1.120003   -0.249780
     17          7           0       -5.766026    2.393990    0.289474
     18          6           0       -4.640014    3.110995    0.399157
     19          6           0       -5.015430    4.501164    0.663206
     20          6           0       -6.378569    4.519695    0.817523
     21          6           0       -6.849068    3.225157    0.474843
     22          6           0       -3.970223    5.616788    0.892442
     23          6           0       -7.181053    5.704462    1.263415
     24          8           0       -8.383430    5.586397    1.500876
     25          6           0       -6.577112    7.073707    1.456262
     26          7           0       -7.980650    0.526075    0.048722
     27          6           0       -8.731553    1.659245    0.130137
     28          6           0      -10.216618    1.343354   -0.058700
     29          6           0      -10.146284   -0.065895   -0.662836
     30          6           0       -8.726007   -0.486849   -0.269373
     31          6           0      -11.097680    1.412980    1.339539
     32          6           0      -10.370859   -0.112471   -2.215226
     33          6           0      -11.369302   -1.129433   -2.727884
     34          7           0       -5.976615   -1.592721   -0.147564
     35          6           0       -7.125726   -2.369822   -0.321058
     36          6           0       -6.615197   -3.785513   -0.434853
     37          6           0       -5.221265   -3.697653   -0.454679
     38          6           0       -4.902526   -2.365183   -0.316575
     39          6           0       -7.486744   -5.009265   -0.578669
     40          6           0       -4.070388   -4.481659   -0.461867
     41          8           0       -3.959942   -5.681948   -0.438969
     42          6           0       -2.823689   -3.504661   -0.408999
     43          6           0       -2.118443   -3.876251    0.789603
     44          8           0       -2.472836   -3.644465    1.921343
     45          8           0       -1.110939   -4.655862    0.350916
     46          6           0       -0.333259   -5.533342    1.289691
     47          6           0        3.650218   -0.930332    0.569322
     48          6           0        4.894025   -0.571012   -0.282323
     49          6           0        6.227704   -0.715364    0.003237
     50          6           0        6.711931   -1.063168    1.391034
     51          6           0        7.328919   -0.556305   -1.005595
     52          6           0        8.178445    0.705109   -0.882508
     53          6           0        8.094393    1.523504   -2.208584
     54          6           0        9.413590    2.308957   -2.553882
     55          6           0        9.170322    3.638808   -3.302474
     56          6           0       10.445725    1.416583   -3.216908
     57          6           0       11.940127    1.739824   -2.975185
     58          6           0       12.674486    0.655050   -2.082056
     59          6           0       13.774062    1.248974   -1.142714
     60          6           0       15.088915    0.435041   -1.155592
     61          6           0       13.264478    1.450389    0.302481
     62          6           0       13.185625    0.255722    1.244071
     63          6           0       11.888340    0.164849    2.124026
     64          6           0       12.102498   -0.308290    3.590250
     65          6           0       12.751433   -1.755935    3.605012
     66          6           0       10.824395   -0.250990    4.512520
     67          1           0       -2.500325    3.317400    0.310093
     68          1           0       -8.887404    3.736029    0.305002
     69          1           0       -9.340409   -2.388873   -0.466860
     70          1           0       -1.060221   -1.141449    0.746070
     71          1           0       -0.911665    1.466922   -0.775732
     72          1           0       -1.183402    1.709256    2.242874
     73          1           0       -0.048853    2.452524    1.112058
     74          1           0        0.308084    0.868504    1.686950
     75          1           0       -0.153863   -0.290955   -1.965210
     76          1           0       -1.367067   -1.558038   -1.992448
     77          1           0        1.026939   -2.364722   -2.150892
     78          1           0        0.075338   -3.212005   -1.042266
     79          1           0       -4.082796    6.053970    1.885611
     80          1           0       -4.040097    6.338102    0.077857
     81          1           0       -2.976668    5.171384    0.938256
     82          1           0       -5.972859    7.168841    2.358493
     83          1           0       -7.454579    7.715835    1.524379
     84          1           0       -5.946753    7.187428    0.574350
     85          1           0      -10.626696    2.065334   -0.765197
     86          1           0      -10.858386   -0.654914   -0.084837
     87          1           0      -10.735323    1.997878    2.185093
     88          1           0      -11.327019    0.455883    1.807683
     89          1           0      -12.019772    1.917429    1.051744
     90          1           0       -9.446371   -0.347106   -2.742246
     91          1           0      -10.717188    0.821977   -2.656237
     92          1           0      -12.206772   -0.605523   -3.189039
     93          1           0      -11.582040   -1.816495   -1.908464
     94          1           0      -10.942686   -1.532889   -3.646189
     95          1           0       -8.398141   -4.947198    0.016011
     96          1           0       -6.941246   -5.928829   -0.367304
     97          1           0       -7.826648   -5.140868   -1.604960
     98          1           0       -2.221333   -3.566934   -1.315304
     99          1           0        0.540773   -5.006841    1.673340
    100          1           0       -0.073335   -6.469595    0.798110
    101          1           0       -0.881512   -5.773610    2.200885
    102          1           0        3.903814   -1.854144    1.090442
    103          1           0        3.505929   -0.160581    1.327050
    104          1           0        4.626936   -0.170123   -1.260502
    105          1           0        5.906188   -1.105769    2.123710
    106          1           0        7.457526   -0.330857    1.700171
    107          1           0        7.202646   -2.025322    1.533428
    108          1           0        6.867282   -0.762951   -1.970602
    109          1           0        7.968255   -1.399277   -0.744481
    110          1           0        9.252101    0.541700   -0.795027
    111          1           0        7.789436    1.324623   -0.074482
    112          1           0        7.338559    2.308080   -2.158100
    113          1           0        7.875392    0.877094   -3.058019
    114          1           0        9.865119    2.462467   -1.574336
    115          1           0        8.670980    3.450310   -4.252682
    116          1           0       10.073705    4.128493   -3.665661
    117          1           0        8.646993    4.369507   -2.685092
    118          1           0       10.243885    1.470680   -4.286876
    119          1           0       10.451296    0.352409   -2.977943
    120          1           0       12.070977    2.760989   -2.617865
    121          1           0       12.414009    1.787895   -3.955455
    122          1           0       13.204104   -0.057826   -2.714597
    123          1           0       11.905047    0.105980   -1.539121
    124          1           0       13.926336    2.186449   -1.676515
    125          1           0       15.749058    0.654606   -0.317204
    126          1           0       15.655316    0.704248   -2.047861
    127          1           0       15.007941   -0.647575   -1.258851
    128          1           0       12.228243    1.775221    0.214493
    129          1           0       13.867961    2.231009    0.767913
    130          1           0       14.023277    0.384596    1.930136
    131          1           0       13.250628   -0.581202    0.549157
    132          1           0       11.184628   -0.522723    1.655433
    133          1           0       11.342222    1.093774    2.293015
    134          1           0       12.890051    0.311532    4.017266
    135          1           0       12.098524   -2.514773    4.035815
    136          1           0       13.662135   -1.821781    4.199315
    137          1           0       12.884254   -2.134687    2.591374
    138          1           0       10.935899    0.567538    5.224194
    139          1           0       10.737947   -1.151289    5.121753
    140          1           0        9.873415   -0.226061    3.980783
 ---------------------------------------------------------------------

 SCF Done:  E(RCAM-B3LYP) =  -3007.20468721     A.U. after   16 cycles

 Excitation energies and oscillator strengths:

 Excited State   1:      Singlet-A      1.7485 eV  709.10 nm  f=0.3789  <S**2>=0.000
     245 -> 248       -0.18060
     246 -> 247        0.68348
     245 <- 248       -0.10620
 This state for optimization and/or second-order correction.
 Total Energy, E(TD-HF/TD-DFT) =  -3007.14043193
 Copying the excited state density for this state as the 1-particle RhoCI density.

 Excited State   2:      Singlet-A      2.3123 eV  536.20 nm  f=0.0891  <S**2>=0.000
     245 -> 247        0.62276
     246 -> 248        0.32086

 Excited State   3:      Singlet-A      3.5235 eV  351.88 nm  f=0.6418  <S**2>=0.000
     242 -> 247       -0.12076
     243 -> 247       -0.18396
     245 -> 247       -0.28729
     246 -> 248        0.58691
     245 <- 247        0.10278

 Excited State   4:      Singlet-A      3.6216 eV  342.35 nm  f=0.0766  <S**2>=0.000
     241 -> 247        0.47034
     241 -> 249       -0.21641
     241 -> 250        0.16375
     242 -> 249        0.12524
     243 -> 247       -0.36055
     246 -> 248       -0.13984

 Excited State   5:      Singlet-A      3.6370 eV  340.90 nm  f=0.0159  <S**2>=0.000
     241 -> 247        0.27835
     241 -> 249       -0.19583
     241 -> 250        0.10998
     242 -> 247       -0.22932
     243 -> 247        0.54022

 The electronic state is 1-A.
 Alpha  occ. eigenvalues --  -46.87224 -19.24467 -19.24266 -19.20147 -19.18691
 Alpha  occ. eigenvalues --  -19.18523 -19.18467 -14.41426 -14.41246 -14.39327
 Alpha  occ. eigenvalues --  -14.39030 -10.40044 -10.37954 -10.34714 -10.34138
 Alpha  occ. eigenvalues --  -10.32521 -10.30516 -10.30493 -10.30400 -10.30042
 Alpha  occ. eigenvalues --  -10.29824 -10.29821 -10.29664 -10.29192 -10.28547
 Alpha  occ. eigenvalues --  -10.28339 -10.28254 -10.28201 -10.28035 -10.27928
 Alpha  occ. eigenvalues --  -10.27902 -10.27709 -10.27385 -10.27176 -10.27150
 Alpha  occ. eigenvalues --  -10.26926 -10.26812 -10.26683 -10.26475 -10.26326
 Alpha  occ. eigenvalues --  -10.26319 -10.26319 -10.26082 -10.26051 -10.26018
 Alpha  occ. eigenvalues --  -10.25921 -10.25912 -10.25839 -10.25809 -10.25803
 Alpha  occ. eigenvalues --  -10.25754 -10.25530 -10.25267 -10.25262 -10.25242
 Alpha  occ. eigenvalues --  -10.25205 -10.25160 -10.25151 -10.25097 -10.25058
 Alpha  occ. eigenvalues --  -10.24926 -10.24636 -10.24568 -10.24442 -10.24120
 Alpha  occ. eigenvalues --  -10.24029  -3.16078  -1.90979  -1.90531  -1.90402
 Alpha  occ. eigenvalues --   -1.16361  -1.15565  -1.10404  -1.09601  -1.07567
 Alpha  occ. eigenvalues --   -1.07432  -1.05363  -1.04194  -1.03713  -1.02817
 Alpha  occ. eigenvalues --   -0.92880  -0.90736  -0.89752  -0.89009  -0.88880
 Alpha  occ. eigenvalues --   -0.88572  -0.88142  -0.87495  -0.87031  -0.86956
 Alpha  occ. eigenvalues --   -0.85839  -0.85101  -0.84314  -0.83763  -0.83381
 Alpha  occ. eigenvalues --   -0.82492  -0.81857  -0.81477  -0.80822  -0.80461
 Alpha  occ. eigenvalues --   -0.79916  -0.78489  -0.77673  -0.77021  -0.76024
 Alpha  occ. eigenvalues --   -0.75832  -0.75244  -0.75163  -0.74913  -0.74474
 Alpha  occ. eigenvalues --   -0.73614  -0.72521  -0.71661  -0.70850  -0.69171
 Alpha  occ. eigenvalues --   -0.68793  -0.68391  -0.67717  -0.67487  -0.66182
 Alpha  occ. eigenvalues --   -0.65927  -0.65541  -0.65080  -0.64179  -0.63525
 Alpha  occ. eigenvalues --   -0.63364  -0.62974  -0.61781  -0.61488  -0.60545
 Alpha  occ. eigenvalues --   -0.59764  -0.59660  -0.58999  -0.58402  -0.58021
 Alpha  occ. eigenvalues --   -0.57485  -0.56277  -0.56062  -0.55751  -0.55227
 Alpha  occ. eigenvalues --   -0.54848  -0.54744  -0.54365  -0.54335  -0.54045
 Alpha  occ. eigenvalues --   -0.53846  -0.53557  -0.53203  -0.53134  -0.52721
 Alpha  occ. eigenvalues --   -0.52591  -0.52350  -0.52210  -0.52048  -0.51787
 Alpha  occ. eigenvalues --   -0.51623  -0.51070  -0.50981  -0.50838  -0.50357
 Alpha  occ. eigenvalues --   -0.50251  -0.50032  -0.49979  -0.49650  -0.49524
 Alpha  occ. eigenvalues --   -0.49327  -0.49099  -0.49005  -0.48653  -0.48601
 Alpha  occ. eigenvalues --   -0.48300  -0.48251  -0.48157  -0.47713  -0.47543
 Alpha  occ. eigenvalues --   -0.47388  -0.47224  -0.46975  -0.46321  -0.46234
 Alpha  occ. eigenvalues --   -0.46204  -0.45952  -0.45947  -0.45880  -0.45774
 Alpha  occ. eigenvalues --   -0.45467  -0.45334  -0.45287  -0.45186  -0.44881
 Alpha  occ. eigenvalues --   -0.44817  -0.44537  -0.44219  -0.43945  -0.43809
 Alpha  occ. eigenvalues --   -0.43659  -0.43597  -0.43453  -0.43341  -0.43066
 Alpha  occ. eigenvalues --   -0.42787  -0.42497  -0.42182  -0.41825  -0.41759
 Alpha  occ. eigenvalues --   -0.41624  -0.41567  -0.41532  -0.41348  -0.41089
 Alpha  occ. eigenvalues --   -0.40973  -0.40953  -0.40744  -0.40459  -0.40171
 Alpha  occ. eigenvalues --   -0.39572  -0.39487  -0.39447  -0.39201  -0.38907
 Alpha  occ. eigenvalues --   -0.38278  -0.38249  -0.37528  -0.37511  -0.37420
 Alpha  occ. eigenvalues --   -0.37028  -0.36946  -0.36576  -0.36316  -0.36100
 Alpha  occ. eigenvalues --   -0.35993  -0.35904  -0.35834  -0.35419  -0.34388
 Alpha  occ. eigenvalues --   -0.34235  -0.33662  -0.33209  -0.31468  -0.30745
 Alpha  occ. eigenvalues --   -0.30551  -0.30493  -0.29748  -0.29660  -0.23836
 Alpha  occ. eigenvalues --   -0.20633
 Alpha virt. eigenvalues --   -0.07968  -0.01393   0.00991   0.02684   0.03999
 Alpha virt. eigenvalues --    0.04329   0.05365   0.05844   0.06612   0.07049
 Alpha virt. eigenvalues --    0.07232   0.08528   0.08798   0.08935   0.09372

 Mulliken charges:
               1
     1  Mg   0.849665
     2  C   -0.061893
     3  C   -0.080334
     4  C   -0.104465
     5  C   -0.075288
     6  N   -0.237951
     7  C   -0.091651
     8  C   -0.025719
     9  C   -0.035510
    10  C    0.017896
    11  C    0.049713
    12  C    0.083320
    13  C    0.053115
    14  C    0.160634
    15  O   -0.216789
    16  O   -0.350301
    17  N   -0.408317
    18  C    0.147349
    19  C   -0.176684
    20  C    0.015369
    21  C    0.168628
    22  C    0.114647
    23  C   -0.033855
    24  O   -0.220669
    25  C    0.073467
    26  N   -0.259270
    27  C    0.045155
    28  C   -0.032498
    29  C   -0.029505
    30  C   -0.005819
    31  C    0.038723
    32  C    0.042002
    33  C    0.019290
    34  N   -0.364824
    35  C    0.171554
    36  C   -0.169267
    37  C    0.062425
    38  C    0.168472
    39  C    0.111759
    40  C   -0.021178
    41  O   -0.151214
    42  C   -0.012630
    43  C    0.206260
    44  O   -0.204106
    45  O   -0.338610
    46  C    0.175000
    47  C    0.282403
    48  C   -0.142109
    49  C   -0.184580
    50  C    0.058146
    51  C    0.116792
    52  C    0.041501
    53  C    0.026218
    54  C   -0.109749
    55  C    0.053236
    56  C    0.029094
    57  C    0.001034
    58  C    0.027448
    59  C   -0.105973
    60  C    0.037725
    61  C    0.039492
    62  C    0.035014
    63  C    0.037785
    64  C   -0.159864
    65  C    0.023328
    66  C    0.046157
    67  H   -0.042162
    68  H   -0.006343
    69  H   -0.032798
    70  H    0.033278
    71  H    0.011817
    72  H    0.031103
    73  H    0.010025
    74  H    0.027716
    75  H    0.014784
    76  H    0.012952
    77  H    0.030768
    78  H    0.036975
    79  H    0.026728
    80  H    0.039764
    81  H    0.005596
    82  H    0.043288
    83  H    0.034589
    84  H    0.021454
    85  H    0.007804
    86  H    0.002042
    87  H    0.026807
    88  H    0.018163
    89  H    0.019442
    90  H    0.012375
    91  H    0.002977
    92  H    0.005612
    93  H    0.025750
    94  H    0.003978
    95  H    0.016366
    96  H    0.032576
    97  H    0.021956
    98  H    0.037141
    99  H    0.048883
   100  H    0.043055
   101  H    0.036304
   102  H    0.036410
   103  H    0.032405
   104  H   -0.003308
   105  H    0.003715
   106  H    0.020411
   107  H    0.019320
   108  H    0.008349
   109  H   -0.005508
   110  H    0.005433
   111  H    0.016865
   112  H   -0.010514
   113  H   -0.005593
   114  H   -0.011325
   115  H    0.005256
   116  H   -0.000677
   117  H    0.019094
   118  H   -0.019416
   119  H   -0.009374
   120  H    0.001480
   121  H   -0.007256
   122  H   -0.008375
   123  H   -0.001428
   124  H   -0.004862
   125  H    0.006606
   126  H   -0.001069
   127  H    0.010544
   128  H   -0.011702
   129  H   -0.004193
   130  H    0.001704
   131  H    0.007195
   132  H   -0.006939
   133  H    0.000497
   134  H   -0.000576
   135  H   -0.005426
   136  H    0.012112
   137  H    0.004657
   138  H    0.014816
   139  H    0.001841
   140  H    0.008870
 Sum of Mulliken charges =  -0.00000

 Dipole moment (field-independent basis, Debye):
    X=              3.2530    Y=              4.0341    Z=             -3.0625  Tot=              6.0195
 Quadrupole moment (field-independent basis, Debye-Ang):
   XX=           -371.0363   YY=           -417.9418   ZZ=           -401.8274
   XY=              2.0509   XZ=             18.5462   YZ=              2.8708

 Normal termination of Gaussian 16 at Sat Apr 30 20:45:24 2022.
