 Gaussian 16, Revision A.03,
 Gaussian 16:  ES64L-G16RevA.03 25-Dec-2016

 ---------------------------------
 #p PBE1PBE/Def2SVP td=(nstates=5)
 ---------------------------------

 -----------------------------------------------------
 step_901_chromophore_19 TDDFT with PBE1PBE functional
 -----------------------------------------------------
 Symbolic Z-matrix:
 Charge =  0 Multiplicity = 1

                         Standard orientation:
 ---------------------------------------------------------------------
 Center     Atomic      Atomic             Coordinates (Angstroms)
 Number     Number       Type             X           Y           Z
 ---------------------------------------------------------------------
      1         12           0       -5.888835    0.457306   -0.004615
      2          6           0       -3.508805   -2.159790   -0.293891
      3          6           0       -3.311647    2.591544    0.228586
      4          6           0       -8.172369    2.909716    0.305679
      5          6           0       -8.413094   -1.831323   -0.321911
      6          7           0       -3.620756    0.228302   -0.272302
      7          6           0       -2.872699   -0.917671   -0.237622
      8          6           0       -1.370800   -0.588278   -0.140841
      9          6           0       -1.344465    0.960206    0.087254
     10          6           0       -2.881040    1.292950   -0.018697
     11          6           0       -0.521898    1.513112    1.398643
     12          6           0       -0.550778   -1.137723   -1.405006
     13          6           0        0.526563   -2.231444   -1.191301
     14          6           0        1.547565   -2.129156   -0.046436
     15          8           0        1.679923   -2.851113    0.923002
     16          8           0        2.457436   -1.120003   -0.249780
     17          7           0       -5.766026    2.393990    0.289474
     18          6           0       -4.640014    3.110995    0.399157
     19          6           0       -5.015430    4.501164    0.663206
     20          6           0       -6.378569    4.519695    0.817523
     21          6           0       -6.849068    3.225157    0.474843
     22          6           0       -3.970223    5.616788    0.892442
     23          6           0       -7.181053    5.704462    1.263415
     24          8           0       -8.383430    5.586397    1.500876
     25          6           0       -6.577112    7.073707    1.456262
     26          7           0       -7.980650    0.526075    0.048722
     27          6           0       -8.731553    1.659245    0.130137
     28          6           0      -10.216618    1.343354   -0.058700
     29          6           0      -10.146284   -0.065895   -0.662836
     30          6           0       -8.726007   -0.486849   -0.269373
     31          6           0      -11.097680    1.412980    1.339539
     32          6           0      -10.370859   -0.112471   -2.215226
     33          6           0      -11.369302   -1.129433   -2.727884
     34          7           0       -5.976615   -1.592721   -0.147564
     35          6           0       -7.125726   -2.369822   -0.321058
     36          6           0       -6.615197   -3.785513   -0.434853
     37          6           0       -5.221265   -3.697653   -0.454679
     38          6           0       -4.902526   -2.365183   -0.316575
     39          6           0       -7.486744   -5.009265   -0.578669
     40          6           0       -4.070388   -4.481659   -0.461867
     41          8           0       -3.959942   -5.681948   -0.438969
     42          6           0       -2.823689   -3.504661   -0.408999
     43          6           0       -2.118443   -3.876251    0.789603
     44          8           0       -2.472836   -3.644465    1.921343
     45          8           0       -1.110939   -4.655862    0.350916
     46          6           0       -0.333259   -5.533342    1.289691
     47          6           0        3.650218   -0.930332    0.569322
     48          6           0        4.894025   -0.571012   -0.282323
     49          6           0        6.227704   -0.715364    0.003237
     50          6           0        6.711931   -1.063168    1.391034
     51          6           0        7.328919   -0.556305   -1.005595
     52          6           0        8.178445    0.705109   -0.882508
     53          6           0        8.094393    1.523504   -2.208584
     54          6           0        9.413590    2.308957   -2.553882
     55          6           0        9.170322    3.638808   -3.302474
     56          6           0       10.445725    1.416583   -3.216908
     57          6           0       11.940127    1.739824   -2.975185
     58          6           0       12.674486    0.655050   -2.082056
     59          6           0       13.774062    1.248974   -1.142714
     60          6           0       15.088915    0.435041   -1.155592
     61          6           0       13.264478    1.450389    0.302481
     62          6           0       13.185625    0.255722    1.244071
     63          6           0       11.888340    0.164849    2.124026
     64          6           0       12.102498   -0.308290    3.590250
     65          6           0       12.751433   -1.755935    3.605012
     66          6           0       10.824395   -0.250990    4.512520
     67          1           0       -2.500325    3.317400    0.310093
     68          1           0       -8.887404    3.736029    0.305002
     69          1           0       -9.340409   -2.388873   -0.466860
     70          1           0       -1.060221   -1.141449    0.746070
     71          1           0       -0.911665    1.466922   -0.775732
     72          1           0       -1.183402    1.709256    2.242874
     73          1           0       -0.048853    2.452524    1.112058
     74          1           0        0.308084    0.868504    1.686950
     75          1           0       -0.153863   -0.290955   -1.965210
     76          1           0       -1.367067   -1.558038   -1.992448
     77          1           0        1.026939   -2.364722   -2.150892
     78          1           0        0.075338   -3.212005   -1.042266
     79          1           0       -4.082796    6.053970    1.885611
     80          1           0       -4.040097    6.338102    0.077857
     81          1           0       -2.976668    5.171384    0.938256
     82          1           0       -5.972859    7.168841    2.358493
     83          1           0       -7.454579    7.715835    1.524379
     84          1           0       -5.946753    7.187428    0.574350
     85          1           0      -10.626696    2.065334   -0.765197
     86          1           0      -10.858386   -0.654914   -0.084837
     87          1           0      -10.735323    1.997878    2.185093
     88          1           0      -11.327019    0.455883    1.807683
     89          1           0      -12.019772    1.917429    1.051744
     90          1           0       -9.446371   -0.347106   -2.742246
     91          1           0      -10.717188    0.821977   -2.656237
     92          1           0      -12.206772   -0.605523   -3.189039
     93          1           0      -11.582040   -1.816495   -1.908464
     94          1           0      -10.942686   -1.532889   -3.646189
     95          1           0       -8.398141   -4.947198    0.016011
     96          1           0       -6.941246   -5.928829   -0.367304
     97          1           0       -7.826648   -5.140868   -1.604960
     98          1           0       -2.221333   -3.566934   -1.315304
     99          1           0        0.540773   -5.006841    1.673340
    100          1           0       -0.073335   -6.469595    0.798110
    101          1           0       -0.881512   -5.773610    2.200885
    102          1           0        3.903814   -1.854144    1.090442
    103          1           0        3.505929   -0.160581    1.327050
    104          1           0        4.626936   -0.170123   -1.260502
    105          1           0        5.906188   -1.105769    2.123710
    106          1           0        7.457526   -0.330857    1.700171
    107          1           0        7.202646   -2.025322    1.533428
    108          1           0        6.867282   -0.762951   -1.970602
    109          1           0        7.968255   -1.399277   -0.744481
    110          1           0        9.252101    0.541700   -0.795027
    111          1           0        7.789436    1.324623   -0.074482
    112          1           0        7.338559    2.308080   -2.158100
    113          1           0        7.875392    0.877094   -3.058019
    114          1           0        9.865119    2.462467   -1.574336
    115          1           0        8.670980    3.450310   -4.252682
    116          1           0       10.073705    4.128493   -3.665661
    117          1           0        8.646993    4.369507   -2.685092
    118          1           0       10.243885    1.470680   -4.286876
    119          1           0       10.451296    0.352409   -2.977943
    120          1           0       12.070977    2.760989   -2.617865
    121          1           0       12.414009    1.787895   -3.955455
    122          1           0       13.204104   -0.057826   -2.714597
    123          1           0       11.905047    0.105980   -1.539121
    124          1           0       13.926336    2.186449   -1.676515
    125          1           0       15.749058    0.654606   -0.317204
    126          1           0       15.655316    0.704248   -2.047861
    127          1           0       15.007941   -0.647575   -1.258851
    128          1           0       12.228243    1.775221    0.214493
    129          1           0       13.867961    2.231009    0.767913
    130          1           0       14.023277    0.384596    1.930136
    131          1           0       13.250628   -0.581202    0.549157
    132          1           0       11.184628   -0.522723    1.655433
    133          1           0       11.342222    1.093774    2.293015
    134          1           0       12.890051    0.311532    4.017266
    135          1           0       12.098524   -2.514773    4.035815
    136          1           0       13.662135   -1.821781    4.199315
    137          1           0       12.884254   -2.134687    2.591374
    138          1           0       10.935899    0.567538    5.224194
    139          1           0       10.737947   -1.151289    5.121753
    140          1           0        9.873415   -0.226061    3.980783
 ---------------------------------------------------------------------

 SCF Done:  E(RPBE1PBE) =  -3005.39056660     A.U. after   15 cycles

 Excitation energies and oscillator strengths:

 Excited State   1:      Singlet-A      1.9072 eV  650.09 nm  f=0.3679  <S**2>=0.000
     245 -> 248       -0.17197
     246 -> 247        0.69051
     246 <- 247       -0.10573
 This state for optimization and/or second-order correction.
 Total Energy, E(TD-HF/TD-DFT) =  -3005.32047901
 Copying the excited state density for this state as the 1-particle RhoCI density.

 Excited State   2:      Singlet-A      2.3209 eV  534.20 nm  f=0.0907  <S**2>=0.000
     245 -> 247        0.63658
     246 -> 248        0.28987

 Excited State   3:      Singlet-A      3.1327 eV  395.78 nm  f=0.0005  <S**2>=0.000
     241 -> 247       -0.23553
     242 -> 247        0.61769
     242 -> 249       -0.15383
     243 -> 247        0.12864

 Excited State   4:      Singlet-A      3.2033 eV  387.05 nm  f=0.0253  <S**2>=0.000
     241 -> 247        0.58542
     241 -> 248        0.12895
     241 -> 249        0.12380
     241 -> 250        0.10666
     242 -> 247        0.23728
     246 -> 248       -0.17788

 Excited State   5:      Singlet-A      3.2810 eV  377.88 nm  f=0.0298  <S**2>=0.000
     242 -> 247       -0.12679
     243 -> 247        0.63528
     246 -> 248       -0.24317

 The electronic state is 1-A.
 Alpha  occ. eigenvalues --  -46.90631 -19.25150 -19.24907 -19.20385 -19.18858
 Alpha  occ. eigenvalues --  -19.18738 -19.18688 -14.40959 -14.40696 -14.38974
 Alpha  occ. eigenvalues --  -14.38711 -10.37067 -10.34882 -10.31851 -10.31259
 Alpha  occ. eigenvalues --  -10.29927 -10.28233 -10.28084 -10.27809 -10.27720
 Alpha  occ. eigenvalues --  -10.27563 -10.27505 -10.27385 -10.26877 -10.26372
 Alpha  occ. eigenvalues --  -10.26007 -10.26000 -10.25899 -10.25755 -10.25662
 Alpha  occ. eigenvalues --  -10.25434 -10.25414 -10.25043 -10.25006 -10.24786
 Alpha  occ. eigenvalues --  -10.24621 -10.24440 -10.24188 -10.24166 -10.24013
 Alpha  occ. eigenvalues --  -10.23891 -10.23886 -10.23654 -10.23630 -10.23572
 Alpha  occ. eigenvalues --  -10.23509 -10.23504 -10.23462 -10.23331 -10.23309
 Alpha  occ. eigenvalues --  -10.23224 -10.22937 -10.22845 -10.22834 -10.22820
 Alpha  occ. eigenvalues --  -10.22682 -10.22661 -10.22639 -10.22629 -10.22549
 Alpha  occ. eigenvalues --  -10.22329 -10.22198 -10.21978 -10.21969 -10.21707
 Alpha  occ. eigenvalues --  -10.21517  -3.13057  -1.85900  -1.85429  -1.85306
 Alpha  occ. eigenvalues --   -1.11162  -1.10280  -1.05154  -1.04316  -1.02420
 Alpha  occ. eigenvalues --   -1.02220  -0.99996  -0.98841  -0.98401  -0.97512
 Alpha  occ. eigenvalues --   -0.87266  -0.84846  -0.83835  -0.83326  -0.83047
 Alpha  occ. eigenvalues --   -0.82699  -0.82470  -0.81779  -0.81294  -0.81116
 Alpha  occ. eigenvalues --   -0.80176  -0.79333  -0.78581  -0.78003  -0.77641
 Alpha  occ. eigenvalues --   -0.76664  -0.76133  -0.75646  -0.75044  -0.74765
 Alpha  occ. eigenvalues --   -0.74081  -0.72795  -0.71909  -0.71331  -0.70192
 Alpha  occ. eigenvalues --   -0.70108  -0.69515  -0.69336  -0.69051  -0.68625
 Alpha  occ. eigenvalues --   -0.67924  -0.66959  -0.66049  -0.65230  -0.63433
 Alpha  occ. eigenvalues --   -0.63252  -0.62747  -0.61996  -0.61850  -0.60395
 Alpha  occ. eigenvalues --   -0.60377  -0.59979  -0.59609  -0.58744  -0.58011
 Alpha  occ. eigenvalues --   -0.57533  -0.57159  -0.56337  -0.55707  -0.55116
 Alpha  occ. eigenvalues --   -0.54265  -0.54114  -0.53515  -0.53001  -0.52413
 Alpha  occ. eigenvalues --   -0.52048  -0.50812  -0.50637  -0.50230  -0.49700
 Alpha  occ. eigenvalues --   -0.49337  -0.49173  -0.48882  -0.48760  -0.48579
 Alpha  occ. eigenvalues --   -0.48293  -0.48077  -0.47726  -0.47591  -0.47179
 Alpha  occ. eigenvalues --   -0.47061  -0.46952  -0.46754  -0.46624  -0.46388
 Alpha  occ. eigenvalues --   -0.46108  -0.45631  -0.45476  -0.45390  -0.44965
 Alpha  occ. eigenvalues --   -0.44798  -0.44588  -0.44540  -0.44227  -0.44092
 Alpha  occ. eigenvalues --   -0.43917  -0.43658  -0.43596  -0.43225  -0.43157
 Alpha  occ. eigenvalues --   -0.42906  -0.42826  -0.42775  -0.42303  -0.42196
 Alpha  occ. eigenvalues --   -0.42056  -0.41837  -0.41581  -0.40976  -0.40881
 Alpha  occ. eigenvalues --   -0.40788  -0.40702  -0.40562  -0.40555  -0.40439
 Alpha  occ. eigenvalues --   -0.40200  -0.40059  -0.39951  -0.39890  -0.39584
 Alpha  occ. eigenvalues --   -0.39483  -0.39285  -0.38963  -0.38699  -0.38617
 Alpha  occ. eigenvalues --   -0.38441  -0.38357  -0.38279  -0.38072  -0.37904
 Alpha  occ. eigenvalues --   -0.37559  -0.37263  -0.36975  -0.36644  -0.36526
 Alpha  occ. eigenvalues --   -0.36494  -0.36417  -0.36272  -0.36221  -0.35898
 Alpha  occ. eigenvalues --   -0.35832  -0.35770  -0.35618  -0.35198  -0.35151
 Alpha  occ. eigenvalues --   -0.34518  -0.34421  -0.34222  -0.33979  -0.33732
 Alpha  occ. eigenvalues --   -0.33153  -0.33094  -0.32526  -0.32325  -0.32274
 Alpha  occ. eigenvalues --   -0.32010  -0.31858  -0.31532  -0.31191  -0.31153
 Alpha  occ. eigenvalues --   -0.30868  -0.30825  -0.30788  -0.30278  -0.29505
 Alpha  occ. eigenvalues --   -0.29144  -0.28780  -0.28371  -0.27043  -0.26190
 Alpha  occ. eigenvalues --   -0.25464  -0.25428  -0.25381  -0.24967  -0.20762
 Alpha  occ. eigenvalues --   -0.18296
 Alpha virt. eigenvalues --   -0.10495  -0.04938  -0.03240  -0.01731  -0.00242
 Alpha virt. eigenvalues --    0.00906   0.01335   0.02057   0.02362   0.03013
 Alpha virt. eigenvalues --    0.04104   0.04296   0.05126   0.05532   0.05641

 Mulliken charges:
               1
     1  Mg   1.005658
     2  C   -0.068827
     3  C   -0.072858
     4  C   -0.086607
     5  C   -0.062931
     6  N   -0.342854
     7  C   -0.016019
     8  C   -0.089278
     9  C   -0.103381
    10  C    0.057144
    11  C   -0.013506
    12  C    0.029225
    13  C   -0.026481
    14  C    0.230354
    15  O   -0.253344
    16  O   -0.382580
    17  N   -0.538027
    18  C    0.176613
    19  C   -0.197368
    20  C   -0.044542
    21  C    0.193853
    22  C    0.051141
    23  C    0.022892
    24  O   -0.256018
    25  C   -0.002205
    26  N   -0.371049
    27  C    0.078616
    28  C   -0.104827
    29  C   -0.113955
    30  C    0.032788
    31  C   -0.015917
    32  C   -0.008787
    33  C   -0.053880
    34  N   -0.494447
    35  C    0.189588
    36  C   -0.177585
    37  C    0.006614
    38  C    0.216436
    39  C    0.062130
    40  C    0.074894
    41  O   -0.198246
    42  C   -0.131223
    43  C    0.305775
    44  O   -0.242269
    45  O   -0.373217
    46  C    0.120196
    47  C    0.244608
    48  C   -0.149808
    49  C   -0.231479
    50  C   -0.001696
    51  C    0.050833
    52  C   -0.032327
    53  C   -0.019544
    54  C   -0.206772
    55  C   -0.007705
    56  C   -0.024045
    57  C   -0.056454
    58  C   -0.026230
    59  C   -0.195740
    60  C   -0.023542
    61  C   -0.015557
    62  C   -0.033570
    63  C   -0.018720
    64  C   -0.249157
    65  C   -0.035841
    66  C   -0.015985
    67  H   -0.008113
    68  H    0.025052
    69  H   -0.000531
    70  H    0.074566
    71  H    0.048986
    72  H    0.058578
    73  H    0.036685
    74  H    0.056027
    75  H    0.045832
    76  H    0.047316
    77  H    0.062896
    78  H    0.073213
    79  H    0.055238
    80  H    0.067400
    81  H    0.034113
    82  H    0.069727
    83  H    0.061843
    84  H    0.049490
    85  H    0.043905
    86  H    0.038535
    87  H    0.053750
    88  H    0.044268
    89  H    0.047093
    90  H    0.045104
    91  H    0.034856
    92  H    0.033939
    93  H    0.051741
    94  H    0.032209
    95  H    0.043081
    96  H    0.059670
    97  H    0.050018
    98  H    0.073185
    99  H    0.071777
   100  H    0.064249
   101  H    0.057092
   102  H    0.062091
   103  H    0.058382
   104  H    0.027142
   105  H    0.030973
   106  H    0.048732
   107  H    0.046295
   108  H    0.039016
   109  H    0.029137
   110  H    0.042183
   111  H    0.049588
   112  H    0.023189
   113  H    0.026270
   114  H    0.031386
   115  H    0.032865
   116  H    0.027287
   117  H    0.046621
   118  H    0.014451
   119  H    0.023655
   120  H    0.031888
   121  H    0.026153
   122  H    0.025363
   123  H    0.031361
   124  H    0.034426
   125  H    0.034984
   126  H    0.027945
   127  H    0.036566
   128  H    0.025591
   129  H    0.028836
   130  H    0.034389
   131  H    0.039838
   132  H    0.026627
   133  H    0.032800
   134  H    0.037449
   135  H    0.021950
   136  H    0.039037
   137  H    0.032419
   138  H    0.042307
   139  H    0.029054
   140  H    0.036003
 Sum of Mulliken charges =  -0.00000

 Dipole moment (field-independent basis, Debye):
    X=              3.2047    Y=              4.0328    Z=             -3.1104  Tot=              6.0174
 Quadrupole moment (field-independent basis, Debye-Ang):
   XX=           -364.6358   YY=           -415.3401   ZZ=           -399.0038
   XY=              2.7517   XZ=             18.7774   YZ=              2.7782

 Normal termination of Gaussian 16 at Sat Apr 30 21:05:58 2022.
