 Gaussian 16, Revision A.03,
 Gaussian 16:  ES64L-G16RevA.03 25-Dec-2016

 --------------------------------
 #p wB97XD/Def2SVP td=(nstates=5)
 --------------------------------

 ----------------------------------------------------
 step_901_chromophore_19 TDDFT with wB97XD functional
 ----------------------------------------------------
 Symbolic Z-matrix:
 Charge =  0 Multiplicity = 1

                         Standard orientation:
 ---------------------------------------------------------------------
 Center     Atomic      Atomic             Coordinates (Angstroms)
 Number     Number       Type             X           Y           Z
 ---------------------------------------------------------------------
      1         12           0       -5.888835    0.457306   -0.004615
      2          6           0       -3.508805   -2.159790   -0.293891
      3          6           0       -3.311647    2.591544    0.228586
      4          6           0       -8.172369    2.909716    0.305679
      5          6           0       -8.413094   -1.831323   -0.321911
      6          7           0       -3.620756    0.228302   -0.272302
      7          6           0       -2.872699   -0.917671   -0.237622
      8          6           0       -1.370800   -0.588278   -0.140841
      9          6           0       -1.344465    0.960206    0.087254
     10          6           0       -2.881040    1.292950   -0.018697
     11          6           0       -0.521898    1.513112    1.398643
     12          6           0       -0.550778   -1.137723   -1.405006
     13          6           0        0.526563   -2.231444   -1.191301
     14          6           0        1.547565   -2.129156   -0.046436
     15          8           0        1.679923   -2.851113    0.923002
     16          8           0        2.457436   -1.120003   -0.249780
     17          7           0       -5.766026    2.393990    0.289474
     18          6           0       -4.640014    3.110995    0.399157
     19          6           0       -5.015430    4.501164    0.663206
     20          6           0       -6.378569    4.519695    0.817523
     21          6           0       -6.849068    3.225157    0.474843
     22          6           0       -3.970223    5.616788    0.892442
     23          6           0       -7.181053    5.704462    1.263415
     24          8           0       -8.383430    5.586397    1.500876
     25          6           0       -6.577112    7.073707    1.456262
     26          7           0       -7.980650    0.526075    0.048722
     27          6           0       -8.731553    1.659245    0.130137
     28          6           0      -10.216618    1.343354   -0.058700
     29          6           0      -10.146284   -0.065895   -0.662836
     30          6           0       -8.726007   -0.486849   -0.269373
     31          6           0      -11.097680    1.412980    1.339539
     32          6           0      -10.370859   -0.112471   -2.215226
     33          6           0      -11.369302   -1.129433   -2.727884
     34          7           0       -5.976615   -1.592721   -0.147564
     35          6           0       -7.125726   -2.369822   -0.321058
     36          6           0       -6.615197   -3.785513   -0.434853
     37          6           0       -5.221265   -3.697653   -0.454679
     38          6           0       -4.902526   -2.365183   -0.316575
     39          6           0       -7.486744   -5.009265   -0.578669
     40          6           0       -4.070388   -4.481659   -0.461867
     41          8           0       -3.959942   -5.681948   -0.438969
     42          6           0       -2.823689   -3.504661   -0.408999
     43          6           0       -2.118443   -3.876251    0.789603
     44          8           0       -2.472836   -3.644465    1.921343
     45          8           0       -1.110939   -4.655862    0.350916
     46          6           0       -0.333259   -5.533342    1.289691
     47          6           0        3.650218   -0.930332    0.569322
     48          6           0        4.894025   -0.571012   -0.282323
     49          6           0        6.227704   -0.715364    0.003237
     50          6           0        6.711931   -1.063168    1.391034
     51          6           0        7.328919   -0.556305   -1.005595
     52          6           0        8.178445    0.705109   -0.882508
     53          6           0        8.094393    1.523504   -2.208584
     54          6           0        9.413590    2.308957   -2.553882
     55          6           0        9.170322    3.638808   -3.302474
     56          6           0       10.445725    1.416583   -3.216908
     57          6           0       11.940127    1.739824   -2.975185
     58          6           0       12.674486    0.655050   -2.082056
     59          6           0       13.774062    1.248974   -1.142714
     60          6           0       15.088915    0.435041   -1.155592
     61          6           0       13.264478    1.450389    0.302481
     62          6           0       13.185625    0.255722    1.244071
     63          6           0       11.888340    0.164849    2.124026
     64          6           0       12.102498   -0.308290    3.590250
     65          6           0       12.751433   -1.755935    3.605012
     66          6           0       10.824395   -0.250990    4.512520
     67          1           0       -2.500325    3.317400    0.310093
     68          1           0       -8.887404    3.736029    0.305002
     69          1           0       -9.340409   -2.388873   -0.466860
     70          1           0       -1.060221   -1.141449    0.746070
     71          1           0       -0.911665    1.466922   -0.775732
     72          1           0       -1.183402    1.709256    2.242874
     73          1           0       -0.048853    2.452524    1.112058
     74          1           0        0.308084    0.868504    1.686950
     75          1           0       -0.153863   -0.290955   -1.965210
     76          1           0       -1.367067   -1.558038   -1.992448
     77          1           0        1.026939   -2.364722   -2.150892
     78          1           0        0.075338   -3.212005   -1.042266
     79          1           0       -4.082796    6.053970    1.885611
     80          1           0       -4.040097    6.338102    0.077857
     81          1           0       -2.976668    5.171384    0.938256
     82          1           0       -5.972859    7.168841    2.358493
     83          1           0       -7.454579    7.715835    1.524379
     84          1           0       -5.946753    7.187428    0.574350
     85          1           0      -10.626696    2.065334   -0.765197
     86          1           0      -10.858386   -0.654914   -0.084837
     87          1           0      -10.735323    1.997878    2.185093
     88          1           0      -11.327019    0.455883    1.807683
     89          1           0      -12.019772    1.917429    1.051744
     90          1           0       -9.446371   -0.347106   -2.742246
     91          1           0      -10.717188    0.821977   -2.656237
     92          1           0      -12.206772   -0.605523   -3.189039
     93          1           0      -11.582040   -1.816495   -1.908464
     94          1           0      -10.942686   -1.532889   -3.646189
     95          1           0       -8.398141   -4.947198    0.016011
     96          1           0       -6.941246   -5.928829   -0.367304
     97          1           0       -7.826648   -5.140868   -1.604960
     98          1           0       -2.221333   -3.566934   -1.315304
     99          1           0        0.540773   -5.006841    1.673340
    100          1           0       -0.073335   -6.469595    0.798110
    101          1           0       -0.881512   -5.773610    2.200885
    102          1           0        3.903814   -1.854144    1.090442
    103          1           0        3.505929   -0.160581    1.327050
    104          1           0        4.626936   -0.170123   -1.260502
    105          1           0        5.906188   -1.105769    2.123710
    106          1           0        7.457526   -0.330857    1.700171
    107          1           0        7.202646   -2.025322    1.533428
    108          1           0        6.867282   -0.762951   -1.970602
    109          1           0        7.968255   -1.399277   -0.744481
    110          1           0        9.252101    0.541700   -0.795027
    111          1           0        7.789436    1.324623   -0.074482
    112          1           0        7.338559    2.308080   -2.158100
    113          1           0        7.875392    0.877094   -3.058019
    114          1           0        9.865119    2.462467   -1.574336
    115          1           0        8.670980    3.450310   -4.252682
    116          1           0       10.073705    4.128493   -3.665661
    117          1           0        8.646993    4.369507   -2.685092
    118          1           0       10.243885    1.470680   -4.286876
    119          1           0       10.451296    0.352409   -2.977943
    120          1           0       12.070977    2.760989   -2.617865
    121          1           0       12.414009    1.787895   -3.955455
    122          1           0       13.204104   -0.057826   -2.714597
    123          1           0       11.905047    0.105980   -1.539121
    124          1           0       13.926336    2.186449   -1.676515
    125          1           0       15.749058    0.654606   -0.317204
    126          1           0       15.655316    0.704248   -2.047861
    127          1           0       15.007941   -0.647575   -1.258851
    128          1           0       12.228243    1.775221    0.214493
    129          1           0       13.867961    2.231009    0.767913
    130          1           0       14.023277    0.384596    1.930136
    131          1           0       13.250628   -0.581202    0.549157
    132          1           0       11.184628   -0.522723    1.655433
    133          1           0       11.342222    1.093774    2.293015
    134          1           0       12.890051    0.311532    4.017266
    135          1           0       12.098524   -2.514773    4.035815
    136          1           0       13.662135   -1.821781    4.199315
    137          1           0       12.884254   -2.134687    2.591374
    138          1           0       10.935899    0.567538    5.224194
    139          1           0       10.737947   -1.151289    5.121753
    140          1           0        9.873415   -0.226061    3.980783
 ---------------------------------------------------------------------

 SCF Done:  E(RwB97XD) =  -3007.90171912     A.U. after   19 cycles

 Excitation energies and oscillator strengths:

 Excited State   1:      Singlet-A      1.6915 eV  733.00 nm  f=0.3769  <S**2>=0.000
     245 -> 248       -0.18641
     246 -> 247        0.68125
     245 <- 248       -0.11554
 This state for optimization and/or second-order correction.
 Total Energy, E(TD-HF/TD-DFT) =  -3007.83955888
 Copying the excited state density for this state as the 1-particle RhoCI density.

 Excited State   2:      Singlet-A      2.2565 eV  549.46 nm  f=0.0873  <S**2>=0.000
     245 -> 247        0.62181
     246 -> 248        0.32179

 Excited State   3:      Singlet-A      3.5378 eV  350.46 nm  f=0.6319  <S**2>=0.000
     243 -> 247       -0.22345
     245 -> 247       -0.27987
     246 -> 248        0.57627
     245 <- 247        0.10662

 Excited State   4:      Singlet-A      3.6460 eV  340.06 nm  f=0.1034  <S**2>=0.000
     241 -> 247        0.12031
     241 -> 249        0.10830
     242 -> 247        0.41466
     242 -> 249       -0.23523
     242 -> 250        0.16001
     243 -> 247       -0.38448
     245 -> 247        0.10615
     246 -> 248       -0.15974

 Excited State   5:      Singlet-A      3.6614 eV  338.62 nm  f=0.0166  <S**2>=0.000
     241 -> 247       -0.14687
     242 -> 247        0.36360
     242 -> 249       -0.23313
     242 -> 250        0.13913
     243 -> 247        0.49020

 The electronic state is 1-A.
 Alpha  occ. eigenvalues --  -46.93576 -19.29715 -19.29486 -19.25063 -19.23617
 Alpha  occ. eigenvalues --  -19.23574 -19.23485 -14.46002 -14.45831 -14.43934
 Alpha  occ. eigenvalues --  -14.43633 -10.43859 -10.41773 -10.38665 -10.38142
 Alpha  occ. eigenvalues --  -10.36423 -10.34528 -10.34405 -10.34272 -10.34095
 Alpha  occ. eigenvalues --  -10.33863 -10.33830 -10.33623 -10.33203 -10.32609
 Alpha  occ. eigenvalues --  -10.32510 -10.32266 -10.32247 -10.32030 -10.31954
 Alpha  occ. eigenvalues --  -10.31882 -10.31840 -10.31394 -10.31199 -10.31124
 Alpha  occ. eigenvalues --  -10.31036 -10.30857 -10.30550 -10.30532 -10.30353
 Alpha  occ. eigenvalues --  -10.30286 -10.30276 -10.29969 -10.29955 -10.29932
 Alpha  occ. eigenvalues --  -10.29920 -10.29847 -10.29794 -10.29785 -10.29690
 Alpha  occ. eigenvalues --  -10.29679 -10.29416 -10.29254 -10.29204 -10.29189
 Alpha  occ. eigenvalues --  -10.29086 -10.29028 -10.29003 -10.29000 -10.28991
 Alpha  occ. eigenvalues --  -10.28745 -10.28566 -10.28410 -10.28356 -10.28055
 Alpha  occ. eigenvalues --  -10.27939  -3.19825  -1.93424  -1.92955  -1.92825
 Alpha  occ. eigenvalues --   -1.18534  -1.17721  -1.12648  -1.11798  -1.09765
 Alpha  occ. eigenvalues --   -1.09616  -1.07360  -1.06205  -1.05756  -1.04861
 Alpha  occ. eigenvalues --   -0.94876  -0.92526  -0.91516  -0.90903  -0.90713
 Alpha  occ. eigenvalues --   -0.90368  -0.90030  -0.89444  -0.88898  -0.88791
 Alpha  occ. eigenvalues --   -0.87798  -0.86978  -0.86216  -0.85644  -0.85238
 Alpha  occ. eigenvalues --   -0.84329  -0.83782  -0.83397  -0.82699  -0.82398
 Alpha  occ. eigenvalues --   -0.81753  -0.80444  -0.79565  -0.78927  -0.77867
 Alpha  occ. eigenvalues --   -0.77754  -0.77088  -0.77035  -0.76731  -0.76297
 Alpha  occ. eigenvalues --   -0.75536  -0.74506  -0.73610  -0.72806  -0.71054
 Alpha  occ. eigenvalues --   -0.70794  -0.70304  -0.69600  -0.69454  -0.68038
 Alpha  occ. eigenvalues --   -0.67850  -0.67486  -0.67069  -0.66181  -0.65486
 Alpha  occ. eigenvalues --   -0.65189  -0.64801  -0.63769  -0.63335  -0.62528
 Alpha  occ. eigenvalues --   -0.61701  -0.61612  -0.60976  -0.60370  -0.59976
 Alpha  occ. eigenvalues --   -0.59453  -0.58216  -0.58057  -0.57685  -0.57142
 Alpha  occ. eigenvalues --   -0.56740  -0.56664  -0.56281  -0.56219  -0.55958
 Alpha  occ. eigenvalues --   -0.55715  -0.55477  -0.55131  -0.55057  -0.54604
 Alpha  occ. eigenvalues --   -0.54473  -0.54305  -0.54121  -0.53968  -0.53689
 Alpha  occ. eigenvalues --   -0.53490  -0.53026  -0.52850  -0.52747  -0.52284
 Alpha  occ. eigenvalues --   -0.52166  -0.51946  -0.51920  -0.51551  -0.51458
 Alpha  occ. eigenvalues --   -0.51248  -0.50994  -0.50948  -0.50572  -0.50481
 Alpha  occ. eigenvalues --   -0.50219  -0.50144  -0.50094  -0.49637  -0.49473
 Alpha  occ. eigenvalues --   -0.49286  -0.49096  -0.48849  -0.48215  -0.48098
 Alpha  occ. eigenvalues --   -0.48071  -0.47863  -0.47809  -0.47788  -0.47668
 Alpha  occ. eigenvalues --   -0.47385  -0.47240  -0.47149  -0.47089  -0.46826
 Alpha  occ. eigenvalues --   -0.46766  -0.46450  -0.46121  -0.45843  -0.45731
 Alpha  occ. eigenvalues --   -0.45557  -0.45519  -0.45364  -0.45226  -0.44982
 Alpha  occ. eigenvalues --   -0.44720  -0.44402  -0.44044  -0.43826  -0.43624
 Alpha  occ. eigenvalues --   -0.43552  -0.43447  -0.43401  -0.43311  -0.42980
 Alpha  occ. eigenvalues --   -0.42871  -0.42836  -0.42652  -0.42309  -0.42097
 Alpha  occ. eigenvalues --   -0.41483  -0.41353  -0.41311  -0.41052  -0.40786
 Alpha  occ. eigenvalues --   -0.40162  -0.40116  -0.39455  -0.39358  -0.39267
 Alpha  occ. eigenvalues --   -0.38994  -0.38872  -0.38570  -0.38155  -0.38087
 Alpha  occ. eigenvalues --   -0.37886  -0.37830  -0.37691  -0.37264  -0.36319
 Alpha  occ. eigenvalues --   -0.36215  -0.35581  -0.35443  -0.33644  -0.32826
 Alpha  occ. eigenvalues --   -0.32566  -0.32537  -0.31938  -0.31697  -0.25761
 Alpha  occ. eigenvalues --   -0.22452
 Alpha virt. eigenvalues --   -0.06315   0.00518   0.03038   0.04778   0.06536
 Alpha virt. eigenvalues --    0.07153   0.07628   0.08650   0.08891   0.09432
 Alpha virt. eigenvalues --    0.10725   0.11050   0.11974   0.12257   0.12356

 Mulliken charges:
               1
     1  Mg   0.994163
     2  C   -0.072815
     3  C   -0.089233
     4  C   -0.105870
     5  C   -0.080155
     6  N   -0.307887
     7  C   -0.044747
     8  C   -0.072536
     9  C   -0.081657
    10  C    0.042339
    11  C    0.000135
    12  C    0.043907
    13  C   -0.003961
    14  C    0.214739
    15  O   -0.248862
    16  O   -0.380689
    17  N   -0.501615
    18  C    0.167695
    19  C   -0.192474
    20  C   -0.032403
    21  C    0.187157
    22  C    0.067328
    23  C    0.014452
    24  O   -0.251227
    25  C    0.012505
    26  N   -0.333990
    27  C    0.061635
    28  C   -0.080629
    29  C   -0.080575
    30  C    0.018608
    31  C   -0.006528
    32  C   -0.001295
    33  C   -0.037194
    34  N   -0.456238
    35  C    0.179501
    36  C   -0.177111
    37  C    0.013344
    38  C    0.199676
    39  C    0.070661
    40  C    0.056689
    41  O   -0.188087
    42  C   -0.084710
    43  C    0.275188
    44  O   -0.234720
    45  O   -0.369233
    46  C    0.136142
    47  C    0.258490
    48  C   -0.161242
    49  C   -0.216259
    50  C    0.010762
    51  C    0.071184
    52  C   -0.009522
    53  C   -0.008445
    54  C   -0.166942
    55  C    0.004226
    56  C   -0.010172
    57  C   -0.043067
    58  C   -0.010157
    59  C   -0.163249
    60  C   -0.013753
    61  C    0.003235
    62  C   -0.015689
    63  C   -0.000665
    64  C   -0.221426
    65  C   -0.024052
    66  C   -0.003973
    67  H   -0.017993
    68  H    0.021710
    69  H   -0.005142
    70  H    0.060347
    71  H    0.038464
    72  H    0.052600
    73  H    0.030775
    74  H    0.051259
    75  H    0.040287
    76  H    0.036817
    77  H    0.058999
    78  H    0.059423
    79  H    0.048113
    80  H    0.062414
    81  H    0.029643
    82  H    0.065567
    83  H    0.060684
    84  H    0.041018
    85  H    0.034634
    86  H    0.025582
    87  H    0.048637
    88  H    0.038448
    89  H    0.041117
    90  H    0.036355
    91  H    0.027470
    92  H    0.028199
    93  H    0.044946
    94  H    0.026621
    95  H    0.038104
    96  H    0.056487
    97  H    0.045170
    98  H    0.064833
    99  H    0.067310
   100  H    0.061312
   101  H    0.053447
   102  H    0.056148
   103  H    0.054054
   104  H    0.024160
   105  H    0.025352
   106  H    0.041668
   107  H    0.041354
   108  H    0.031300
   109  H    0.020561
   110  H    0.027016
   111  H    0.041174
   112  H    0.015027
   113  H    0.015926
   114  H    0.012761
   115  H    0.025985
   116  H    0.021303
   117  H    0.041589
   118  H    0.005474
   119  H    0.012687
   120  H    0.020999
   121  H    0.019331
   122  H    0.017614
   123  H    0.016528
   124  H    0.022476
   125  H    0.029301
   126  H    0.022253
   127  H    0.030721
   128  H    0.009211
   129  H    0.022096
   130  H    0.025240
   131  H    0.027800
   132  H    0.016251
   133  H    0.023568
   134  H    0.026114
   135  H    0.015234
   136  H    0.034320
   137  H    0.024940
   138  H    0.037093
   139  H    0.022540
   140  H    0.030468
 Sum of Mulliken charges =  -0.00000

 Dipole moment (field-independent basis, Debye):
    X=              3.2750    Y=              4.0744    Z=             -3.0899  Tot=              6.0723
 Quadrupole moment (field-independent basis, Debye-Ang):
   XX=           -365.7846   YY=           -413.4000   ZZ=           -398.7000
   XY=              2.2800   XZ=             18.7242   YZ=              3.0625

 Normal termination of Gaussian 16 at Sat Apr 30 21:34:03 2022.
