 Gaussian 16, Revision A.03,
 Gaussian 16:  ES64L-G16RevA.03 25-Dec-2016

 --------------------
 #p ZINDO=(nstates=5)
 --------------------

 -----------------------------
 step_901_chromophore_19 ZINDO
 -----------------------------
 Symbolic Z-matrix:
 Charge =  0 Multiplicity = 1

                         Standard orientation:
 ---------------------------------------------------------------------
 Center     Atomic      Atomic             Coordinates (Angstroms)
 Number     Number       Type             X           Y           Z
 ---------------------------------------------------------------------
      1         12           0       -5.888835    0.457306   -0.004615
      2          6           0       -3.508805   -2.159790   -0.293891
      3          6           0       -3.311647    2.591544    0.228586
      4          6           0       -8.172369    2.909716    0.305679
      5          6           0       -8.413094   -1.831323   -0.321911
      6          7           0       -3.620756    0.228302   -0.272302
      7          6           0       -2.872699   -0.917671   -0.237622
      8          6           0       -1.370800   -0.588278   -0.140841
      9          6           0       -1.344465    0.960206    0.087254
     10          6           0       -2.881040    1.292950   -0.018697
     11          6           0       -0.521898    1.513112    1.398643
     12          6           0       -0.550778   -1.137723   -1.405006
     13          6           0        0.526563   -2.231444   -1.191301
     14          6           0        1.547565   -2.129156   -0.046436
     15          8           0        1.679923   -2.851113    0.923002
     16          8           0        2.457436   -1.120003   -0.249780
     17          7           0       -5.766026    2.393990    0.289474
     18          6           0       -4.640014    3.110995    0.399157
     19          6           0       -5.015430    4.501164    0.663206
     20          6           0       -6.378569    4.519695    0.817523
     21          6           0       -6.849068    3.225157    0.474843
     22          6           0       -3.970223    5.616788    0.892442
     23          6           0       -7.181053    5.704462    1.263415
     24          8           0       -8.383430    5.586397    1.500876
     25          6           0       -6.577112    7.073707    1.456262
     26          7           0       -7.980650    0.526075    0.048722
     27          6           0       -8.731553    1.659245    0.130137
     28          6           0      -10.216618    1.343354   -0.058700
     29          6           0      -10.146284   -0.065895   -0.662836
     30          6           0       -8.726007   -0.486849   -0.269373
     31          6           0      -11.097680    1.412980    1.339539
     32          6           0      -10.370859   -0.112471   -2.215226
     33          6           0      -11.369302   -1.129433   -2.727884
     34          7           0       -5.976615   -1.592721   -0.147564
     35          6           0       -7.125726   -2.369822   -0.321058
     36          6           0       -6.615197   -3.785513   -0.434853
     37          6           0       -5.221265   -3.697653   -0.454679
     38          6           0       -4.902526   -2.365183   -0.316575
     39          6           0       -7.486744   -5.009265   -0.578669
     40          6           0       -4.070388   -4.481659   -0.461867
     41          8           0       -3.959942   -5.681948   -0.438969
     42          6           0       -2.823689   -3.504661   -0.408999
     43          6           0       -2.118443   -3.876251    0.789603
     44          8           0       -2.472836   -3.644465    1.921343
     45          8           0       -1.110939   -4.655862    0.350916
     46          6           0       -0.333259   -5.533342    1.289691
     47          6           0        3.650218   -0.930332    0.569322
     48          6           0        4.894025   -0.571012   -0.282323
     49          6           0        6.227704   -0.715364    0.003237
     50          6           0        6.711931   -1.063168    1.391034
     51          6           0        7.328919   -0.556305   -1.005595
     52          6           0        8.178445    0.705109   -0.882508
     53          6           0        8.094393    1.523504   -2.208584
     54          6           0        9.413590    2.308957   -2.553882
     55          6           0        9.170322    3.638808   -3.302474
     56          6           0       10.445725    1.416583   -3.216908
     57          6           0       11.940127    1.739824   -2.975185
     58          6           0       12.674486    0.655050   -2.082056
     59          6           0       13.774062    1.248974   -1.142714
     60          6           0       15.088915    0.435041   -1.155592
     61          6           0       13.264478    1.450389    0.302481
     62          6           0       13.185625    0.255722    1.244071
     63          6           0       11.888340    0.164849    2.124026
     64          6           0       12.102498   -0.308290    3.590250
     65          6           0       12.751433   -1.755935    3.605012
     66          6           0       10.824395   -0.250990    4.512520
     67          1           0       -2.500325    3.317400    0.310093
     68          1           0       -8.887404    3.736029    0.305002
     69          1           0       -9.340409   -2.388873   -0.466860
     70          1           0       -1.060221   -1.141449    0.746070
     71          1           0       -0.911665    1.466922   -0.775732
     72          1           0       -1.183402    1.709256    2.242874
     73          1           0       -0.048853    2.452524    1.112058
     74          1           0        0.308084    0.868504    1.686950
     75          1           0       -0.153863   -0.290955   -1.965210
     76          1           0       -1.367067   -1.558038   -1.992448
     77          1           0        1.026939   -2.364722   -2.150892
     78          1           0        0.075338   -3.212005   -1.042266
     79          1           0       -4.082796    6.053970    1.885611
     80          1           0       -4.040097    6.338102    0.077857
     81          1           0       -2.976668    5.171384    0.938256
     82          1           0       -5.972859    7.168841    2.358493
     83          1           0       -7.454579    7.715835    1.524379
     84          1           0       -5.946753    7.187428    0.574350
     85          1           0      -10.626696    2.065334   -0.765197
     86          1           0      -10.858386   -0.654914   -0.084837
     87          1           0      -10.735323    1.997878    2.185093
     88          1           0      -11.327019    0.455883    1.807683
     89          1           0      -12.019772    1.917429    1.051744
     90          1           0       -9.446371   -0.347106   -2.742246
     91          1           0      -10.717188    0.821977   -2.656237
     92          1           0      -12.206772   -0.605523   -3.189039
     93          1           0      -11.582040   -1.816495   -1.908464
     94          1           0      -10.942686   -1.532889   -3.646189
     95          1           0       -8.398141   -4.947198    0.016011
     96          1           0       -6.941246   -5.928829   -0.367304
     97          1           0       -7.826648   -5.140868   -1.604960
     98          1           0       -2.221333   -3.566934   -1.315304
     99          1           0        0.540773   -5.006841    1.673340
    100          1           0       -0.073335   -6.469595    0.798110
    101          1           0       -0.881512   -5.773610    2.200885
    102          1           0        3.903814   -1.854144    1.090442
    103          1           0        3.505929   -0.160581    1.327050
    104          1           0        4.626936   -0.170123   -1.260502
    105          1           0        5.906188   -1.105769    2.123710
    106          1           0        7.457526   -0.330857    1.700171
    107          1           0        7.202646   -2.025322    1.533428
    108          1           0        6.867282   -0.762951   -1.970602
    109          1           0        7.968255   -1.399277   -0.744481
    110          1           0        9.252101    0.541700   -0.795027
    111          1           0        7.789436    1.324623   -0.074482
    112          1           0        7.338559    2.308080   -2.158100
    113          1           0        7.875392    0.877094   -3.058019
    114          1           0        9.865119    2.462467   -1.574336
    115          1           0        8.670980    3.450310   -4.252682
    116          1           0       10.073705    4.128493   -3.665661
    117          1           0        8.646993    4.369507   -2.685092
    118          1           0       10.243885    1.470680   -4.286876
    119          1           0       10.451296    0.352409   -2.977943
    120          1           0       12.070977    2.760989   -2.617865
    121          1           0       12.414009    1.787895   -3.955455
    122          1           0       13.204104   -0.057826   -2.714597
    123          1           0       11.905047    0.105980   -1.539121
    124          1           0       13.926336    2.186449   -1.676515
    125          1           0       15.749058    0.654606   -0.317204
    126          1           0       15.655316    0.704248   -2.047861
    127          1           0       15.007941   -0.647575   -1.258851
    128          1           0       12.228243    1.775221    0.214493
    129          1           0       13.867961    2.231009    0.767913
    130          1           0       14.023277    0.384596    1.930136
    131          1           0       13.250628   -0.581202    0.549157
    132          1           0       11.184628   -0.522723    1.655433
    133          1           0       11.342222    1.093774    2.293015
    134          1           0       12.890051    0.311532    4.017266
    135          1           0       12.098524   -2.514773    4.035815
    136          1           0       13.662135   -1.821781    4.199315
    137          1           0       12.884254   -2.134687    2.591374
    138          1           0       10.935899    0.567538    5.224194
    139          1           0       10.737947   -1.151289    5.121753
    140          1           0        9.873415   -0.226061    3.980783
 ---------------------------------------------------------------------

 SCF Done:  E(RZINDO/S) =  -474.519712579     A.U. after   20 cycles

 Excitation energies and oscillator strengths:

 Excited State   1:      Singlet-A      1.2827 eV  966.57 nm  f=0.5960  <S**2>=0.000
     175 ->178         0.19853
     176 ->177         0.66034
 This state for optimization and/or second-order correction.
 Total Energy, E(CIS/TDA) =  -474.472573353
 Copying the excited state density for this state as the 1-particle RhoCI density.

 Excited State   2:      Singlet-A      1.9690 eV  629.67 nm  f=0.0159  <S**2>=0.000
     175 ->177         0.51862
     176 ->178        -0.45919

 Excited State   3:      Singlet-A      2.9252 eV  423.85 nm  f=0.0365  <S**2>=0.000
     168 ->177         0.15166
     168 ->178        -0.11020
     168 ->179         0.19123
     168 ->180         0.25879
     168 ->186         0.13088
     169 ->179        -0.13001
     169 ->180        -0.13361
     170 ->177         0.17570
     170 ->178        -0.11704
     170 ->179         0.18598
     170 ->180         0.28097
     170 ->186         0.12621
     176 ->179        -0.10437

 Excited State   4:      Singlet-A      2.9472 eV  420.69 nm  f=0.0232  <S**2>=0.000
     169 ->177         0.31431
     169 ->179        -0.39310
     169 ->180         0.22722
     169 ->186        -0.15105
     169 ->201         0.12822
     170 ->177         0.13388
     170 ->179        -0.19039

 Excited State   5:      Singlet-A      3.0417 eV  407.61 nm  f=0.0040  <S**2>=0.000
     176 ->179         0.66051

 The electronic state is 1-A.
 Alpha  occ. eigenvalues --   -1.85957  -1.84772  -1.81613  -1.73320  -1.72537
 Alpha  occ. eigenvalues --   -1.70696  -1.65192  -1.60362  -1.59528  -1.58607
 Alpha  occ. eigenvalues --   -1.54335  -1.50870  -1.49974  -1.47906  -1.46751
 Alpha  occ. eigenvalues --   -1.44080  -1.43597  -1.40205  -1.38088  -1.37993
 Alpha  occ. eigenvalues --   -1.35103  -1.32748  -1.32188  -1.31770  -1.29489
 Alpha  occ. eigenvalues --   -1.27536  -1.25372  -1.21267  -1.20616  -1.19052
 Alpha  occ. eigenvalues --   -1.17897  -1.16321  -1.15133  -1.14340  -1.13191
 Alpha  occ. eigenvalues --   -1.12528  -1.11474  -1.10997  -1.05378  -1.03627
 Alpha  occ. eigenvalues --   -1.03436  -1.01679  -0.99638  -0.98267  -0.96740
 Alpha  occ. eigenvalues --   -0.96065  -0.95792  -0.94274  -0.92944  -0.92469
 Alpha  occ. eigenvalues --   -0.90398  -0.89863  -0.88758  -0.88455  -0.86369
 Alpha  occ. eigenvalues --   -0.85352  -0.84398  -0.83669  -0.81742  -0.80615
 Alpha  occ. eigenvalues --   -0.80194  -0.78293  -0.78098  -0.76432  -0.76297
 Alpha  occ. eigenvalues --   -0.76269  -0.75565  -0.74836  -0.73461  -0.72822
 Alpha  occ. eigenvalues --   -0.72501  -0.72017  -0.71472  -0.70892  -0.70572
 Alpha  occ. eigenvalues --   -0.69623  -0.69119  -0.68558  -0.68132  -0.67939
 Alpha  occ. eigenvalues --   -0.67301  -0.67003  -0.66777  -0.66188  -0.65813
 Alpha  occ. eigenvalues --   -0.65304  -0.64776  -0.64312  -0.63548  -0.63264
 Alpha  occ. eigenvalues --   -0.63003  -0.62444  -0.62058  -0.61409  -0.61178
 Alpha  occ. eigenvalues --   -0.61067  -0.60678  -0.60592  -0.60100  -0.59686
 Alpha  occ. eigenvalues --   -0.59157  -0.58895  -0.58664  -0.58285  -0.57968
 Alpha  occ. eigenvalues --   -0.57720  -0.57432  -0.57340  -0.56748  -0.56307
 Alpha  occ. eigenvalues --   -0.56230  -0.55483  -0.55339  -0.54910  -0.54559
 Alpha  occ. eigenvalues --   -0.54214  -0.54004  -0.53655  -0.53052  -0.52889
 Alpha  occ. eigenvalues --   -0.52574  -0.52448  -0.51969  -0.51558  -0.51481
 Alpha  occ. eigenvalues --   -0.50852  -0.50709  -0.50551  -0.50424  -0.50077
 Alpha  occ. eigenvalues --   -0.49879  -0.49733  -0.49476  -0.49100  -0.48846
 Alpha  occ. eigenvalues --   -0.48748  -0.48452  -0.48374  -0.47994  -0.47277
 Alpha  occ. eigenvalues --   -0.47207  -0.46959  -0.46781  -0.46368  -0.46279
 Alpha  occ. eigenvalues --   -0.46266  -0.45915  -0.45830  -0.45265  -0.45222
 Alpha  occ. eigenvalues --   -0.44997  -0.44940  -0.44622  -0.44574  -0.44413
 Alpha  occ. eigenvalues --   -0.43894  -0.43790  -0.43208  -0.42982  -0.42440
 Alpha  occ. eigenvalues --   -0.41929  -0.41669  -0.40942  -0.38901  -0.38773
 Alpha  occ. eigenvalues --   -0.37756  -0.36854  -0.35146  -0.34719  -0.34497
 Alpha  occ. eigenvalues --   -0.33332  -0.32743  -0.32330  -0.31934  -0.26418
 Alpha  occ. eigenvalues --   -0.21272
 Alpha virt. eigenvalues --   -0.07786  -0.01740  -0.00141   0.01675   0.01971
 Alpha virt. eigenvalues --    0.03450   0.03665   0.03941   0.04339   0.05635
 Alpha virt. eigenvalues --    0.06837   0.07016   0.07652   0.08086   0.08372

 Mulliken charges:
               1
     1  Mg   0.422394
     2  C   -0.057047
     3  C   -0.097968
     4  C   -0.045121
     5  C   -0.065552
     6  N   -0.287707
     7  C    0.125752
     8  C    0.004379
     9  C   -0.007935
    10  C    0.135623
    11  C   -0.052537
    12  C   -0.022240
    13  C    0.007518
    14  C    0.474214
    15  O   -0.507180
    16  O   -0.287247
    17  N   -0.307094
    18  C    0.108990
    19  C   -0.016795
    20  C   -0.026983
    21  C    0.123962
    22  C   -0.050208
    23  C    0.320414
    24  O   -0.533823
    25  C   -0.034293
    26  N   -0.247734
    27  C    0.106766
    28  C    0.001433
    29  C    0.001075
    30  C    0.143517
    31  C   -0.060702
    32  C   -0.030294
    33  C   -0.065324
    34  N   -0.324045
    35  C    0.085305
    36  C    0.041491
    37  C   -0.040231
    38  C    0.139183
    39  C   -0.037623
    40  C    0.344080
    41  O   -0.519800
    42  C    0.048735
    43  C    0.509868
    44  O   -0.525133
    45  O   -0.274776
    46  C    0.068689
    47  C    0.112299
    48  C   -0.099021
    49  C   -0.003537
    50  C   -0.045627
    51  C   -0.014858
    52  C   -0.027142
    53  C   -0.042140
    54  C   -0.009983
    55  C   -0.052206
    56  C   -0.035720
    57  C   -0.042711
    58  C   -0.038128
    59  C   -0.012774
    60  C   -0.056621
    61  C   -0.032211
    62  C   -0.033868
    63  C   -0.032337
    64  C   -0.015413
    65  C   -0.066428
    66  C   -0.057920
    67  H    0.021156
    68  H    0.046022
    69  H    0.030037
    70  H    0.042262
    71  H    0.027377
    72  H    0.032122
    73  H    0.015468
    74  H    0.028512
    75  H    0.029577
    76  H    0.023244
    77  H    0.037799
    78  H    0.040603
    79  H    0.028771
    80  H    0.034494
    81  H    0.019672
    82  H    0.044871
    83  H    0.043285
    84  H    0.035827
    85  H    0.031125
    86  H    0.030149
    87  H    0.030787
    88  H    0.024449
    89  H    0.016088
    90  H    0.020111
    91  H    0.021006
    92  H    0.019839
    93  H    0.033685
    94  H    0.017883
    95  H    0.026665
    96  H    0.036513
    97  H    0.028681
    98  H    0.052751
    99  H    0.048877
   100  H    0.040439
   101  H    0.044333
   102  H    0.051546
   103  H    0.047237
   104  H    0.025068
   105  H    0.016965
   106  H    0.024922
   107  H    0.027194
   108  H    0.028625
   109  H    0.019802
   110  H    0.030102
   111  H    0.027401
   112  H    0.015276
   113  H    0.021152
   114  H    0.013162
   115  H    0.019419
   116  H    0.014060
   117  H    0.021102
   118  H    0.008667
   119  H    0.019146
   120  H    0.020632
   121  H    0.012156
   122  H    0.017512
   123  H    0.021140
   124  H    0.023571
   125  H    0.017408
   126  H    0.006737
   127  H    0.022218
   128  H    0.009857
   129  H    0.014530
   130  H    0.024858
   131  H    0.030299
   132  H    0.016475
   133  H    0.016886
   134  H    0.019139
   135  H    0.012232
   136  H    0.021202
   137  H    0.017359
   138  H    0.019824
   139  H    0.015768
   140  H    0.023221
 Sum of Mulliken charges =  -0.00000

 Dipole moment (field-independent basis, Debye):
    X=              4.0166    Y=              4.6409    Z=             -5.5791  Tot=              8.2944
 N-N= 4.296113434272D+03 E-N= 0.000000000000D+00  KE=-9.267116923571D+03
 Leave Link  601 at Sat Apr 30 21:45:27 2022, MaxMem=  6710886400 cpu:               0.8 elap:               0.0
 (Enter /sw/apps/gaussian-16.0/g16/l9999.exe)
 1\1\GINC-BP1-COMPUTE103\SP\RZINDO CIS\STO-3G\C55H74Mg1N4O6\OF15641\30-
 Apr-2022\0\\#p ZINDO=(nstates=5)\\step_901_chromophore_19 ZINDO\\0,1\M
 g,0,25.705,51.11,26.277\C,0,23.575,52.,28.973\C,0,27.826,49.847,28.548
 \C,0,27.718,50.315,23.7\C,0,23.414,52.38,24.075\N,0,25.561,50.742,28.5
 38\C,0,24.692,51.301,29.436\C,0,25.147,51.026,30.882\C,0,26.561,50.377
 ,30.709\C,0,26.648,50.291,29.138\C,0,27.812,51.074,31.516\C,0,24.065,5
 0.172,31.702\C,0,23.366,50.813,32.928\C,0,24.168,51.591,33.984\O,0,24.

 Normal termination of Gaussian 16 at Sat Apr 30 21:45:28 2022.
