 Gaussian 16, Revision A.03,
 Gaussian 16:  ES64L-G16RevA.03 25-Dec-2016

 ------------------------------
 #p blyp/Def2SVP td=(nstates=5)
 ------------------------------

 ---------------------------------------------------
 step_1451_chromophore_20 TDDFT with blyp functional
 ---------------------------------------------------
 Symbolic Z-matrix:
 Charge =  0 Multiplicity = 1

                         Standard orientation:
 ---------------------------------------------------------------------
 Center     Atomic      Atomic             Coordinates (Angstroms)
 Number     Number       Type             X           Y           Z
 ---------------------------------------------------------------------
      1         12           0        3.947785    1.693046   -0.506025
      2          6           0        4.523157   -1.836952   -0.670603
      3          6           0        1.550492    1.225954   -3.092940
      4          6           0        2.818430    4.881487    0.036806
      5          6           0        5.821350    1.746875    2.337875
      6          7           0        3.033093   -0.136031   -1.648443
      7          6           0        3.513587   -1.420095   -1.585973
      8          6           0        2.682588   -2.269751   -2.564161
      9          6           0        2.110950   -1.266643   -3.556271
     10          6           0        2.218470    0.031497   -2.682101
     11          6           0        2.553611   -1.147875   -5.022320
     12          6           0        1.540848   -3.087366   -1.861500
     13          6           0        0.735446   -3.936184   -2.837928
     14          6           0       -0.110418   -5.073720   -2.256568
     15          8           0        0.144156   -6.298825   -2.305241
     16          8           0       -1.187956   -4.536124   -1.626698
     17          7           0        2.470491    2.911878   -1.396273
     18          6           0        1.606936    2.548229   -2.430697
     19          6           0        0.832952    3.718389   -2.893941
     20          6           0        1.201283    4.839722   -1.982712
     21          6           0        2.177528    4.221769   -1.060213
     22          6           0       -0.242172    3.671571   -4.026699
     23          6           0        0.647590    6.266474   -2.029788
     24          8           0       -0.200714    6.585927   -2.826540
     25          6           0        1.239808    7.470473   -1.235704
     26          7           0        3.945194    2.943830    1.149213
     27          6           0        3.595867    4.298055    1.013274
     28          6           0        4.108767    5.090679    2.186504
     29          6           0        5.167529    4.113645    2.858763
     30          6           0        5.012338    2.807549    2.017505
     31          6           0        4.889536    6.317618    1.703651
     32          6           0        4.891223    3.890972    4.382170
     33          6           0        5.940393    4.372521    5.412626
     34          7           0        4.999181    0.276462    0.594175
     35          6           0        5.755741    0.481717    1.769837
     36          6           0        6.393721   -0.708309    2.156315
     37          6           0        6.034297   -1.647694    1.239707
     38          6           0        5.094544   -1.013643    0.325402
     39          6           0        7.315027   -0.902109    3.343588
     40          6           0        6.067920   -3.026195    0.816570
     41          8           0        6.733909   -3.980565    1.210761
     42          6           0        5.237634   -3.109027   -0.526442
     43          6           0        4.500117   -4.414235   -0.502598
     44          8           0        3.940862   -4.885357    0.499505
     45          8           0        4.523417   -4.937109   -1.750357
     46          6           0        3.728700   -6.158756   -1.868533
     47          6           0       -1.791397   -5.522784   -0.746785
     48          6           0       -2.915340   -4.875123   -0.108060
     49          6           0       -3.889862   -5.381939    0.669222
     50          6           0       -4.095342   -6.867884    0.745329
     51          6           0       -5.007821   -4.561536    1.318777
     52          6           0       -5.084619   -4.480018    2.808811
     53          6           0       -6.423678   -3.800271    3.305682
     54          6           0       -6.148949   -2.366545    3.947554
     55          6           0       -6.369971   -2.373844    5.508721
     56          6           0       -7.024714   -1.270693    3.341954
     57          6           0       -6.703065   -1.073268    1.793258
     58          6           0       -6.451321    0.381688    1.302069
     59          6           0       -7.599879    1.019295    0.546227
     60          6           0       -7.372711    1.269175   -0.990825
     61          6           0       -8.036539    2.484761    1.062936
     62          6           0       -9.513033    2.748858    0.909696
     63          6           0       -9.913436    3.786227   -0.218154
     64          6           0      -10.799740    3.249752   -1.363339
     65          6           0      -10.343280    3.773575   -2.714958
     66          6           0      -12.257093    3.481925   -1.201810
     67          1           0        0.913603    1.199823   -3.979470
     68          1           0        2.539323    5.924777    0.194229
     69          1           0        6.466634    2.056525    3.161618
     70          1           0        3.315650   -2.939123   -3.145903
     71          1           0        1.022064   -1.225423   -3.558780
     72          1           0        3.106149   -1.979947   -5.458275
     73          1           0        3.357742   -0.432424   -5.200149
     74          1           0        1.746191   -0.863137   -5.697662
     75          1           0        0.822900   -2.451208   -1.343044
     76          1           0        2.008720   -3.719536   -1.106840
     77          1           0        1.422990   -4.217857   -3.635358
     78          1           0        0.001453   -3.219017   -3.206834
     79          1           0        0.028342    3.042482   -4.874262
     80          1           0       -0.352231    4.643491   -4.507745
     81          1           0       -1.192076    3.267788   -3.673728
     82          1           0        0.786610    7.389286   -0.246975
     83          1           0        0.877087    8.263998   -1.890756
     84          1           0        2.326499    7.462578   -1.150626
     85          1           0        3.371833    5.459510    2.898791
     86          1           0        6.115487    4.651217    2.886434
     87          1           0        5.894171    6.524243    2.072697
     88          1           0        4.344426    7.260662    1.727439
     89          1           0        5.045725    6.187702    0.632182
     90          1           0        4.898966    2.812040    4.535618
     91          1           0        3.896500    4.248905    4.645839
     92          1           0        6.911887    4.544458    4.948050
     93          1           0        6.165333    3.589532    6.136426
     94          1           0        5.644595    5.313005    5.877219
     95          1           0        8.280886   -1.304472    3.037886
     96          1           0        6.809222   -1.650910    3.952094
     97          1           0        7.490249    0.020067    3.898376
     98          1           0        5.986532   -3.113804   -1.319054
     99          1           0        3.868606   -6.448070   -2.910810
    100          1           0        2.691293   -6.125120   -1.535880
    101          1           0        4.050345   -6.975673   -1.222571
    102          1           0       -1.049812   -5.907210   -0.046025
    103          1           0       -2.006275   -6.416707   -1.332039
    104          1           0       -2.882255   -3.785451   -0.104671
    105          1           0       -3.921905   -7.168097    1.778179
    106          1           0       -3.576842   -7.493875    0.019255
    107          1           0       -5.175804   -7.005226    0.694512
    108          1           0       -5.953412   -5.009201    1.013758
    109          1           0       -4.919818   -3.537288    0.955596
    110          1           0       -4.301742   -3.848723    3.228135
    111          1           0       -5.001765   -5.477350    3.240784
    112          1           0       -6.905605   -4.386907    4.089184
    113          1           0       -7.174733   -3.709169    2.520915
    114          1           0       -5.130587   -2.060372    3.709678
    115          1           0       -7.136826   -1.649571    5.784482
    116          1           0       -5.461388   -2.076473    6.033272
    117          1           0       -6.551077   -3.368365    5.918638
    118          1           0       -6.959301   -0.338807    3.903928
    119          1           0       -8.006188   -1.744685    3.380005
    120          1           0       -7.433566   -1.610902    1.188555
    121          1           0       -5.784512   -1.607093    1.551821
    122          1           0       -5.526544    0.418563    0.726089
    123          1           0       -6.171021    0.956023    2.184160
    124          1           0       -8.404363    0.283701    0.517107
    125          1           0       -7.618754    0.368572   -1.553163
    126          1           0       -6.324523    1.526839   -1.138216
    127          1           0       -7.873486    2.159986   -1.371211
    128          1           0       -7.411440    3.269783    0.638650
    129          1           0       -7.855990    2.514361    2.137038
    130          1           0       -9.981351    3.177758    1.794722
    131          1           0       -9.944790    1.786220    0.632524
    132          1           0       -9.051660    4.208880   -0.735963
    133          1           0      -10.361536    4.640456    0.290054
    134          1           0      -10.697114    2.167087   -1.441558
    135          1           0      -11.192218    4.062019   -3.334233
    136          1           0       -9.871313    2.892560   -3.149554
    137          1           0       -9.662032    4.611822   -2.571903
    138          1           0      -12.653866    4.368348   -1.697839
    139          1           0      -12.563630    3.493609   -0.155614
    140          1           0      -12.787189    2.637457   -1.644300
 ---------------------------------------------------------------------

 SCF Done:  E(RB-LYP) =  -3007.35971197     A.U. after   20 cycles

 Excitation energies and oscillator strengths:

 Excited State   1:      Singlet-A      1.6865 eV  735.17 nm  f=0.0423  <S**2>=0.000
     244 -> 247        0.48158
     245 -> 247        0.40275
     246 -> 247       -0.30343
 This state for optimization and/or second-order correction.
 Total Energy, E(TD-HF/TD-DFT) =  -3007.29773550
 Copying the excited state density for this state as the 1-particle RhoCI density.

 Excited State   2:      Singlet-A      1.7672 eV  701.59 nm  f=0.2590  <S**2>=0.000
     244 -> 247        0.27916
     245 -> 247        0.14789
     245 -> 248       -0.16359
     246 -> 247        0.62242
     246 <- 247       -0.14841

 Excited State   3:      Singlet-A      1.7864 eV  694.04 nm  f=0.0053  <S**2>=0.000
     243 -> 247        0.68562
     244 -> 247        0.14326

 Excited State   4:      Singlet-A      1.9926 eV  622.22 nm  f=0.0885  <S**2>=0.000
     240 -> 247       -0.12671
     243 -> 247        0.14032
     244 -> 247       -0.39376
     245 -> 247        0.49981
     246 -> 248        0.23181

 Excited State   5:      Singlet-A      2.1238 eV  583.79 nm  f=0.0002  <S**2>=0.000
     242 -> 247        0.70676

 The electronic state is 1-A.
 Alpha  occ. eigenvalues --  -46.28356 -18.83351 -18.83305 -18.77572 -18.76802
 Alpha  occ. eigenvalues --  -18.75774 -18.75400 -14.03874 -14.03540 -14.01992
 Alpha  occ. eigenvalues --  -14.01460 -10.04956 -10.03953 -10.00228  -9.99278
 Alpha  occ. eigenvalues --   -9.97740  -9.97530  -9.97144  -9.97081  -9.97016
 Alpha  occ. eigenvalues --   -9.96869  -9.96859  -9.96750  -9.95727  -9.95014
 Alpha  occ. eigenvalues --   -9.95013  -9.94657  -9.94506  -9.94231  -9.94207
 Alpha  occ. eigenvalues --   -9.93911  -9.93775  -9.93726  -9.93702  -9.93691
 Alpha  occ. eigenvalues --   -9.93580  -9.93501  -9.93215  -9.93156  -9.92946
 Alpha  occ. eigenvalues --   -9.92705  -9.92697  -9.92593  -9.92517  -9.92244
 Alpha  occ. eigenvalues --   -9.92205  -9.92149  -9.92087  -9.92081  -9.91873
 Alpha  occ. eigenvalues --   -9.91826  -9.91795  -9.91691  -9.91309  -9.91291
 Alpha  occ. eigenvalues --   -9.91233  -9.91230  -9.90921  -9.90914  -9.90865
 Alpha  occ. eigenvalues --   -9.90786  -9.90779  -9.90546  -9.90474  -9.90115
 Alpha  occ. eigenvalues --   -9.89972  -2.92945  -1.73310  -1.72859  -1.72660
 Alpha  occ. eigenvalues --   -0.99185  -0.98507  -0.92704  -0.90852  -0.89697
 Alpha  occ. eigenvalues --   -0.89375  -0.87338  -0.86566  -0.85233  -0.84112
 Alpha  occ. eigenvalues --   -0.76155  -0.74098  -0.73521  -0.72654  -0.72553
 Alpha  occ. eigenvalues --   -0.72214  -0.72068  -0.71348  -0.70895  -0.70663
 Alpha  occ. eigenvalues --   -0.69787  -0.68592  -0.68405  -0.67963  -0.67456
 Alpha  occ. eigenvalues --   -0.66755  -0.66051  -0.65376  -0.65068  -0.64371
 Alpha  occ. eigenvalues --   -0.63752  -0.63073  -0.62180  -0.61674  -0.60759
 Alpha  occ. eigenvalues --   -0.60184  -0.60048  -0.59935  -0.59377  -0.58782
 Alpha  occ. eigenvalues --   -0.58652  -0.58213  -0.57242  -0.55916  -0.54543
 Alpha  occ. eigenvalues --   -0.54346  -0.53663  -0.52829  -0.52373  -0.52115
 Alpha  occ. eigenvalues --   -0.51431  -0.51257  -0.50960  -0.50885  -0.50434
 Alpha  occ. eigenvalues --   -0.49733  -0.49539  -0.49064  -0.48505  -0.47221
 Alpha  occ. eigenvalues --   -0.46694  -0.46230  -0.45941  -0.45309  -0.44615
 Alpha  occ. eigenvalues --   -0.44325  -0.44099  -0.43428  -0.42688  -0.42551
 Alpha  occ. eigenvalues --   -0.42294  -0.42136  -0.41733  -0.41620  -0.41101
 Alpha  occ. eigenvalues --   -0.40949  -0.40716  -0.40529  -0.40466  -0.40325
 Alpha  occ. eigenvalues --   -0.40022  -0.39801  -0.39526  -0.39461  -0.39247
 Alpha  occ. eigenvalues --   -0.38831  -0.38801  -0.38749  -0.38435  -0.38284
 Alpha  occ. eigenvalues --   -0.37948  -0.37790  -0.37659  -0.37502  -0.37206
 Alpha  occ. eigenvalues --   -0.37078  -0.36949  -0.36568  -0.36478  -0.36317
 Alpha  occ. eigenvalues --   -0.36084  -0.35977  -0.35847  -0.35719  -0.35550
 Alpha  occ. eigenvalues --   -0.35520  -0.35421  -0.35277  -0.35097  -0.34737
 Alpha  occ. eigenvalues --   -0.34670  -0.34408  -0.34142  -0.33925  -0.33902
 Alpha  occ. eigenvalues --   -0.33871  -0.33773  -0.33445  -0.33389  -0.33240
 Alpha  occ. eigenvalues --   -0.33081  -0.32938  -0.32829  -0.32414  -0.32351
 Alpha  occ. eigenvalues --   -0.32284  -0.32096  -0.32066  -0.31846  -0.31658
 Alpha  occ. eigenvalues --   -0.31531  -0.31378  -0.31208  -0.31079  -0.31059
 Alpha  occ. eigenvalues --   -0.30748  -0.30411  -0.30143  -0.29986  -0.29879
 Alpha  occ. eigenvalues --   -0.29721  -0.29456  -0.29393  -0.29347  -0.29205
 Alpha  occ. eigenvalues --   -0.29138  -0.28581  -0.28279  -0.28098  -0.27939
 Alpha  occ. eigenvalues --   -0.27213  -0.27169  -0.26870  -0.26752  -0.26487
 Alpha  occ. eigenvalues --   -0.26180  -0.26150  -0.26092  -0.25992  -0.25512
 Alpha  occ. eigenvalues --   -0.25332  -0.25308  -0.24508  -0.24370  -0.23712
 Alpha  occ. eigenvalues --   -0.23700  -0.22750  -0.22121  -0.21860  -0.21123
 Alpha  occ. eigenvalues --   -0.20494  -0.20174  -0.18881  -0.18706  -0.17768
 Alpha  occ. eigenvalues --   -0.16363
 Alpha virt. eigenvalues --   -0.12370  -0.07279  -0.06499  -0.04774  -0.04555
 Alpha virt. eigenvalues --   -0.04026  -0.03068  -0.02155  -0.01622  -0.00082
 Alpha virt. eigenvalues --    0.00918   0.01693   0.02250   0.02872   0.03170

 Mulliken charges:
               1
     1  Mg   0.700855
     2  C    0.083839
     3  C   -0.047185
     4  C   -0.046024
     5  C   -0.095139
     6  N   -0.154017
     7  C   -0.085690
     8  C    0.052232
     9  C   -0.007865
    10  C   -0.011072
    11  C    0.148583
    12  C    0.079221
    13  C    0.153303
    14  C    0.111728
    15  O   -0.220348
    16  O   -0.257003
    17  N   -0.290791
    18  C    0.113411
    19  C   -0.136591
    20  C    0.031218
    21  C    0.118479
    22  C    0.154041
    23  C   -0.093445
    24  O   -0.151383
    25  C    0.109263
    26  N   -0.288437
    27  C    0.072283
    28  C    0.022890
    29  C    0.009881
    30  C    0.053646
    31  C    0.089028
    32  C    0.061217
    33  C    0.058493
    34  N   -0.251926
    35  C    0.198673
    36  C   -0.196052
    37  C    0.131093
    38  C   -0.020304
    39  C    0.182093
    40  C   -0.043928
    41  O   -0.136609
    42  C    0.045719
    43  C    0.115106
    44  O   -0.193281
    45  O   -0.248790
    46  C    0.223383
    47  C    0.318657
    48  C   -0.095882
    49  C   -0.138863
    50  C    0.163251
    51  C    0.125791
    52  C    0.087780
    53  C    0.106899
    54  C   -0.123336
    55  C    0.116794
    56  C    0.108107
    57  C    0.029350
    58  C    0.156953
    59  C   -0.080482
    60  C    0.085949
    61  C    0.099251
    62  C    0.093774
    63  C    0.088275
    64  C   -0.107157
    65  C    0.111679
    66  C    0.117705
    67  H   -0.057840
    68  H   -0.084277
    69  H   -0.056805
    70  H   -0.039615
    71  H   -0.021753
    72  H   -0.015744
    73  H   -0.023472
    74  H   -0.000095
    75  H   -0.017815
    76  H   -0.000697
    77  H   -0.012298
    78  H   -0.010029
    79  H   -0.018556
    80  H    0.009066
    81  H    0.013438
    82  H    0.018009
    83  H    0.007781
    84  H    0.012405
    85  H   -0.007298
    86  H   -0.027285
    87  H   -0.005595
    88  H   -0.016364
    89  H   -0.023616
    90  H   -0.022848
    91  H   -0.022216
    92  H   -0.020430
    93  H   -0.005406
    94  H    0.000158
    95  H    0.010846
    96  H    0.015912
    97  H   -0.018813
    98  H    0.006617
    99  H    0.013333
   100  H    0.014664
   101  H    0.004486
   102  H    0.005511
   103  H    0.000244
   104  H   -0.042930
   105  H   -0.010910
   106  H   -0.001554
   107  H   -0.026827
   108  H   -0.022665
   109  H   -0.031204
   110  H   -0.026233
   111  H   -0.036577
   112  H   -0.037040
   113  H   -0.033341
   114  H   -0.028795
   115  H   -0.013795
   116  H   -0.022209
   117  H   -0.018387
   118  H   -0.019986
   119  H   -0.033016
   120  H   -0.029448
   121  H   -0.029743
   122  H   -0.046565
   123  H   -0.044706
   124  H   -0.029637
   125  H   -0.014822
   126  H   -0.027250
   127  H   -0.009608
   128  H   -0.025940
   129  H   -0.048512
   130  H   -0.027300
   131  H   -0.026983
   132  H   -0.041872
   133  H   -0.041025
   134  H   -0.038963
   135  H   -0.025493
   136  H   -0.010395
   137  H   -0.012311
   138  H   -0.018868
   139  H   -0.028021
   140  H   -0.028966
 Sum of Mulliken charges =  -0.00000

 Dipole moment (field-independent basis, Debye):
    X=              0.4194    Y=              3.1620    Z=             -0.0447  Tot=              3.1900
 Quadrupole moment (field-independent basis, Debye-Ang):
   XX=           -401.1440   YY=           -430.6977   ZZ=           -393.4269
   XY=             51.8488   XZ=            -12.6720   YZ=             25.4604

 Normal termination of Gaussian 16 at Thu Apr 28 05:24:28 2022.
