 Gaussian 16, Revision A.03,
 Gaussian 16:  ES64L-G16RevA.03 25-Dec-2016

 -----------------------------------
 #p cam-b3lyp/Def2SVP td=(nstates=5)
 -----------------------------------

 --------------------------------------------------------
 step_1451_chromophore_20 TDDFT with cam-b3lyp functional
 --------------------------------------------------------
 Symbolic Z-matrix:
 Charge =  0 Multiplicity = 1

                         Standard orientation:
 ---------------------------------------------------------------------
 Center     Atomic      Atomic             Coordinates (Angstroms)
 Number     Number       Type             X           Y           Z
 ---------------------------------------------------------------------
      1         12           0        3.947785    1.693046   -0.506025
      2          6           0        4.523157   -1.836952   -0.670603
      3          6           0        1.550492    1.225954   -3.092940
      4          6           0        2.818430    4.881487    0.036806
      5          6           0        5.821350    1.746875    2.337875
      6          7           0        3.033093   -0.136031   -1.648443
      7          6           0        3.513587   -1.420095   -1.585973
      8          6           0        2.682588   -2.269751   -2.564161
      9          6           0        2.110950   -1.266643   -3.556271
     10          6           0        2.218470    0.031497   -2.682101
     11          6           0        2.553611   -1.147875   -5.022320
     12          6           0        1.540848   -3.087366   -1.861500
     13          6           0        0.735446   -3.936184   -2.837928
     14          6           0       -0.110418   -5.073720   -2.256568
     15          8           0        0.144156   -6.298825   -2.305241
     16          8           0       -1.187956   -4.536124   -1.626698
     17          7           0        2.470491    2.911878   -1.396273
     18          6           0        1.606936    2.548229   -2.430697
     19          6           0        0.832952    3.718389   -2.893941
     20          6           0        1.201283    4.839722   -1.982712
     21          6           0        2.177528    4.221769   -1.060213
     22          6           0       -0.242172    3.671571   -4.026699
     23          6           0        0.647590    6.266474   -2.029788
     24          8           0       -0.200714    6.585927   -2.826540
     25          6           0        1.239808    7.470473   -1.235704
     26          7           0        3.945194    2.943830    1.149213
     27          6           0        3.595867    4.298055    1.013274
     28          6           0        4.108767    5.090679    2.186504
     29          6           0        5.167529    4.113645    2.858763
     30          6           0        5.012338    2.807549    2.017505
     31          6           0        4.889536    6.317618    1.703651
     32          6           0        4.891223    3.890972    4.382170
     33          6           0        5.940393    4.372521    5.412626
     34          7           0        4.999181    0.276462    0.594175
     35          6           0        5.755741    0.481717    1.769837
     36          6           0        6.393721   -0.708309    2.156315
     37          6           0        6.034297   -1.647694    1.239707
     38          6           0        5.094544   -1.013643    0.325402
     39          6           0        7.315027   -0.902109    3.343588
     40          6           0        6.067920   -3.026195    0.816570
     41          8           0        6.733909   -3.980565    1.210761
     42          6           0        5.237634   -3.109027   -0.526442
     43          6           0        4.500117   -4.414235   -0.502598
     44          8           0        3.940862   -4.885357    0.499505
     45          8           0        4.523417   -4.937109   -1.750357
     46          6           0        3.728700   -6.158756   -1.868533
     47          6           0       -1.791397   -5.522784   -0.746785
     48          6           0       -2.915340   -4.875123   -0.108060
     49          6           0       -3.889862   -5.381939    0.669222
     50          6           0       -4.095342   -6.867884    0.745329
     51          6           0       -5.007821   -4.561536    1.318777
     52          6           0       -5.084619   -4.480018    2.808811
     53          6           0       -6.423678   -3.800271    3.305682
     54          6           0       -6.148949   -2.366545    3.947554
     55          6           0       -6.369971   -2.373844    5.508721
     56          6           0       -7.024714   -1.270693    3.341954
     57          6           0       -6.703065   -1.073268    1.793258
     58          6           0       -6.451321    0.381688    1.302069
     59          6           0       -7.599879    1.019295    0.546227
     60          6           0       -7.372711    1.269175   -0.990825
     61          6           0       -8.036539    2.484761    1.062936
     62          6           0       -9.513033    2.748858    0.909696
     63          6           0       -9.913436    3.786227   -0.218154
     64          6           0      -10.799740    3.249752   -1.363339
     65          6           0      -10.343280    3.773575   -2.714958
     66          6           0      -12.257093    3.481925   -1.201810
     67          1           0        0.913603    1.199823   -3.979470
     68          1           0        2.539323    5.924777    0.194229
     69          1           0        6.466634    2.056525    3.161618
     70          1           0        3.315650   -2.939123   -3.145903
     71          1           0        1.022064   -1.225423   -3.558780
     72          1           0        3.106149   -1.979947   -5.458275
     73          1           0        3.357742   -0.432424   -5.200149
     74          1           0        1.746191   -0.863137   -5.697662
     75          1           0        0.822900   -2.451208   -1.343044
     76          1           0        2.008720   -3.719536   -1.106840
     77          1           0        1.422990   -4.217857   -3.635358
     78          1           0        0.001453   -3.219017   -3.206834
     79          1           0        0.028342    3.042482   -4.874262
     80          1           0       -0.352231    4.643491   -4.507745
     81          1           0       -1.192076    3.267788   -3.673728
     82          1           0        0.786610    7.389286   -0.246975
     83          1           0        0.877087    8.263998   -1.890756
     84          1           0        2.326499    7.462578   -1.150626
     85          1           0        3.371833    5.459510    2.898791
     86          1           0        6.115487    4.651217    2.886434
     87          1           0        5.894171    6.524243    2.072697
     88          1           0        4.344426    7.260662    1.727439
     89          1           0        5.045725    6.187702    0.632182
     90          1           0        4.898966    2.812040    4.535618
     91          1           0        3.896500    4.248905    4.645839
     92          1           0        6.911887    4.544458    4.948050
     93          1           0        6.165333    3.589532    6.136426
     94          1           0        5.644595    5.313005    5.877219
     95          1           0        8.280886   -1.304472    3.037886
     96          1           0        6.809222   -1.650910    3.952094
     97          1           0        7.490249    0.020067    3.898376
     98          1           0        5.986532   -3.113804   -1.319054
     99          1           0        3.868606   -6.448070   -2.910810
    100          1           0        2.691293   -6.125120   -1.535880
    101          1           0        4.050345   -6.975673   -1.222571
    102          1           0       -1.049812   -5.907210   -0.046025
    103          1           0       -2.006275   -6.416707   -1.332039
    104          1           0       -2.882255   -3.785451   -0.104671
    105          1           0       -3.921905   -7.168097    1.778179
    106          1           0       -3.576842   -7.493875    0.019255
    107          1           0       -5.175804   -7.005226    0.694512
    108          1           0       -5.953412   -5.009201    1.013758
    109          1           0       -4.919818   -3.537288    0.955596
    110          1           0       -4.301742   -3.848723    3.228135
    111          1           0       -5.001765   -5.477350    3.240784
    112          1           0       -6.905605   -4.386907    4.089184
    113          1           0       -7.174733   -3.709169    2.520915
    114          1           0       -5.130587   -2.060372    3.709678
    115          1           0       -7.136826   -1.649571    5.784482
    116          1           0       -5.461388   -2.076473    6.033272
    117          1           0       -6.551077   -3.368365    5.918638
    118          1           0       -6.959301   -0.338807    3.903928
    119          1           0       -8.006188   -1.744685    3.380005
    120          1           0       -7.433566   -1.610902    1.188555
    121          1           0       -5.784512   -1.607093    1.551821
    122          1           0       -5.526544    0.418563    0.726089
    123          1           0       -6.171021    0.956023    2.184160
    124          1           0       -8.404363    0.283701    0.517107
    125          1           0       -7.618754    0.368572   -1.553163
    126          1           0       -6.324523    1.526839   -1.138216
    127          1           0       -7.873486    2.159986   -1.371211
    128          1           0       -7.411440    3.269783    0.638650
    129          1           0       -7.855990    2.514361    2.137038
    130          1           0       -9.981351    3.177758    1.794722
    131          1           0       -9.944790    1.786220    0.632524
    132          1           0       -9.051660    4.208880   -0.735963
    133          1           0      -10.361536    4.640456    0.290054
    134          1           0      -10.697114    2.167087   -1.441558
    135          1           0      -11.192218    4.062019   -3.334233
    136          1           0       -9.871313    2.892560   -3.149554
    137          1           0       -9.662032    4.611822   -2.571903
    138          1           0      -12.653866    4.368348   -1.697839
    139          1           0      -12.563630    3.493609   -0.155614
    140          1           0      -12.787189    2.637457   -1.644300
 ---------------------------------------------------------------------

 SCF Done:  E(RCAM-B3LYP) =  -3007.15010854     A.U. after   15 cycles

 Excitation energies and oscillator strengths:

 Excited State   1:      Singlet-A      1.6247 eV  763.14 nm  f=0.3725  <S**2>=0.000
     245 -> 248       -0.16952
     246 -> 247        0.68952
     245 <- 248       -0.10802
 This state for optimization and/or second-order correction.
 Total Energy, E(TD-HF/TD-DFT) =  -3007.09040336
 Copying the excited state density for this state as the 1-particle RhoCI density.

 Excited State   2:      Singlet-A      2.1826 eV  568.06 nm  f=0.1298  <S**2>=0.000
     245 -> 247        0.64621
     246 -> 248        0.27253

 Excited State   3:      Singlet-A      3.1627 eV  392.01 nm  f=0.0035  <S**2>=0.000
     243 -> 247        0.68554

 Excited State   4:      Singlet-A      3.2921 eV  376.61 nm  f=0.0208  <S**2>=0.000
     241 -> 247        0.26323
     241 -> 249       -0.10309
     241 -> 250        0.10568
     241 -> 251       -0.13354
     242 -> 247        0.51141
     242 -> 249       -0.11835
     242 -> 250        0.11365
     242 -> 251       -0.12320
     246 -> 248       -0.21815

 Excited State   5:      Singlet-A      3.4706 eV  357.24 nm  f=0.0995  <S**2>=0.000
     241 -> 247        0.53043
     242 -> 247       -0.21784
     245 -> 247       -0.10768
     246 -> 248        0.33907

 The electronic state is 1-A.
 Alpha  occ. eigenvalues --  -46.89989 -19.26323 -19.26194 -19.20555 -19.19827
 Alpha  occ. eigenvalues --  -19.19058 -19.18543 -14.42916 -14.42253 -14.40580
 Alpha  occ. eigenvalues --  -14.39882 -10.40329 -10.39365 -10.35483 -10.34568
 Alpha  occ. eigenvalues --  -10.32050 -10.31725 -10.31686 -10.31610 -10.31598
 Alpha  occ. eigenvalues --  -10.31321 -10.31212 -10.31087 -10.29945 -10.29873
 Alpha  occ. eigenvalues --  -10.29240 -10.28944 -10.28724 -10.28705 -10.28309
 Alpha  occ. eigenvalues --  -10.28220 -10.27945 -10.27827 -10.27766 -10.27735
 Alpha  occ. eigenvalues --  -10.27669 -10.27618 -10.27195 -10.27000 -10.26810
 Alpha  occ. eigenvalues --  -10.26794 -10.26505 -10.26376 -10.26337 -10.26267
 Alpha  occ. eigenvalues --  -10.25884 -10.25859 -10.25823 -10.25788 -10.25578
 Alpha  occ. eigenvalues --  -10.25476 -10.25447 -10.25421 -10.25296 -10.25121
 Alpha  occ. eigenvalues --  -10.25003 -10.24976 -10.24563 -10.24537 -10.24507
 Alpha  occ. eigenvalues --  -10.24435 -10.24416 -10.24168 -10.24164 -10.23690
 Alpha  occ. eigenvalues --  -10.23526  -3.18475  -1.93316  -1.92947  -1.92773
 Alpha  occ. eigenvalues --   -1.17610  -1.17009  -1.11232  -1.09182  -1.07563
 Alpha  occ. eigenvalues --   -1.07317  -1.05139  -1.04186  -1.02833  -1.01649
 Alpha  occ. eigenvalues --   -0.93339  -0.90978  -0.90363  -0.89445  -0.89244
 Alpha  occ. eigenvalues --   -0.88810  -0.88772  -0.87936  -0.87461  -0.87232
 Alpha  occ. eigenvalues --   -0.86190  -0.85058  -0.84835  -0.84168  -0.83658
 Alpha  occ. eigenvalues --   -0.82859  -0.81966  -0.81202  -0.81110  -0.80390
 Alpha  occ. eigenvalues --   -0.79549  -0.78729  -0.77817  -0.77229  -0.76217
 Alpha  occ. eigenvalues --   -0.75498  -0.75354  -0.75321  -0.74644  -0.74041
 Alpha  occ. eigenvalues --   -0.73752  -0.73265  -0.72193  -0.70747  -0.69059
 Alpha  occ. eigenvalues --   -0.68995  -0.68238  -0.67357  -0.66628  -0.66388
 Alpha  occ. eigenvalues --   -0.65463  -0.65285  -0.65133  -0.64981  -0.64430
 Alpha  occ. eigenvalues --   -0.63755  -0.63376  -0.63008  -0.62412  -0.60917
 Alpha  occ. eigenvalues --   -0.60309  -0.59718  -0.59430  -0.58679  -0.58147
 Alpha  occ. eigenvalues --   -0.57731  -0.57471  -0.56507  -0.55977  -0.55761
 Alpha  occ. eigenvalues --   -0.55616  -0.55368  -0.55102  -0.54483  -0.53822
 Alpha  occ. eigenvalues --   -0.53781  -0.53439  -0.53378  -0.53101  -0.52982
 Alpha  occ. eigenvalues --   -0.52733  -0.52537  -0.52348  -0.51994  -0.51959
 Alpha  occ. eigenvalues --   -0.51425  -0.51244  -0.51130  -0.51089  -0.50646
 Alpha  occ. eigenvalues --   -0.50216  -0.50127  -0.49899  -0.49846  -0.49576
 Alpha  occ. eigenvalues --   -0.49538  -0.49165  -0.49128  -0.48906  -0.48614
 Alpha  occ. eigenvalues --   -0.48386  -0.48090  -0.47971  -0.47922  -0.47755
 Alpha  occ. eigenvalues --   -0.47553  -0.47463  -0.47345  -0.47016  -0.46779
 Alpha  occ. eigenvalues --   -0.46541  -0.46400  -0.46022  -0.45802  -0.45664
 Alpha  occ. eigenvalues --   -0.45599  -0.45517  -0.45331  -0.45227  -0.45016
 Alpha  occ. eigenvalues --   -0.44786  -0.44602  -0.44431  -0.44258  -0.44177
 Alpha  occ. eigenvalues --   -0.44102  -0.43656  -0.43590  -0.43570  -0.43472
 Alpha  occ. eigenvalues --   -0.43145  -0.42937  -0.42909  -0.42680  -0.42385
 Alpha  occ. eigenvalues --   -0.42163  -0.41670  -0.41587  -0.41353  -0.41200
 Alpha  occ. eigenvalues --   -0.40908  -0.40646  -0.40548  -0.40411  -0.40371
 Alpha  occ. eigenvalues --   -0.40264  -0.39808  -0.39298  -0.39034  -0.38773
 Alpha  occ. eigenvalues --   -0.38378  -0.38029  -0.37900  -0.37657  -0.37492
 Alpha  occ. eigenvalues --   -0.37280  -0.36834  -0.36806  -0.36750  -0.36682
 Alpha  occ. eigenvalues --   -0.36252  -0.35866  -0.35019  -0.34772  -0.34674
 Alpha  occ. eigenvalues --   -0.34239  -0.34120  -0.33195  -0.31716  -0.31138
 Alpha  occ. eigenvalues --   -0.30768  -0.30469  -0.29916  -0.29665  -0.24746
 Alpha  occ. eigenvalues --   -0.21662
 Alpha virt. eigenvalues --   -0.09654  -0.02141  -0.00211   0.00581   0.02324
 Alpha virt. eigenvalues --    0.03761   0.04832   0.05043   0.05841   0.07216
 Alpha virt. eigenvalues --    0.07662   0.08242   0.08764   0.09194   0.09241

 Mulliken charges:
               1
     1  Mg   0.828667
     2  C    0.049993
     3  C   -0.055327
     4  C   -0.069339
     5  C   -0.103730
     6  N   -0.218440
     7  C   -0.037888
     8  C   -0.001709
     9  C   -0.069772
    10  C    0.012703
    11  C    0.088247
    12  C    0.036987
    13  C    0.082094
    14  C    0.191653
    15  O   -0.263219
    16  O   -0.319612
    17  N   -0.376052
    18  C    0.118570
    19  C   -0.139778
    20  C   -0.042690
    21  C    0.150391
    22  C    0.101808
    23  C   -0.015257
    24  O   -0.191758
    25  C    0.030613
    26  N   -0.359745
    27  C    0.094104
    28  C   -0.035417
    29  C   -0.040335
    30  C    0.069327
    31  C    0.028977
    32  C    0.005367
    33  C   -0.001908
    34  N   -0.341627
    35  C    0.196702
    36  C   -0.196886
    37  C    0.055736
    38  C    0.017120
    39  C    0.136896
    40  C    0.060407
    41  O   -0.174856
    42  C   -0.032676
    43  C    0.199737
    44  O   -0.231622
    45  O   -0.311831
    46  C    0.179526
    47  C    0.281541
    48  C   -0.117702
    49  C   -0.155299
    50  C    0.096478
    51  C    0.067798
    52  C    0.033681
    53  C    0.048402
    54  C   -0.172952
    55  C    0.057538
    56  C    0.055264
    57  C   -0.022805
    58  C    0.102208
    59  C   -0.136591
    60  C    0.036943
    61  C    0.041516
    62  C    0.041507
    63  C    0.030588
    64  C   -0.164032
    65  C    0.050044
    66  C    0.056599
    67  H   -0.021050
    68  H   -0.048546
    69  H   -0.023313
    70  H   -0.001848
    71  H    0.012917
    72  H    0.010671
    73  H    0.004008
    74  H    0.023846
    75  H    0.014761
    76  H    0.024782
    77  H    0.018961
    78  H    0.022925
    79  H    0.006689
    80  H    0.039111
    81  H    0.040247
    82  H    0.043963
    83  H    0.042571
    84  H    0.038034
    85  H    0.026737
    86  H    0.005621
    87  H    0.020117
    88  H    0.008245
    89  H    0.003382
    90  H    0.008320
    91  H    0.006364
    92  H    0.001627
    93  H    0.018732
    94  H    0.022887
    95  H    0.036348
    96  H    0.041089
    97  H    0.005302
    98  H    0.050510
    99  H    0.037971
   100  H    0.037003
   101  H    0.031051
   102  H    0.034614
   103  H    0.030485
   104  H   -0.007331
   105  H    0.013721
   106  H    0.023408
   107  H   -0.001233
   108  H    0.005733
   109  H   -0.003938
   110  H    0.003115
   111  H   -0.007979
   112  H   -0.006106
   113  H   -0.005231
   114  H    0.000910
   115  H    0.010802
   116  H    0.002921
   117  H    0.005470
   118  H    0.007508
   119  H   -0.004680
   120  H   -0.003100
   121  H   -0.005428
   122  H   -0.015345
   123  H   -0.014803
   124  H    0.000466
   125  H    0.008796
   126  H   -0.003383
   127  H    0.008662
   128  H    0.002180
   129  H   -0.017909
   130  H    0.002414
   131  H    0.000023
   132  H   -0.015101
   133  H   -0.010362
   134  H   -0.007735
   135  H    0.000831
   136  H    0.012352
   137  H    0.011754
   138  H    0.005273
   139  H   -0.003292
   140  H   -0.003389
 Sum of Mulliken charges =  -0.00000

 Dipole moment (field-independent basis, Debye):
    X=              0.2785    Y=              3.7663    Z=             -0.4141  Tot=              3.7992
 Quadrupole moment (field-independent basis, Debye-Ang):
   XX=           -401.4419   YY=           -427.4384   ZZ=           -391.2981
   XY=             53.6873   XZ=            -13.3667   YZ=             26.0192

 Normal termination of Gaussian 16 at Thu Apr 28 04:31:10 2022.
