 Gaussian 16, Revision A.03,
 Gaussian 16:  ES64L-G16RevA.03 25-Dec-2016

 ---------------------------------
 #p PBE1PBE/Def2SVP td=(nstates=5)
 ---------------------------------

 ------------------------------------------------------
 step_1451_chromophore_20 TDDFT with PBE1PBE functional
 ------------------------------------------------------
 Symbolic Z-matrix:
 Charge =  0 Multiplicity = 1

                         Standard orientation:
 ---------------------------------------------------------------------
 Center     Atomic      Atomic             Coordinates (Angstroms)
 Number     Number       Type             X           Y           Z
 ---------------------------------------------------------------------
      1         12           0        3.947785    1.693046   -0.506025
      2          6           0        4.523157   -1.836952   -0.670603
      3          6           0        1.550492    1.225954   -3.092940
      4          6           0        2.818430    4.881487    0.036806
      5          6           0        5.821350    1.746875    2.337875
      6          7           0        3.033093   -0.136031   -1.648443
      7          6           0        3.513587   -1.420095   -1.585973
      8          6           0        2.682588   -2.269751   -2.564161
      9          6           0        2.110950   -1.266643   -3.556271
     10          6           0        2.218470    0.031497   -2.682101
     11          6           0        2.553611   -1.147875   -5.022320
     12          6           0        1.540848   -3.087366   -1.861500
     13          6           0        0.735446   -3.936184   -2.837928
     14          6           0       -0.110418   -5.073720   -2.256568
     15          8           0        0.144156   -6.298825   -2.305241
     16          8           0       -1.187956   -4.536124   -1.626698
     17          7           0        2.470491    2.911878   -1.396273
     18          6           0        1.606936    2.548229   -2.430697
     19          6           0        0.832952    3.718389   -2.893941
     20          6           0        1.201283    4.839722   -1.982712
     21          6           0        2.177528    4.221769   -1.060213
     22          6           0       -0.242172    3.671571   -4.026699
     23          6           0        0.647590    6.266474   -2.029788
     24          8           0       -0.200714    6.585927   -2.826540
     25          6           0        1.239808    7.470473   -1.235704
     26          7           0        3.945194    2.943830    1.149213
     27          6           0        3.595867    4.298055    1.013274
     28          6           0        4.108767    5.090679    2.186504
     29          6           0        5.167529    4.113645    2.858763
     30          6           0        5.012338    2.807549    2.017505
     31          6           0        4.889536    6.317618    1.703651
     32          6           0        4.891223    3.890972    4.382170
     33          6           0        5.940393    4.372521    5.412626
     34          7           0        4.999181    0.276462    0.594175
     35          6           0        5.755741    0.481717    1.769837
     36          6           0        6.393721   -0.708309    2.156315
     37          6           0        6.034297   -1.647694    1.239707
     38          6           0        5.094544   -1.013643    0.325402
     39          6           0        7.315027   -0.902109    3.343588
     40          6           0        6.067920   -3.026195    0.816570
     41          8           0        6.733909   -3.980565    1.210761
     42          6           0        5.237634   -3.109027   -0.526442
     43          6           0        4.500117   -4.414235   -0.502598
     44          8           0        3.940862   -4.885357    0.499505
     45          8           0        4.523417   -4.937109   -1.750357
     46          6           0        3.728700   -6.158756   -1.868533
     47          6           0       -1.791397   -5.522784   -0.746785
     48          6           0       -2.915340   -4.875123   -0.108060
     49          6           0       -3.889862   -5.381939    0.669222
     50          6           0       -4.095342   -6.867884    0.745329
     51          6           0       -5.007821   -4.561536    1.318777
     52          6           0       -5.084619   -4.480018    2.808811
     53          6           0       -6.423678   -3.800271    3.305682
     54          6           0       -6.148949   -2.366545    3.947554
     55          6           0       -6.369971   -2.373844    5.508721
     56          6           0       -7.024714   -1.270693    3.341954
     57          6           0       -6.703065   -1.073268    1.793258
     58          6           0       -6.451321    0.381688    1.302069
     59          6           0       -7.599879    1.019295    0.546227
     60          6           0       -7.372711    1.269175   -0.990825
     61          6           0       -8.036539    2.484761    1.062936
     62          6           0       -9.513033    2.748858    0.909696
     63          6           0       -9.913436    3.786227   -0.218154
     64          6           0      -10.799740    3.249752   -1.363339
     65          6           0      -10.343280    3.773575   -2.714958
     66          6           0      -12.257093    3.481925   -1.201810
     67          1           0        0.913603    1.199823   -3.979470
     68          1           0        2.539323    5.924777    0.194229
     69          1           0        6.466634    2.056525    3.161618
     70          1           0        3.315650   -2.939123   -3.145903
     71          1           0        1.022064   -1.225423   -3.558780
     72          1           0        3.106149   -1.979947   -5.458275
     73          1           0        3.357742   -0.432424   -5.200149
     74          1           0        1.746191   -0.863137   -5.697662
     75          1           0        0.822900   -2.451208   -1.343044
     76          1           0        2.008720   -3.719536   -1.106840
     77          1           0        1.422990   -4.217857   -3.635358
     78          1           0        0.001453   -3.219017   -3.206834
     79          1           0        0.028342    3.042482   -4.874262
     80          1           0       -0.352231    4.643491   -4.507745
     81          1           0       -1.192076    3.267788   -3.673728
     82          1           0        0.786610    7.389286   -0.246975
     83          1           0        0.877087    8.263998   -1.890756
     84          1           0        2.326499    7.462578   -1.150626
     85          1           0        3.371833    5.459510    2.898791
     86          1           0        6.115487    4.651217    2.886434
     87          1           0        5.894171    6.524243    2.072697
     88          1           0        4.344426    7.260662    1.727439
     89          1           0        5.045725    6.187702    0.632182
     90          1           0        4.898966    2.812040    4.535618
     91          1           0        3.896500    4.248905    4.645839
     92          1           0        6.911887    4.544458    4.948050
     93          1           0        6.165333    3.589532    6.136426
     94          1           0        5.644595    5.313005    5.877219
     95          1           0        8.280886   -1.304472    3.037886
     96          1           0        6.809222   -1.650910    3.952094
     97          1           0        7.490249    0.020067    3.898376
     98          1           0        5.986532   -3.113804   -1.319054
     99          1           0        3.868606   -6.448070   -2.910810
    100          1           0        2.691293   -6.125120   -1.535880
    101          1           0        4.050345   -6.975673   -1.222571
    102          1           0       -1.049812   -5.907210   -0.046025
    103          1           0       -2.006275   -6.416707   -1.332039
    104          1           0       -2.882255   -3.785451   -0.104671
    105          1           0       -3.921905   -7.168097    1.778179
    106          1           0       -3.576842   -7.493875    0.019255
    107          1           0       -5.175804   -7.005226    0.694512
    108          1           0       -5.953412   -5.009201    1.013758
    109          1           0       -4.919818   -3.537288    0.955596
    110          1           0       -4.301742   -3.848723    3.228135
    111          1           0       -5.001765   -5.477350    3.240784
    112          1           0       -6.905605   -4.386907    4.089184
    113          1           0       -7.174733   -3.709169    2.520915
    114          1           0       -5.130587   -2.060372    3.709678
    115          1           0       -7.136826   -1.649571    5.784482
    116          1           0       -5.461388   -2.076473    6.033272
    117          1           0       -6.551077   -3.368365    5.918638
    118          1           0       -6.959301   -0.338807    3.903928
    119          1           0       -8.006188   -1.744685    3.380005
    120          1           0       -7.433566   -1.610902    1.188555
    121          1           0       -5.784512   -1.607093    1.551821
    122          1           0       -5.526544    0.418563    0.726089
    123          1           0       -6.171021    0.956023    2.184160
    124          1           0       -8.404363    0.283701    0.517107
    125          1           0       -7.618754    0.368572   -1.553163
    126          1           0       -6.324523    1.526839   -1.138216
    127          1           0       -7.873486    2.159986   -1.371211
    128          1           0       -7.411440    3.269783    0.638650
    129          1           0       -7.855990    2.514361    2.137038
    130          1           0       -9.981351    3.177758    1.794722
    131          1           0       -9.944790    1.786220    0.632524
    132          1           0       -9.051660    4.208880   -0.735963
    133          1           0      -10.361536    4.640456    0.290054
    134          1           0      -10.697114    2.167087   -1.441558
    135          1           0      -11.192218    4.062019   -3.334233
    136          1           0       -9.871313    2.892560   -3.149554
    137          1           0       -9.662032    4.611822   -2.571903
    138          1           0      -12.653866    4.368348   -1.697839
    139          1           0      -12.563630    3.493609   -0.155614
    140          1           0      -12.787189    2.637457   -1.644300
 ---------------------------------------------------------------------

 SCF Done:  E(RPBE1PBE) =  -3005.33959627     A.U. after   16 cycles

 Excitation energies and oscillator strengths:

 Excited State   1:      Singlet-A      1.7879 eV  693.48 nm  f=0.3535  <S**2>=0.000
     245 -> 248       -0.16312
     246 -> 247        0.69738
     246 <- 247       -0.11985
 This state for optimization and/or second-order correction.
 Total Energy, E(TD-HF/TD-DFT) =  -3005.27389353
 Copying the excited state density for this state as the 1-particle RhoCI density.

 Excited State   2:      Singlet-A      2.1772 eV  569.47 nm  f=0.1286  <S**2>=0.000
     245 -> 247        0.65517
     246 -> 248        0.24563

 Excited State   3:      Singlet-A      2.7717 eV  447.33 nm  f=0.0010  <S**2>=0.000
     242 -> 247        0.56393
     242 -> 249        0.11751
     243 -> 247       -0.37616

 Excited State   4:      Singlet-A      2.8491 eV  435.16 nm  f=0.0047  <S**2>=0.000
     242 -> 247        0.36357
     243 -> 247        0.58703

 Excited State   5:      Singlet-A      2.9669 eV  417.88 nm  f=0.0004  <S**2>=0.000
     241 -> 247        0.68360
     241 -> 249       -0.13689

 The electronic state is 1-A.
 Alpha  occ. eigenvalues --  -46.93389 -19.26966 -19.26867 -19.20875 -19.20109
 Alpha  occ. eigenvalues --  -19.19233 -19.18837 -14.42303 -14.41912 -14.40205
 Alpha  occ. eigenvalues --  -14.39566 -10.37383 -10.36407 -10.32618 -10.31767
 Alpha  occ. eigenvalues --  -10.29846 -10.29398 -10.29279 -10.29167 -10.29063
 Alpha  occ. eigenvalues --  -10.29036 -10.28991 -10.28320 -10.27654 -10.27559
 Alpha  occ. eigenvalues --  -10.27013 -10.26646 -10.26526 -10.26230 -10.26086
 Alpha  occ. eigenvalues --  -10.25939 -10.25658 -10.25590 -10.25532 -10.25489
 Alpha  occ. eigenvalues --  -10.25250 -10.25227 -10.24905 -10.24558 -10.24436
 Alpha  occ. eigenvalues --  -10.24433 -10.23968 -10.23879 -10.23826 -10.23683
 Alpha  occ. eigenvalues --  -10.23553 -10.23400 -10.23332 -10.23315 -10.23282
 Alpha  occ. eigenvalues --  -10.23068 -10.23031 -10.22975 -10.22862 -10.22627
 Alpha  occ. eigenvalues --  -10.22580 -10.22543 -10.22102 -10.22096 -10.22035
 Alpha  occ. eigenvalues --  -10.21952 -10.21922 -10.21731 -10.21538 -10.21071
 Alpha  occ. eigenvalues --  -10.20863  -3.15454  -1.88233  -1.87846  -1.87674
 Alpha  occ. eigenvalues --   -1.12433  -1.11799  -1.05957  -1.03960  -1.02413
 Alpha  occ. eigenvalues --   -1.02152  -0.99748  -0.98882  -0.97443  -0.96262
 Alpha  occ. eigenvalues --   -0.87704  -0.85133  -0.84532  -0.83613  -0.83517
 Alpha  occ. eigenvalues --   -0.83132  -0.82877  -0.82324  -0.81625  -0.81492
 Alpha  occ. eigenvalues --   -0.80425  -0.79270  -0.79088  -0.78460  -0.77910
 Alpha  occ. eigenvalues --   -0.77013  -0.76249  -0.75454  -0.75330  -0.74633
 Alpha  occ. eigenvalues --   -0.73673  -0.72989  -0.72112  -0.71536  -0.70534
 Alpha  occ. eigenvalues --   -0.69708  -0.69629  -0.69392  -0.68776  -0.68182
 Alpha  occ. eigenvalues --   -0.68127  -0.67630  -0.66599  -0.65054  -0.63531
 Alpha  occ. eigenvalues --   -0.63437  -0.62458  -0.61782  -0.61059  -0.60643
 Alpha  occ. eigenvalues --   -0.59869  -0.59777  -0.59476  -0.59333  -0.59002
 Alpha  occ. eigenvalues --   -0.57918  -0.57860  -0.57141  -0.56573  -0.55344
 Alpha  occ. eigenvalues --   -0.54849  -0.54341  -0.54054  -0.53244  -0.52608
 Alpha  occ. eigenvalues --   -0.52294  -0.51924  -0.51136  -0.50394  -0.50227
 Alpha  occ. eigenvalues --   -0.50219  -0.49868  -0.49641  -0.49000  -0.48472
 Alpha  occ. eigenvalues --   -0.48158  -0.48120  -0.47922  -0.47544  -0.47460
 Alpha  occ. eigenvalues --   -0.47290  -0.47129  -0.46921  -0.46422  -0.46392
 Alpha  occ. eigenvalues --   -0.45992  -0.45905  -0.45725  -0.45638  -0.45160
 Alpha  occ. eigenvalues --   -0.44786  -0.44731  -0.44490  -0.44363  -0.44232
 Alpha  occ. eigenvalues --   -0.44051  -0.43778  -0.43699  -0.43485  -0.43193
 Alpha  occ. eigenvalues --   -0.42956  -0.42792  -0.42671  -0.42510  -0.42359
 Alpha  occ. eigenvalues --   -0.42281  -0.42213  -0.41972  -0.41713  -0.41445
 Alpha  occ. eigenvalues --   -0.41278  -0.41077  -0.40768  -0.40472  -0.40279
 Alpha  occ. eigenvalues --   -0.40205  -0.40116  -0.39991  -0.39924  -0.39653
 Alpha  occ. eigenvalues --   -0.39488  -0.39333  -0.39243  -0.39005  -0.38933
 Alpha  occ. eigenvalues --   -0.38861  -0.38450  -0.38432  -0.38316  -0.38311
 Alpha  occ. eigenvalues --   -0.37965  -0.37792  -0.37622  -0.37490  -0.37098
 Alpha  occ. eigenvalues --   -0.36987  -0.36512  -0.36418  -0.36085  -0.36044
 Alpha  occ. eigenvalues --   -0.35610  -0.35589  -0.35345  -0.35323  -0.35188
 Alpha  occ. eigenvalues --   -0.35000  -0.34750  -0.34044  -0.33816  -0.33602
 Alpha  occ. eigenvalues --   -0.33375  -0.32923  -0.32787  -0.32602  -0.32573
 Alpha  occ. eigenvalues --   -0.32064  -0.31757  -0.31659  -0.31599  -0.31478
 Alpha  occ. eigenvalues --   -0.31320  -0.30808  -0.29977  -0.29934  -0.29707
 Alpha  occ. eigenvalues --   -0.29086  -0.29003  -0.28643  -0.27332  -0.26298
 Alpha  occ. eigenvalues --   -0.25902  -0.25545  -0.25443  -0.24974  -0.21638
 Alpha  occ. eigenvalues --   -0.19321
 Alpha virt. eigenvalues --   -0.12061  -0.05660  -0.04200  -0.02422  -0.02077
 Alpha virt. eigenvalues --   -0.00855   0.00104   0.00670   0.01438   0.02990
 Alpha virt. eigenvalues --    0.03967   0.04463   0.05061   0.05866   0.05966

 Mulliken charges:
               1
     1  Mg   0.968186
     2  C    0.028235
     3  C   -0.047388
     4  C   -0.059084
     5  C   -0.089766
     6  N   -0.321900
     7  C    0.047281
     8  C   -0.082400
     9  C   -0.144570
    10  C    0.057508
    11  C    0.033743
    12  C   -0.009926
    13  C    0.002746
    14  C    0.253135
    15  O   -0.295460
    16  O   -0.348961
    17  N   -0.485407
    18  C    0.139246
    19  C   -0.159885
    20  C   -0.085917
    21  C    0.170754
    22  C    0.043594
    23  C    0.036573
    24  O   -0.225590
    25  C   -0.049544
    26  N   -0.455368
    27  C    0.120514
    28  C   -0.117270
    29  C   -0.109772
    30  C    0.093171
    31  C   -0.025119
    32  C   -0.050960
    33  C   -0.073248
    34  N   -0.467650
    35  C    0.207531
    36  C   -0.215134
    37  C    0.002175
    38  C    0.078099
    39  C    0.087029
    40  C    0.162832
    41  O   -0.218680
    42  C   -0.146263
    43  C    0.286491
    44  O   -0.265830
    45  O   -0.344583
    46  C    0.121554
    47  C    0.244156
    48  C   -0.129802
    49  C   -0.194776
    50  C    0.034247
    51  C   -0.009044
    52  C   -0.030994
    53  C   -0.002525
    54  C   -0.257337
    55  C   -0.000561
    56  C   -0.003151
    57  C   -0.092043
    58  C    0.055619
    59  C   -0.220783
    60  C   -0.023886
    61  C   -0.020994
    62  C   -0.019517
    63  C   -0.023552
    64  C   -0.255080
    65  C   -0.011602
    66  C   -0.004308
    67  H    0.008679
    68  H   -0.011986
    69  H    0.010574
    70  H    0.037272
    71  H    0.051139
    72  H    0.037518
    73  H    0.031631
    74  H    0.049667
    75  H    0.047212
    76  H    0.063171
    77  H    0.050651
    78  H    0.056736
    79  H    0.032732
    80  H    0.065786
    81  H    0.067248
    82  H    0.070977
    83  H    0.069999
    84  H    0.063558
    85  H    0.061291
    86  H    0.042426
    87  H    0.046916
    88  H    0.036343
    89  H    0.032819
    90  H    0.042449
    91  H    0.038644
    92  H    0.028237
    93  H    0.046052
    94  H    0.050891
    95  H    0.063692
    96  H    0.068932
    97  H    0.032579
    98  H    0.088379
    99  H    0.059431
   100  H    0.062217
   101  H    0.053756
   102  H    0.061491
   103  H    0.056253
   104  H    0.023476
   105  H    0.042798
   106  H    0.049653
   107  H    0.026831
   108  H    0.038500
   109  H    0.032677
   110  H    0.036360
   111  H    0.025595
   112  H    0.026584
   113  H    0.026181
   114  H    0.038269
   115  H    0.037499
   116  H    0.031100
   117  H    0.031946
   118  H    0.038448
   119  H    0.030712
   120  H    0.027756
   121  H    0.033209
   122  H    0.016289
   123  H    0.017330
   124  H    0.036958
   125  H    0.036191
   126  H    0.024721
   127  H    0.041439
   128  H    0.034119
   129  H    0.016438
   130  H    0.034542
   131  H    0.033041
   132  H    0.015114
   133  H    0.022357
   134  H    0.029991
   135  H    0.028763
   136  H    0.039265
   137  H    0.038801
   138  H    0.032418
   139  H    0.025353
   140  H    0.025125
 Sum of Mulliken charges =  -0.00000

 Dipole moment (field-independent basis, Debye):
    X=              0.4234    Y=              3.7315    Z=             -0.2203  Tot=              3.7619
 Quadrupole moment (field-independent basis, Debye-Ang):
   XX=           -397.3108   YY=           -424.1417   ZZ=           -387.3644
   XY=             54.3109   XZ=            -12.1483   YZ=             26.9008

 Normal termination of Gaussian 16 at Thu Apr 28 04:46:34 2022.
