 Gaussian 16, Revision A.03,
 Gaussian 16:  ES64L-G16RevA.03 25-Dec-2016

 --------------------------------
 #p wB97XD/Def2SVP td=(nstates=5)
 --------------------------------

 -----------------------------------------------------
 step_1451_chromophore_20 TDDFT with wB97XD functional
 -----------------------------------------------------
 Symbolic Z-matrix:
 Charge =  0 Multiplicity = 1

                         Standard orientation:
 ---------------------------------------------------------------------
 Center     Atomic      Atomic             Coordinates (Angstroms)
 Number     Number       Type             X           Y           Z
 ---------------------------------------------------------------------
      1         12           0        3.947785    1.693046   -0.506025
      2          6           0        4.523157   -1.836952   -0.670603
      3          6           0        1.550492    1.225954   -3.092940
      4          6           0        2.818430    4.881487    0.036806
      5          6           0        5.821350    1.746875    2.337875
      6          7           0        3.033093   -0.136031   -1.648443
      7          6           0        3.513587   -1.420095   -1.585973
      8          6           0        2.682588   -2.269751   -2.564161
      9          6           0        2.110950   -1.266643   -3.556271
     10          6           0        2.218470    0.031497   -2.682101
     11          6           0        2.553611   -1.147875   -5.022320
     12          6           0        1.540848   -3.087366   -1.861500
     13          6           0        0.735446   -3.936184   -2.837928
     14          6           0       -0.110418   -5.073720   -2.256568
     15          8           0        0.144156   -6.298825   -2.305241
     16          8           0       -1.187956   -4.536124   -1.626698
     17          7           0        2.470491    2.911878   -1.396273
     18          6           0        1.606936    2.548229   -2.430697
     19          6           0        0.832952    3.718389   -2.893941
     20          6           0        1.201283    4.839722   -1.982712
     21          6           0        2.177528    4.221769   -1.060213
     22          6           0       -0.242172    3.671571   -4.026699
     23          6           0        0.647590    6.266474   -2.029788
     24          8           0       -0.200714    6.585927   -2.826540
     25          6           0        1.239808    7.470473   -1.235704
     26          7           0        3.945194    2.943830    1.149213
     27          6           0        3.595867    4.298055    1.013274
     28          6           0        4.108767    5.090679    2.186504
     29          6           0        5.167529    4.113645    2.858763
     30          6           0        5.012338    2.807549    2.017505
     31          6           0        4.889536    6.317618    1.703651
     32          6           0        4.891223    3.890972    4.382170
     33          6           0        5.940393    4.372521    5.412626
     34          7           0        4.999181    0.276462    0.594175
     35          6           0        5.755741    0.481717    1.769837
     36          6           0        6.393721   -0.708309    2.156315
     37          6           0        6.034297   -1.647694    1.239707
     38          6           0        5.094544   -1.013643    0.325402
     39          6           0        7.315027   -0.902109    3.343588
     40          6           0        6.067920   -3.026195    0.816570
     41          8           0        6.733909   -3.980565    1.210761
     42          6           0        5.237634   -3.109027   -0.526442
     43          6           0        4.500117   -4.414235   -0.502598
     44          8           0        3.940862   -4.885357    0.499505
     45          8           0        4.523417   -4.937109   -1.750357
     46          6           0        3.728700   -6.158756   -1.868533
     47          6           0       -1.791397   -5.522784   -0.746785
     48          6           0       -2.915340   -4.875123   -0.108060
     49          6           0       -3.889862   -5.381939    0.669222
     50          6           0       -4.095342   -6.867884    0.745329
     51          6           0       -5.007821   -4.561536    1.318777
     52          6           0       -5.084619   -4.480018    2.808811
     53          6           0       -6.423678   -3.800271    3.305682
     54          6           0       -6.148949   -2.366545    3.947554
     55          6           0       -6.369971   -2.373844    5.508721
     56          6           0       -7.024714   -1.270693    3.341954
     57          6           0       -6.703065   -1.073268    1.793258
     58          6           0       -6.451321    0.381688    1.302069
     59          6           0       -7.599879    1.019295    0.546227
     60          6           0       -7.372711    1.269175   -0.990825
     61          6           0       -8.036539    2.484761    1.062936
     62          6           0       -9.513033    2.748858    0.909696
     63          6           0       -9.913436    3.786227   -0.218154
     64          6           0      -10.799740    3.249752   -1.363339
     65          6           0      -10.343280    3.773575   -2.714958
     66          6           0      -12.257093    3.481925   -1.201810
     67          1           0        0.913603    1.199823   -3.979470
     68          1           0        2.539323    5.924777    0.194229
     69          1           0        6.466634    2.056525    3.161618
     70          1           0        3.315650   -2.939123   -3.145903
     71          1           0        1.022064   -1.225423   -3.558780
     72          1           0        3.106149   -1.979947   -5.458275
     73          1           0        3.357742   -0.432424   -5.200149
     74          1           0        1.746191   -0.863137   -5.697662
     75          1           0        0.822900   -2.451208   -1.343044
     76          1           0        2.008720   -3.719536   -1.106840
     77          1           0        1.422990   -4.217857   -3.635358
     78          1           0        0.001453   -3.219017   -3.206834
     79          1           0        0.028342    3.042482   -4.874262
     80          1           0       -0.352231    4.643491   -4.507745
     81          1           0       -1.192076    3.267788   -3.673728
     82          1           0        0.786610    7.389286   -0.246975
     83          1           0        0.877087    8.263998   -1.890756
     84          1           0        2.326499    7.462578   -1.150626
     85          1           0        3.371833    5.459510    2.898791
     86          1           0        6.115487    4.651217    2.886434
     87          1           0        5.894171    6.524243    2.072697
     88          1           0        4.344426    7.260662    1.727439
     89          1           0        5.045725    6.187702    0.632182
     90          1           0        4.898966    2.812040    4.535618
     91          1           0        3.896500    4.248905    4.645839
     92          1           0        6.911887    4.544458    4.948050
     93          1           0        6.165333    3.589532    6.136426
     94          1           0        5.644595    5.313005    5.877219
     95          1           0        8.280886   -1.304472    3.037886
     96          1           0        6.809222   -1.650910    3.952094
     97          1           0        7.490249    0.020067    3.898376
     98          1           0        5.986532   -3.113804   -1.319054
     99          1           0        3.868606   -6.448070   -2.910810
    100          1           0        2.691293   -6.125120   -1.535880
    101          1           0        4.050345   -6.975673   -1.222571
    102          1           0       -1.049812   -5.907210   -0.046025
    103          1           0       -2.006275   -6.416707   -1.332039
    104          1           0       -2.882255   -3.785451   -0.104671
    105          1           0       -3.921905   -7.168097    1.778179
    106          1           0       -3.576842   -7.493875    0.019255
    107          1           0       -5.175804   -7.005226    0.694512
    108          1           0       -5.953412   -5.009201    1.013758
    109          1           0       -4.919818   -3.537288    0.955596
    110          1           0       -4.301742   -3.848723    3.228135
    111          1           0       -5.001765   -5.477350    3.240784
    112          1           0       -6.905605   -4.386907    4.089184
    113          1           0       -7.174733   -3.709169    2.520915
    114          1           0       -5.130587   -2.060372    3.709678
    115          1           0       -7.136826   -1.649571    5.784482
    116          1           0       -5.461388   -2.076473    6.033272
    117          1           0       -6.551077   -3.368365    5.918638
    118          1           0       -6.959301   -0.338807    3.903928
    119          1           0       -8.006188   -1.744685    3.380005
    120          1           0       -7.433566   -1.610902    1.188555
    121          1           0       -5.784512   -1.607093    1.551821
    122          1           0       -5.526544    0.418563    0.726089
    123          1           0       -6.171021    0.956023    2.184160
    124          1           0       -8.404363    0.283701    0.517107
    125          1           0       -7.618754    0.368572   -1.553163
    126          1           0       -6.324523    1.526839   -1.138216
    127          1           0       -7.873486    2.159986   -1.371211
    128          1           0       -7.411440    3.269783    0.638650
    129          1           0       -7.855990    2.514361    2.137038
    130          1           0       -9.981351    3.177758    1.794722
    131          1           0       -9.944790    1.786220    0.632524
    132          1           0       -9.051660    4.208880   -0.735963
    133          1           0      -10.361536    4.640456    0.290054
    134          1           0      -10.697114    2.167087   -1.441558
    135          1           0      -11.192218    4.062019   -3.334233
    136          1           0       -9.871313    2.892560   -3.149554
    137          1           0       -9.662032    4.611822   -2.571903
    138          1           0      -12.653866    4.368348   -1.697839
    139          1           0      -12.563630    3.493609   -0.155614
    140          1           0      -12.787189    2.637457   -1.644300
 ---------------------------------------------------------------------

 SCF Done:  E(RwB97XD) =  -3007.84786279     A.U. after   18 cycles

 Excitation energies and oscillator strengths:

 Excited State   1:      Singlet-A      1.5655 eV  791.99 nm  f=0.3725  <S**2>=0.000
     245 -> 248       -0.17517
     246 -> 247        0.68703
     245 <- 248       -0.11707
 This state for optimization and/or second-order correction.
 Total Energy, E(TD-HF/TD-DFT) =  -3007.79033255
 Copying the excited state density for this state as the 1-particle RhoCI density.

 Excited State   2:      Singlet-A      2.1276 eV  582.75 nm  f=0.1253  <S**2>=0.000
     245 -> 247        0.64390
     246 -> 248        0.27554

 Excited State   3:      Singlet-A      3.1874 eV  388.98 nm  f=0.0024  <S**2>=0.000
     243 -> 247        0.68018

 Excited State   4:      Singlet-A      3.3294 eV  372.40 nm  f=0.0382  <S**2>=0.000
     242 -> 247        0.55150
     242 -> 249       -0.20023
     242 -> 251       -0.15220
     246 -> 248       -0.25857

 Excited State   5:      Singlet-A      3.4956 eV  354.69 nm  f=0.1406  <S**2>=0.000
     241 -> 247        0.54268
     241 -> 249       -0.12757
     242 -> 251        0.10484
     245 -> 247        0.12384
     246 -> 248       -0.36314

 The electronic state is 1-A.
 Alpha  occ. eigenvalues --  -46.96350 -19.31548 -19.31425 -19.25520 -19.24794
 Alpha  occ. eigenvalues --  -19.24087 -19.23599 -14.47539 -14.46840 -14.45213
 Alpha  occ. eigenvalues --  -14.44463 -10.44165 -10.43231 -10.39480 -10.38588
 Alpha  occ. eigenvalues --  -10.36079 -10.35776 -10.35701 -10.35666 -10.35551
 Alpha  occ. eigenvalues --  -10.35441 -10.35209 -10.34858 -10.34197 -10.33850
 Alpha  occ. eigenvalues --  -10.33209 -10.33096 -10.32864 -10.32805 -10.32389
 Alpha  occ. eigenvalues --  -10.32381 -10.31975 -10.31866 -10.31787 -10.31728
 Alpha  occ. eigenvalues --  -10.31688 -10.31599 -10.31236 -10.30882 -10.30792
 Alpha  occ. eigenvalues --  -10.30782 -10.30475 -10.30282 -10.30197 -10.30185
 Alpha  occ. eigenvalues --  -10.29804 -10.29774 -10.29728 -10.29672 -10.29564
 Alpha  occ. eigenvalues --  -10.29371 -10.29358 -10.29315 -10.29307 -10.29032
 Alpha  occ. eigenvalues --  -10.28950 -10.28901 -10.28482 -10.28455 -10.28333
 Alpha  occ. eigenvalues --  -10.28332 -10.28327 -10.28096 -10.27990 -10.27495
 Alpha  occ. eigenvalues --  -10.27317  -3.22296  -1.95820  -1.95433  -1.95259
 Alpha  occ. eigenvalues --   -1.19800  -1.19198  -1.13469  -1.11404  -1.09758
 Alpha  occ. eigenvalues --   -1.09525  -1.07150  -1.06208  -1.04837  -1.03707
 Alpha  occ. eigenvalues --   -0.95321  -0.92804  -0.92193  -0.91195  -0.91174
 Alpha  occ. eigenvalues --   -0.90663  -0.90540  -0.89865  -0.89269  -0.89147
 Alpha  occ. eigenvalues --   -0.88082  -0.87055  -0.86725  -0.86060  -0.85553
 Alpha  occ. eigenvalues --   -0.84680  -0.83883  -0.83099  -0.83049  -0.82344
 Alpha  occ. eigenvalues --   -0.81354  -0.80629  -0.79775  -0.79160  -0.78173
 Alpha  occ. eigenvalues --   -0.77341  -0.77265  -0.77094  -0.76458  -0.75858
 Alpha  occ. eigenvalues --   -0.75708  -0.75222  -0.74160  -0.72676  -0.71002
 Alpha  occ. eigenvalues --   -0.70985  -0.70098  -0.69370  -0.68579  -0.68275
 Alpha  occ. eigenvalues --   -0.67391  -0.67244  -0.66981  -0.66958  -0.66442
 Alpha  occ. eigenvalues --   -0.65548  -0.65348  -0.64813  -0.64222  -0.62838
 Alpha  occ. eigenvalues --   -0.62296  -0.61719  -0.61447  -0.60660  -0.60107
 Alpha  occ. eigenvalues --   -0.59703  -0.59419  -0.58488  -0.57891  -0.57718
 Alpha  occ. eigenvalues --   -0.57586  -0.57294  -0.57062  -0.56426  -0.55777
 Alpha  occ. eigenvalues --   -0.55622  -0.55387  -0.55315  -0.54957  -0.54886
 Alpha  occ. eigenvalues --   -0.54645  -0.54462  -0.54279  -0.53938  -0.53804
 Alpha  occ. eigenvalues --   -0.53370  -0.53164  -0.53068  -0.52981  -0.52507
 Alpha  occ. eigenvalues --   -0.52115  -0.52041  -0.51806  -0.51747  -0.51533
 Alpha  occ. eigenvalues --   -0.51481  -0.51104  -0.51036  -0.50897  -0.50500
 Alpha  occ. eigenvalues --   -0.50257  -0.50016  -0.49899  -0.49789  -0.49644
 Alpha  occ. eigenvalues --   -0.49466  -0.49376  -0.49219  -0.48929  -0.48753
 Alpha  occ. eigenvalues --   -0.48477  -0.48334  -0.47931  -0.47720  -0.47508
 Alpha  occ. eigenvalues --   -0.47456  -0.47385  -0.47275  -0.47125  -0.46887
 Alpha  occ. eigenvalues --   -0.46707  -0.46507  -0.46377  -0.46202  -0.46106
 Alpha  occ. eigenvalues --   -0.46020  -0.45605  -0.45530  -0.45466  -0.45387
 Alpha  occ. eigenvalues --   -0.45090  -0.44887  -0.44797  -0.44671  -0.44235
 Alpha  occ. eigenvalues --   -0.44067  -0.43610  -0.43529  -0.43206  -0.43095
 Alpha  occ. eigenvalues --   -0.42746  -0.42530  -0.42421  -0.42295  -0.42264
 Alpha  occ. eigenvalues --   -0.42120  -0.41745  -0.41136  -0.40877  -0.40625
 Alpha  occ. eigenvalues --   -0.40323  -0.39878  -0.39827  -0.39655  -0.39619
 Alpha  occ. eigenvalues --   -0.39104  -0.38815  -0.38665  -0.38574  -0.38524
 Alpha  occ. eigenvalues --   -0.38178  -0.37706  -0.36843  -0.36779  -0.36727
 Alpha  occ. eigenvalues --   -0.36152  -0.35961  -0.35387  -0.33912  -0.33097
 Alpha  occ. eigenvalues --   -0.32841  -0.32529  -0.32142  -0.31696  -0.26667
 Alpha  occ. eigenvalues --   -0.23466
 Alpha virt. eigenvalues --   -0.08022  -0.00239   0.02085   0.03587   0.04442
 Alpha virt. eigenvalues --    0.05970   0.06959   0.07420   0.08113   0.09713
 Alpha virt. eigenvalues --    0.10713   0.11063   0.11718   0.12555   0.12589

 Mulliken charges:
               1
     1  Mg   0.961248
     2  C    0.028366
     3  C   -0.060299
     4  C   -0.078866
     5  C   -0.111126
     6  N   -0.283636
     7  C    0.007315
     8  C   -0.050046
     9  C   -0.116327
    10  C    0.037109
    11  C    0.040607
    12  C    0.003292
    13  C    0.022854
    14  C    0.243621
    15  O   -0.292472
    16  O   -0.348948
    17  N   -0.456009
    18  C    0.132316
    19  C   -0.154897
    20  C   -0.084432
    21  C    0.173172
    22  C    0.057235
    23  C    0.031927
    24  O   -0.221943
    25  C   -0.033215
    26  N   -0.429739
    27  C    0.118865
    28  C   -0.094060
    29  C   -0.081840
    30  C    0.088127
    31  C   -0.013213
    32  C   -0.037915
    33  C   -0.056911
    34  N   -0.430772
    35  C    0.204881
    36  C   -0.213131
    37  C    0.010151
    38  C    0.056215
    39  C    0.098077
    40  C    0.142130
    41  O   -0.210745
    42  C   -0.103023
    43  C    0.263214
    44  O   -0.260001
    45  O   -0.341947
    46  C    0.138845
    47  C    0.256865
    48  C   -0.136874
    49  C   -0.183035
    50  C    0.045998
    51  C    0.021424
    52  C   -0.013983
    53  C    0.009769
    54  C   -0.226280
    55  C    0.010722
    56  C    0.014378
    57  C   -0.067596
    58  C    0.066382
    59  C   -0.193015
    60  C   -0.005018
    61  C   -0.000631
    62  C   -0.002204
    63  C   -0.009487
    64  C   -0.225100
    65  C    0.001053
    66  C    0.006353
    67  H    0.003548
    68  H   -0.026636
    69  H    0.001190
    70  H    0.023973
    71  H    0.036160
    72  H    0.032792
    73  H    0.025478
    74  H    0.045460
    75  H    0.041097
    76  H    0.047153
    77  H    0.043839
    78  H    0.048445
    79  H    0.027634
    80  H    0.062440
    81  H    0.063613
    82  H    0.066555
    83  H    0.068391
    84  H    0.058131
    85  H    0.053263
    86  H    0.026600
    87  H    0.041976
    88  H    0.030670
    89  H    0.023268
    90  H    0.031839
    91  H    0.031256
    92  H    0.021122
    93  H    0.040850
    94  H    0.045057
    95  H    0.058875
    96  H    0.063589
    97  H    0.027016
    98  H    0.081574
    99  H    0.057499
   100  H    0.052531
   101  H    0.050419
   102  H    0.056468
   103  H    0.049580
   104  H    0.020113
   105  H    0.036161
   106  H    0.045699
   107  H    0.020256
   108  H    0.028562
   109  H    0.018981
   110  H    0.027035
   111  H    0.017526
   112  H    0.018470
   113  H    0.015218
   114  H    0.023614
   115  H    0.031592
   116  H    0.025618
   117  H    0.025871
   118  H    0.030366
   119  H    0.019389
   120  H    0.018977
   121  H    0.015056
   122  H    0.009253
   123  H    0.007731
   124  H    0.022709
   125  H    0.031476
   126  H    0.017479
   127  H    0.025483
   128  H    0.025077
   129  H    0.007302
   130  H    0.028625
   131  H    0.020295
   132  H    0.002881
   133  H    0.015494
   134  H    0.016924
   135  H    0.023231
   136  H    0.033768
   137  H    0.032724
   138  H    0.026210
   139  H    0.018932
   140  H    0.019412
 Sum of Mulliken charges =  -0.00000

 Dipole moment (field-independent basis, Debye):
    X=              0.2590    Y=              3.8978    Z=             -0.4925  Tot=              3.9373
 Quadrupole moment (field-independent basis, Debye-Ang):
   XX=           -397.8643   YY=           -423.0027   ZZ=           -387.0381
   XY=             54.0334   XZ=            -13.1596   YZ=             26.1176

 Normal termination of Gaussian 16 at Thu Apr 28 05:12:08 2022.
