 Gaussian 16, Revision A.03,
 Gaussian 16:  ES64L-G16RevA.03 25-Dec-2016

 --------------------
 #p ZINDO=(nstates=5)
 --------------------

 ------------------------------
 step_1451_chromophore_20 ZINDO
 ------------------------------
 Symbolic Z-matrix:
 Charge =  0 Multiplicity = 1

                         Standard orientation:
 ---------------------------------------------------------------------
 Center     Atomic      Atomic             Coordinates (Angstroms)
 Number     Number       Type             X           Y           Z
 ---------------------------------------------------------------------
      1         12           0        3.947785    1.693046   -0.506025
      2          6           0        4.523157   -1.836952   -0.670603
      3          6           0        1.550492    1.225954   -3.092940
      4          6           0        2.818430    4.881487    0.036806
      5          6           0        5.821350    1.746875    2.337875
      6          7           0        3.033093   -0.136031   -1.648443
      7          6           0        3.513587   -1.420095   -1.585973
      8          6           0        2.682588   -2.269751   -2.564161
      9          6           0        2.110950   -1.266643   -3.556271
     10          6           0        2.218470    0.031497   -2.682101
     11          6           0        2.553611   -1.147875   -5.022320
     12          6           0        1.540848   -3.087366   -1.861500
     13          6           0        0.735446   -3.936184   -2.837928
     14          6           0       -0.110418   -5.073720   -2.256568
     15          8           0        0.144156   -6.298825   -2.305241
     16          8           0       -1.187956   -4.536124   -1.626698
     17          7           0        2.470491    2.911878   -1.396273
     18          6           0        1.606936    2.548229   -2.430697
     19          6           0        0.832952    3.718389   -2.893941
     20          6           0        1.201283    4.839722   -1.982712
     21          6           0        2.177528    4.221769   -1.060213
     22          6           0       -0.242172    3.671571   -4.026699
     23          6           0        0.647590    6.266474   -2.029788
     24          8           0       -0.200714    6.585927   -2.826540
     25          6           0        1.239808    7.470473   -1.235704
     26          7           0        3.945194    2.943830    1.149213
     27          6           0        3.595867    4.298055    1.013274
     28          6           0        4.108767    5.090679    2.186504
     29          6           0        5.167529    4.113645    2.858763
     30          6           0        5.012338    2.807549    2.017505
     31          6           0        4.889536    6.317618    1.703651
     32          6           0        4.891223    3.890972    4.382170
     33          6           0        5.940393    4.372521    5.412626
     34          7           0        4.999181    0.276462    0.594175
     35          6           0        5.755741    0.481717    1.769837
     36          6           0        6.393721   -0.708309    2.156315
     37          6           0        6.034297   -1.647694    1.239707
     38          6           0        5.094544   -1.013643    0.325402
     39          6           0        7.315027   -0.902109    3.343588
     40          6           0        6.067920   -3.026195    0.816570
     41          8           0        6.733909   -3.980565    1.210761
     42          6           0        5.237634   -3.109027   -0.526442
     43          6           0        4.500117   -4.414235   -0.502598
     44          8           0        3.940862   -4.885357    0.499505
     45          8           0        4.523417   -4.937109   -1.750357
     46          6           0        3.728700   -6.158756   -1.868533
     47          6           0       -1.791397   -5.522784   -0.746785
     48          6           0       -2.915340   -4.875123   -0.108060
     49          6           0       -3.889862   -5.381939    0.669222
     50          6           0       -4.095342   -6.867884    0.745329
     51          6           0       -5.007821   -4.561536    1.318777
     52          6           0       -5.084619   -4.480018    2.808811
     53          6           0       -6.423678   -3.800271    3.305682
     54          6           0       -6.148949   -2.366545    3.947554
     55          6           0       -6.369971   -2.373844    5.508721
     56          6           0       -7.024714   -1.270693    3.341954
     57          6           0       -6.703065   -1.073268    1.793258
     58          6           0       -6.451321    0.381688    1.302069
     59          6           0       -7.599879    1.019295    0.546227
     60          6           0       -7.372711    1.269175   -0.990825
     61          6           0       -8.036539    2.484761    1.062936
     62          6           0       -9.513033    2.748858    0.909696
     63          6           0       -9.913436    3.786227   -0.218154
     64          6           0      -10.799740    3.249752   -1.363339
     65          6           0      -10.343280    3.773575   -2.714958
     66          6           0      -12.257093    3.481925   -1.201810
     67          1           0        0.913603    1.199823   -3.979470
     68          1           0        2.539323    5.924777    0.194229
     69          1           0        6.466634    2.056525    3.161618
     70          1           0        3.315650   -2.939123   -3.145903
     71          1           0        1.022064   -1.225423   -3.558780
     72          1           0        3.106149   -1.979947   -5.458275
     73          1           0        3.357742   -0.432424   -5.200149
     74          1           0        1.746191   -0.863137   -5.697662
     75          1           0        0.822900   -2.451208   -1.343044
     76          1           0        2.008720   -3.719536   -1.106840
     77          1           0        1.422990   -4.217857   -3.635358
     78          1           0        0.001453   -3.219017   -3.206834
     79          1           0        0.028342    3.042482   -4.874262
     80          1           0       -0.352231    4.643491   -4.507745
     81          1           0       -1.192076    3.267788   -3.673728
     82          1           0        0.786610    7.389286   -0.246975
     83          1           0        0.877087    8.263998   -1.890756
     84          1           0        2.326499    7.462578   -1.150626
     85          1           0        3.371833    5.459510    2.898791
     86          1           0        6.115487    4.651217    2.886434
     87          1           0        5.894171    6.524243    2.072697
     88          1           0        4.344426    7.260662    1.727439
     89          1           0        5.045725    6.187702    0.632182
     90          1           0        4.898966    2.812040    4.535618
     91          1           0        3.896500    4.248905    4.645839
     92          1           0        6.911887    4.544458    4.948050
     93          1           0        6.165333    3.589532    6.136426
     94          1           0        5.644595    5.313005    5.877219
     95          1           0        8.280886   -1.304472    3.037886
     96          1           0        6.809222   -1.650910    3.952094
     97          1           0        7.490249    0.020067    3.898376
     98          1           0        5.986532   -3.113804   -1.319054
     99          1           0        3.868606   -6.448070   -2.910810
    100          1           0        2.691293   -6.125120   -1.535880
    101          1           0        4.050345   -6.975673   -1.222571
    102          1           0       -1.049812   -5.907210   -0.046025
    103          1           0       -2.006275   -6.416707   -1.332039
    104          1           0       -2.882255   -3.785451   -0.104671
    105          1           0       -3.921905   -7.168097    1.778179
    106          1           0       -3.576842   -7.493875    0.019255
    107          1           0       -5.175804   -7.005226    0.694512
    108          1           0       -5.953412   -5.009201    1.013758
    109          1           0       -4.919818   -3.537288    0.955596
    110          1           0       -4.301742   -3.848723    3.228135
    111          1           0       -5.001765   -5.477350    3.240784
    112          1           0       -6.905605   -4.386907    4.089184
    113          1           0       -7.174733   -3.709169    2.520915
    114          1           0       -5.130587   -2.060372    3.709678
    115          1           0       -7.136826   -1.649571    5.784482
    116          1           0       -5.461388   -2.076473    6.033272
    117          1           0       -6.551077   -3.368365    5.918638
    118          1           0       -6.959301   -0.338807    3.903928
    119          1           0       -8.006188   -1.744685    3.380005
    120          1           0       -7.433566   -1.610902    1.188555
    121          1           0       -5.784512   -1.607093    1.551821
    122          1           0       -5.526544    0.418563    0.726089
    123          1           0       -6.171021    0.956023    2.184160
    124          1           0       -8.404363    0.283701    0.517107
    125          1           0       -7.618754    0.368572   -1.553163
    126          1           0       -6.324523    1.526839   -1.138216
    127          1           0       -7.873486    2.159986   -1.371211
    128          1           0       -7.411440    3.269783    0.638650
    129          1           0       -7.855990    2.514361    2.137038
    130          1           0       -9.981351    3.177758    1.794722
    131          1           0       -9.944790    1.786220    0.632524
    132          1           0       -9.051660    4.208880   -0.735963
    133          1           0      -10.361536    4.640456    0.290054
    134          1           0      -10.697114    2.167087   -1.441558
    135          1           0      -11.192218    4.062019   -3.334233
    136          1           0       -9.871313    2.892560   -3.149554
    137          1           0       -9.662032    4.611822   -2.571903
    138          1           0      -12.653866    4.368348   -1.697839
    139          1           0      -12.563630    3.493609   -0.155614
    140          1           0      -12.787189    2.637457   -1.644300
 ---------------------------------------------------------------------

 SCF Done:  E(RZINDO/S) =  -474.211392313     A.U. after   20 cycles

 Excitation energies and oscillator strengths:

 Excited State   1:      Singlet-A      1.1716 eV 1058.21 nm  f=0.5948  <S**2>=0.000
     175 ->178         0.18989
     176 ->177         0.66322
 This state for optimization and/or second-order correction.
 Total Energy, E(CIS/TDA) =  -474.168335314
 Copying the excited state density for this state as the 1-particle RhoCI density.

 Excited State   2:      Singlet-A      1.8616 eV  665.99 nm  f=0.0588  <S**2>=0.000
     175 ->177         0.55934
     176 ->178        -0.40510

 Excited State   3:      Singlet-A      2.8301 eV  438.09 nm  f=0.1249  <S**2>=0.000
     175 ->177        -0.13665
     176 ->178        -0.22517
     176 ->179         0.40861
     176 ->180         0.46151

 Excited State   4:      Singlet-A      2.8779 eV  430.82 nm  f=0.1884  <S**2>=0.000
     169 ->177         0.11731
     169 ->182         0.11026
     170 ->177         0.25674
     170 ->178        -0.11867
     170 ->179         0.20434
     170 ->182         0.23534
     170 ->185        -0.11990
     170 ->187        -0.10790
     175 ->177         0.16090
     176 ->178         0.24946
     176 ->180         0.30746

 Excited State   5:      Singlet-A      2.9474 eV  420.66 nm  f=0.5371  <S**2>=0.000
     170 ->177        -0.18985
     170 ->179        -0.14768
     170 ->182        -0.17460
     171 ->177         0.10166
     175 ->177         0.26442
     176 ->178         0.39123
     176 ->180         0.22583

 The electronic state is 1-A.
 Alpha  occ. eigenvalues --   -1.85454  -1.80628  -1.78773  -1.75590  -1.73286
 Alpha  occ. eigenvalues --   -1.69815  -1.64574  -1.61894  -1.60469  -1.59680
 Alpha  occ. eigenvalues --   -1.55003  -1.51658  -1.48825  -1.47221  -1.46547
 Alpha  occ. eigenvalues --   -1.44543  -1.44378  -1.42237  -1.38450  -1.37500
 Alpha  occ. eigenvalues --   -1.35581  -1.34143  -1.33547  -1.30339  -1.27905
 Alpha  occ. eigenvalues --   -1.26920  -1.26500  -1.22005  -1.21170  -1.18906
 Alpha  occ. eigenvalues --   -1.18189  -1.15932  -1.14806  -1.13093  -1.12510
 Alpha  occ. eigenvalues --   -1.12218  -1.11554  -1.10506  -1.05418  -1.04381
 Alpha  occ. eigenvalues --   -1.02485  -1.01770  -0.98985  -0.97303  -0.96928
 Alpha  occ. eigenvalues --   -0.95389  -0.94427  -0.93525  -0.93097  -0.92478
 Alpha  occ. eigenvalues --   -0.91970  -0.90293  -0.89416  -0.87895  -0.87751
 Alpha  occ. eigenvalues --   -0.86992  -0.86290  -0.83992  -0.83672  -0.81744
 Alpha  occ. eigenvalues --   -0.80277  -0.78774  -0.77409  -0.76311  -0.76256
 Alpha  occ. eigenvalues --   -0.75472  -0.74678  -0.74319  -0.73918  -0.73533
 Alpha  occ. eigenvalues --   -0.73028  -0.72048  -0.71765  -0.71049  -0.70414
 Alpha  occ. eigenvalues --   -0.70194  -0.69681  -0.69642  -0.69191  -0.68238
 Alpha  occ. eigenvalues --   -0.67471  -0.67191  -0.66222  -0.65463  -0.65252
 Alpha  occ. eigenvalues --   -0.64932  -0.64668  -0.64037  -0.63583  -0.63354
 Alpha  occ. eigenvalues --   -0.62817  -0.62566  -0.62291  -0.62161  -0.61987
 Alpha  occ. eigenvalues --   -0.61633  -0.61301  -0.61092  -0.60155  -0.59902
 Alpha  occ. eigenvalues --   -0.59751  -0.59330  -0.58684  -0.58336  -0.58234
 Alpha  occ. eigenvalues --   -0.58046  -0.57745  -0.57506  -0.57122  -0.56301
 Alpha  occ. eigenvalues --   -0.56240  -0.55817  -0.55629  -0.55112  -0.54854
 Alpha  occ. eigenvalues --   -0.54007  -0.53708  -0.53470  -0.53045  -0.52879
 Alpha  occ. eigenvalues --   -0.52610  -0.52325  -0.52191  -0.51958  -0.51740
 Alpha  occ. eigenvalues --   -0.51437  -0.51246  -0.50881  -0.50620  -0.50425
 Alpha  occ. eigenvalues --   -0.50044  -0.49614  -0.49447  -0.49180  -0.48861
 Alpha  occ. eigenvalues --   -0.48638  -0.48589  -0.48538  -0.47861  -0.47783
 Alpha  occ. eigenvalues --   -0.47452  -0.47377  -0.46854  -0.46787  -0.46374
 Alpha  occ. eigenvalues --   -0.46126  -0.45707  -0.45694  -0.45534  -0.45393
 Alpha  occ. eigenvalues --   -0.44915  -0.44790  -0.44704  -0.44395  -0.44358
 Alpha  occ. eigenvalues --   -0.44207  -0.43926  -0.42873  -0.42483  -0.42253
 Alpha  occ. eigenvalues --   -0.42045  -0.41882  -0.41319  -0.39752  -0.38805
 Alpha  occ. eigenvalues --   -0.38291  -0.37911  -0.35564  -0.35099  -0.34934
 Alpha  occ. eigenvalues --   -0.33541  -0.33175  -0.32675  -0.31926  -0.27153
 Alpha  occ. eigenvalues --   -0.22181
 Alpha virt. eigenvalues --   -0.09359  -0.02588  -0.00798   0.00029   0.01156
 Alpha virt. eigenvalues --    0.01299   0.02103   0.02407   0.04331   0.05094
 Alpha virt. eigenvalues --    0.05781   0.06500   0.06753   0.07441   0.07925

 Mulliken charges:
               1
     1  Mg   0.441363
     2  C   -0.024648
     3  C   -0.080744
     4  C   -0.093628
     5  C   -0.064747
     6  N   -0.270140
     7  C    0.100320
     8  C    0.020628
     9  C   -0.004994
    10  C    0.138687
    11  C   -0.049725
    12  C   -0.012706
    13  C    0.003794
    14  C    0.469703
    15  O   -0.529681
    16  O   -0.259621
    17  N   -0.328108
    18  C    0.099227
    19  C    0.031218
    20  C   -0.064526
    21  C    0.146093
    22  C   -0.034847
    23  C    0.322424
    24  O   -0.512448
    25  C   -0.036878
    26  N   -0.294937
    27  C    0.158099
    28  C    0.001850
    29  C   -0.016556
    30  C    0.124688
    31  C   -0.059710
    32  C   -0.037840
    33  C   -0.057857
    34  N   -0.323262
    35  C    0.093626
    36  C    0.039900
    37  C   -0.051089
    38  C    0.106430
    39  C   -0.041152
    40  C    0.327833
    41  O   -0.514202
    42  C    0.059085
    43  C    0.488718
    44  O   -0.515519
    45  O   -0.260404
    46  C    0.066501
    47  C    0.117677
    48  C   -0.082552
    49  C   -0.016390
    50  C   -0.050449
    51  C   -0.012357
    52  C   -0.025756
    53  C   -0.042665
    54  C   -0.016796
    55  C   -0.064091
    56  C   -0.035604
    57  C   -0.047285
    58  C   -0.027756
    59  C   -0.016574
    60  C   -0.064545
    61  C   -0.028799
    62  C   -0.036732
    63  C   -0.041554
    64  C   -0.005889
    65  C   -0.060521
    66  C   -0.049038
    67  H    0.037878
    68  H    0.031023
    69  H    0.033083
    70  H    0.026750
    71  H    0.027573
    72  H    0.022122
    73  H    0.017573
    74  H    0.025336
    75  H    0.030249
    76  H    0.032728
    77  H    0.038543
    78  H    0.032549
    79  H    0.018942
    80  H    0.040057
    81  H    0.039077
    82  H    0.043119
    83  H    0.049671
    84  H    0.033336
    85  H    0.043399
    86  H    0.038258
    87  H    0.024738
    88  H    0.012097
    89  H    0.010295
    90  H    0.016611
    91  H    0.022694
    92  H    0.013757
    93  H    0.022323
    94  H    0.021710
    95  H    0.035454
    96  H    0.038359
    97  H    0.020902
    98  H    0.055636
    99  H    0.029257
   100  H    0.056269
   101  H    0.045389
   102  H    0.052215
   103  H    0.053046
   104  H    0.020739
   105  H    0.027537
   106  H    0.033387
   107  H    0.018047
   108  H    0.024818
   109  H    0.020063
   110  H    0.023227
   111  H    0.019128
   112  H    0.017578
   113  H    0.022357
   114  H    0.021750
   115  H    0.022806
   116  H    0.011278
   117  H    0.021336
   118  H    0.029529
   119  H    0.017817
   120  H    0.019661
   121  H    0.011968
   122  H    0.015875
   123  H    0.015031
   124  H    0.025100
   125  H    0.017005
   126  H    0.012225
   127  H    0.024380
   128  H    0.027820
   129  H    0.003833
   130  H    0.021627
   131  H    0.022771
   132  H    0.016299
   133  H    0.015650
   134  H    0.016008
   135  H    0.018627
   136  H    0.017272
   137  H    0.025556
   138  H    0.019640
   139  H    0.009375
   140  H    0.008317
 Sum of Mulliken charges =  -0.00000

 Dipole moment (field-independent basis, Debye):
    X=              0.7214    Y=              6.4522    Z=             -1.5844  Tot=              6.6829
 N-N= 4.454246737403D+03 E-N= 0.000000000000D+00  KE=-9.582294804236D+03
 Leave Link  601 at Thu Apr 28 05:24:35 2022, MaxMem=  6710886400 cpu:               1.8 elap:               0.1
 (Enter /sw/apps/gaussian-16.0/g16/l9999.exe)
 1\1\GINC-BP1-COMPUTE155\SP\RZINDO CIS\STO-3G\C55H74Mg1N4O6\OF15641\28-
 Apr-2022\0\\#p ZINDO=(nstates=5)\\step_1451_chromophore_20 ZINDO\\0,1\
 Mg,0,7.285,56.917,41.868\C,0,5.496,53.816,41.916\C,0,10.031,55.088,40.
 537\C,0,8.83,59.882,41.121\C,0,4.344,58.489,42.561\N,0,7.663,54.715,41
 .164\C,0,6.81,53.663,41.386\C,0,7.496,52.394,40.849\C,0,8.98,52.733,40
 .839\C,0,8.874,54.298,40.818\C,0,10.015,52.126,41.798\C,0,6.999,51.977
 ,39.419\C,0,7.674,50.711,38.905\C,0,7.003,49.973,37.742\O,0,6.354,48.9

 Normal termination of Gaussian 16 at Thu Apr 28 05:24:35 2022.
