 Gaussian 16, Revision A.03,
 Gaussian 16:  ES64L-G16RevA.03 25-Dec-2016

 ------------------------------
 #p blyp/Def2SVP td=(nstates=5)
 ------------------------------

 --------------------------------------------------
 step_551_chromophore_17 TDDFT with blyp functional
 --------------------------------------------------
 Symbolic Z-matrix:
 Charge =  0 Multiplicity = 1

                         Standard orientation:
 ---------------------------------------------------------------------
 Center     Atomic      Atomic             Coordinates (Angstroms)
 Number     Number       Type             X           Y           Z
 ---------------------------------------------------------------------
      1         12           0        3.905873    1.346668   -0.525438
      2          6           0        3.702788   -2.226043   -0.873874
      3          6           0        1.406779    1.568140   -2.852088
      4          6           0        3.867826    4.530788    0.234112
      5          6           0        6.349893    0.706426    1.913428
      6          7           0        2.628142   -0.175334   -1.634857
      7          6           0        2.729581   -1.566594   -1.697504
      8          6           0        1.584315   -2.127239   -2.537639
      9          6           0        1.203643   -0.913684   -3.443984
     10          6           0        1.770704    0.241186   -2.619991
     11          6           0        1.611216   -0.957645   -4.953434
     12          6           0        0.402814   -2.722607   -1.696945
     13          6           0       -0.058990   -4.210405   -1.900583
     14          6           0       -1.577229   -4.475350   -1.903610
     15          8           0       -2.196300   -5.146115   -2.741103
     16          8           0       -2.210155   -4.084268   -0.683498
     17          7           0        2.849460    2.865137   -1.266057
     18          6           0        1.866758    2.793425   -2.277258
     19          6           0        1.393889    4.110087   -2.486522
     20          6           0        2.027377    4.988082   -1.578115
     21          6           0        2.996521    4.167683   -0.830291
     22          6           0        0.217890    4.436161   -3.413672
     23          6           0        1.693824    6.458540   -1.544911
     24          8           0        0.769772    6.933362   -2.168347
     25          6           0        2.493742    7.338557   -0.696228
     26          7           0        4.767476    2.365908    1.017003
     27          6           0        4.715095    3.742684    1.032159
     28          6           0        5.320303    4.351036    2.303198
     29          6           0        6.123036    3.094676    2.871459
     30          6           0        5.724444    1.967181    1.853334
     31          6           0        6.291824    5.542001    2.176952
     32          6           0        5.780229    2.680464    4.391800
     33          6           0        6.983706    2.543533    5.290747
     34          7           0        4.865020   -0.353379    0.433579
     35          6           0        5.828652   -0.483828    1.363933
     36          6           0        6.276626   -1.804383    1.573008
     37          6           0        5.409829   -2.567314    0.799606
     38          6           0        4.613457   -1.624529    0.095315
     39          6           0        7.393112   -2.375364    2.531521
     40          6           0        5.075761   -3.878113    0.436972
     41          8           0        5.447599   -4.997849    0.787426
     42          6           0        4.026810   -3.656938   -0.689115
     43          6           0        4.536974   -4.256507   -1.968079
     44          8           0        5.596971   -3.981359   -2.484356
     45          8           0        3.667484   -5.110345   -2.499069
     46          6           0        3.910072   -5.504474   -3.947631
     47          6           0       -3.658778   -4.427544   -0.687834
     48          6           0       -4.142727   -4.274997    0.778205
     49          6           0       -5.369470   -4.597303    1.172243
     50          6           0       -6.524244   -4.889958    0.266331
     51          6           0       -5.602432   -4.681279    2.681085
     52          6           0       -6.067589   -3.441425    3.380040
     53          6           0       -4.861175   -2.873768    4.090094
     54          6           0       -5.070374   -1.444937    4.704865
     55          6           0       -3.968030   -1.181833    5.834307
     56          6           0       -5.082194   -0.311804    3.619503
     57          6           0       -6.478357    0.286599    3.200079
     58          6           0       -6.586742    1.030819    1.781763
     59          6           0       -7.704601    0.556138    0.825766
     60          6           0       -7.260568   -0.740609    0.102337
     61          6           0       -8.019289    1.653264   -0.167892
     62          6           0       -9.299195    2.486841    0.174445
     63          6           0      -10.163088    2.794348   -1.158997
     64          6           0      -10.608472    4.298694   -1.467688
     65          6           0      -12.153107    4.510523   -1.458677
     66          6           0      -10.096777    4.861692   -2.865471
     67          1           0        0.653692    1.726033   -3.627055
     68          1           0        3.758383    5.582979    0.503410
     69          1           0        7.033649    0.566427    2.753870
     70          1           0        1.965738   -2.940647   -3.153807
     71          1           0        0.140572   -0.684517   -3.369028
     72          1           0        0.760092   -0.765675   -5.606382
     73          1           0        2.040575   -1.868675   -5.371049
     74          1           0        2.367307   -0.195456   -5.141092
     75          1           0       -0.425696   -2.043334   -1.900266
     76          1           0        0.584560   -2.508109   -0.644474
     77          1           0        0.241155   -4.795627   -1.031318
     78          1           0        0.462679   -4.665956   -2.741437
     79          1           0       -0.700376    4.539420   -2.836826
     80          1           0        0.042690    3.612478   -4.105442
     81          1           0        0.422519    5.376072   -3.926527
     82          1           0        2.196693    7.447690    0.346872
     83          1           0        2.376024    8.294512   -1.205426
     84          1           0        3.566610    7.185009   -0.814909
     85          1           0        4.492527    4.610032    2.964347
     86          1           0        7.194676    3.171872    2.691499
     87          1           0        7.203984    5.335890    2.737404
     88          1           0        5.792383    6.361053    2.693827
     89          1           0        6.511430    5.724125    1.124763
     90          1           0        5.288004    1.707852    4.378047
     91          1           0        4.968513    3.242196    4.856099
     92          1           0        7.442382    1.554978    5.279037
     93          1           0        6.716442    2.905707    6.283613
     94          1           0        7.832505    3.199375    5.097203
     95          1           0        7.446311   -3.433217    2.274409
     96          1           0        6.879385   -2.169333    3.470362
     97          1           0        8.324145   -1.818474    2.432592
     98          1           0        3.211860   -4.304293   -0.367554
     99          1           0        3.049857   -6.065157   -4.315033
    100          1           0        4.748407   -6.195499   -4.033999
    101          1           0        4.075888   -4.590966   -4.518300
    102          1           0       -3.755662   -5.495177   -0.883952
    103          1           0       -4.288371   -3.783842   -1.301925
    104          1           0       -3.266380   -4.056118    1.387879
    105          1           0       -6.128388   -4.625490   -0.714351
    106          1           0       -7.341321   -4.195540    0.461261
    107          1           0       -6.857573   -5.920987    0.382102
    108          1           0       -4.801672   -5.092296    3.294569
    109          1           0       -6.358963   -5.427482    2.920098
    110          1           0       -6.911688   -3.744903    3.997978
    111          1           0       -6.472801   -2.702573    2.689046
    112          1           0       -3.996054   -2.831832    3.428303
    113          1           0       -4.633962   -3.526887    4.932901
    114          1           0       -5.996718   -1.396216    5.278502
    115          1           0       -4.269622   -0.429234    6.562561
    116          1           0       -3.076396   -0.702160    5.431314
    117          1           0       -3.553500   -2.056860    6.335655
    118          1           0       -4.493708   -0.584393    2.743360
    119          1           0       -4.603329    0.571824    4.039715
    120          1           0       -6.770112    0.979496    3.989003
    121          1           0       -7.116122   -0.563028    3.443228
    122          1           0       -5.602605    1.063372    1.312737
    123          1           0       -6.783671    2.068044    2.052595
    124          1           0       -8.619497    0.269237    1.343575
    125          1           0       -7.949067   -1.490910    0.490322
    126          1           0       -6.212262   -0.920663    0.341169
    127          1           0       -7.280863   -0.762062   -0.986758
    128          1           0       -8.142701    1.173466   -1.139037
    129          1           0       -7.071398    2.190254   -0.210068
    130          1           0       -9.024198    3.529027    0.337559
    131          1           0       -9.958743    2.033410    0.914420
    132          1           0      -11.054190    2.167317   -1.160784
    133          1           0       -9.512964    2.497219   -1.982304
    134          1           0      -10.203188    5.029709   -0.768004
    135          1           0      -12.596668    5.090207   -0.648355
    136          1           0      -12.600756    3.533439   -1.278931
    137          1           0      -12.519766    4.822003   -2.436180
    138          1           0      -10.882322    4.957183   -3.614087
    139          1           0       -9.287031    4.216347   -3.205698
    140          1           0       -9.771815    5.895992   -2.751135
 ---------------------------------------------------------------------

 SCF Done:  E(RB-LYP) =  -3007.35333928     A.U. after   20 cycles

 Excitation energies and oscillator strengths:

 Excited State   1:      Singlet-A      1.7682 eV  701.18 nm  f=0.2655  <S**2>=0.000
     245 -> 248       -0.19567
     246 -> 247        0.68744
     246 <- 247       -0.15498
 This state for optimization and/or second-order correction.
 Total Energy, E(TD-HF/TD-DFT) =  -3007.28835849
 Copying the excited state density for this state as the 1-particle RhoCI density.

 Excited State   2:      Singlet-A      1.8603 eV  666.49 nm  f=0.0010  <S**2>=0.000
     243 -> 247        0.59400
     244 -> 247        0.37790

 Excited State   3:      Singlet-A      1.8758 eV  660.97 nm  f=0.0021  <S**2>=0.000
     243 -> 247       -0.38105
     244 -> 247        0.59344

 Excited State   4:      Singlet-A      1.9615 eV  632.09 nm  f=0.1111  <S**2>=0.000
     245 -> 247        0.64877
     246 -> 248        0.23968

 Excited State   5:      Singlet-A      2.1418 eV  578.87 nm  f=0.0000  <S**2>=0.000
     242 -> 247        0.70707

 The electronic state is 1-A.
 Alpha  occ. eigenvalues --  -46.27187 -18.82540 -18.82092 -18.77400 -18.75775
 Alpha  occ. eigenvalues --  -18.75670 -18.75534 -14.03898 -14.03628 -14.01341
 Alpha  occ. eigenvalues --  -14.00966 -10.04837 -10.03232  -9.99536  -9.99073
 Alpha  occ. eigenvalues --   -9.98728  -9.97678  -9.97564  -9.97107  -9.96862
 Alpha  occ. eigenvalues --   -9.96734  -9.96638  -9.95825  -9.95150  -9.95042
 Alpha  occ. eigenvalues --   -9.95040  -9.94877  -9.94839  -9.94525  -9.94417
 Alpha  occ. eigenvalues --   -9.94324  -9.94086  -9.93596  -9.93495  -9.93407
 Alpha  occ. eigenvalues --   -9.93272  -9.93244  -9.93217  -9.93126  -9.92992
 Alpha  occ. eigenvalues --   -9.92780  -9.92526  -9.92430  -9.92357  -9.92330
 Alpha  occ. eigenvalues --   -9.92282  -9.92269  -9.92191  -9.91773  -9.91768
 Alpha  occ. eigenvalues --   -9.91610  -9.91598  -9.91569  -9.91459  -9.91272
 Alpha  occ. eigenvalues --   -9.91265  -9.91011  -9.90977  -9.90887  -9.90843
 Alpha  occ. eigenvalues --   -9.90778  -9.90777  -9.90742  -9.90704  -9.90592
 Alpha  occ. eigenvalues --   -9.90448  -2.91949  -1.72362  -1.71841  -1.71663
 Alpha  occ. eigenvalues --   -0.98462  -0.96255  -0.92419  -0.90946  -0.89370
 Alpha  occ. eigenvalues --   -0.88844  -0.87831  -0.86661  -0.85817  -0.84512
 Alpha  occ. eigenvalues --   -0.76101  -0.73742  -0.72764  -0.72632  -0.72205
 Alpha  occ. eigenvalues --   -0.72055  -0.71207  -0.71105  -0.70314  -0.70079
 Alpha  occ. eigenvalues --   -0.69447  -0.69216  -0.68138  -0.68027  -0.67591
 Alpha  occ. eigenvalues --   -0.66467  -0.65855  -0.65543  -0.65139  -0.64377
 Alpha  occ. eigenvalues --   -0.63892  -0.62905  -0.62160  -0.61812  -0.60737
 Alpha  occ. eigenvalues --   -0.60174  -0.59847  -0.59586  -0.59379  -0.58589
 Alpha  occ. eigenvalues --   -0.58489  -0.57892  -0.57237  -0.56286  -0.55000
 Alpha  occ. eigenvalues --   -0.54836  -0.53329  -0.53050  -0.52249  -0.52035
 Alpha  occ. eigenvalues --   -0.51824  -0.51049  -0.50965  -0.50394  -0.49620
 Alpha  occ. eigenvalues --   -0.49498  -0.49015  -0.48856  -0.48674  -0.46638
 Alpha  occ. eigenvalues --   -0.46393  -0.46048  -0.45728  -0.45518  -0.44491
 Alpha  occ. eigenvalues --   -0.44212  -0.43222  -0.43095  -0.42783  -0.42484
 Alpha  occ. eigenvalues --   -0.42284  -0.41805  -0.41576  -0.41126  -0.40918
 Alpha  occ. eigenvalues --   -0.40760  -0.40624  -0.40222  -0.40177  -0.40052
 Alpha  occ. eigenvalues --   -0.39895  -0.39763  -0.39402  -0.39166  -0.39107
 Alpha  occ. eigenvalues --   -0.38945  -0.38721  -0.38679  -0.38600  -0.38358
 Alpha  occ. eigenvalues --   -0.37841  -0.37608  -0.37490  -0.37363  -0.37180
 Alpha  occ. eigenvalues --   -0.37120  -0.36991  -0.36724  -0.36675  -0.36434
 Alpha  occ. eigenvalues --   -0.36144  -0.36101  -0.35980  -0.35793  -0.35625
 Alpha  occ. eigenvalues --   -0.35527  -0.35452  -0.35112  -0.34733  -0.34653
 Alpha  occ. eigenvalues --   -0.34601  -0.34502  -0.34406  -0.34231  -0.34159
 Alpha  occ. eigenvalues --   -0.33920  -0.33644  -0.33505  -0.33397  -0.33366
 Alpha  occ. eigenvalues --   -0.32916  -0.32763  -0.32659  -0.32464  -0.32394
 Alpha  occ. eigenvalues --   -0.32305  -0.32033  -0.31720  -0.31553  -0.31513
 Alpha  occ. eigenvalues --   -0.31244  -0.31220  -0.31055  -0.30997  -0.30670
 Alpha  occ. eigenvalues --   -0.30497  -0.30409  -0.30307  -0.30071  -0.29846
 Alpha  occ. eigenvalues --   -0.29642  -0.29520  -0.29419  -0.29323  -0.29164
 Alpha  occ. eigenvalues --   -0.29015  -0.28552  -0.28158  -0.27637  -0.27445
 Alpha  occ. eigenvalues --   -0.27161  -0.26918  -0.26820  -0.26693  -0.26614
 Alpha  occ. eigenvalues --   -0.26352  -0.25931  -0.25806  -0.25677  -0.25427
 Alpha  occ. eigenvalues --   -0.25387  -0.25017  -0.24767  -0.24238  -0.23996
 Alpha  occ. eigenvalues --   -0.23946  -0.22545  -0.21891  -0.21335  -0.21143
 Alpha  occ. eigenvalues --   -0.20618  -0.20038  -0.18942  -0.18932  -0.17650
 Alpha  occ. eigenvalues --   -0.16274
 Alpha virt. eigenvalues --   -0.12167  -0.07472  -0.06429  -0.04583  -0.04104
 Alpha virt. eigenvalues --   -0.02594  -0.02182  -0.01351  -0.01074  -0.00350
 Alpha virt. eigenvalues --    0.00646   0.01195   0.01814   0.02349   0.02413

 Mulliken charges:
               1
     1  Mg   0.712238
     2  C    0.073899
     3  C   -0.051870
     4  C   -0.054605
     5  C   -0.058285
     6  N   -0.211688
     7  C   -0.074911
     8  C    0.027327
     9  C    0.013330
    10  C    0.023748
    11  C    0.132946
    12  C    0.138028
    13  C    0.160431
    14  C    0.091852
    15  O   -0.197873
    16  O   -0.321098
    17  N   -0.369544
    18  C    0.142778
    19  C   -0.153226
    20  C    0.039707
    21  C    0.123561
    22  C    0.195460
    23  C   -0.097013
    24  O   -0.154692
    25  C    0.134369
    26  N   -0.244447
    27  C    0.069810
    28  C   -0.014446
    29  C    0.025238
    30  C   -0.001072
    31  C    0.141948
    32  C    0.110711
    33  C    0.057385
    34  N   -0.181361
    35  C    0.070275
    36  C   -0.204689
    37  C    0.113458
    38  C    0.018378
    39  C    0.173214
    40  C   -0.058367
    41  O   -0.133101
    42  C    0.037430
    43  C    0.064115
    44  O   -0.181560
    45  O   -0.257947
    46  C    0.210859
    47  C    0.281308
    48  C   -0.152513
    49  C   -0.109119
    50  C    0.181087
    51  C    0.152945
    52  C    0.089706
    53  C    0.071307
    54  C   -0.034183
    55  C    0.076747
    56  C    0.085335
    57  C    0.049220
    58  C    0.116548
    59  C   -0.098032
    60  C    0.093757
    61  C    0.112358
    62  C    0.100390
    63  C    0.072777
    64  C   -0.101080
    65  C    0.097692
    66  C    0.076126
    67  H   -0.069481
    68  H   -0.074575
    69  H   -0.062659
    70  H   -0.041221
    71  H   -0.021260
    72  H   -0.004519
    73  H   -0.007080
    74  H   -0.005405
    75  H   -0.024160
    76  H   -0.013848
    77  H    0.017155
    78  H   -0.002633
    79  H    0.004464
    80  H   -0.028651
    81  H    0.013220
    82  H    0.029690
    83  H   -0.017949
    84  H   -0.000832
    85  H   -0.009333
    86  H   -0.021103
    87  H   -0.004954
    88  H   -0.010384
    89  H    0.000090
    90  H   -0.020249
    91  H   -0.028261
    92  H    0.002568
    93  H   -0.013404
    94  H   -0.019896
    95  H    0.025124
    96  H    0.012418
    97  H    0.008801
    98  H   -0.021721
    99  H    0.018899
   100  H    0.029526
   101  H    0.025470
   102  H    0.017666
   103  H    0.024430
   104  H   -0.018566
   105  H   -0.025406
   106  H   -0.000745
   107  H    0.010084
   108  H   -0.045394
   109  H   -0.067911
   110  H   -0.041201
   111  H   -0.027666
   112  H   -0.018770
   113  H   -0.032733
   114  H   -0.041961
   115  H   -0.020482
   116  H   -0.029944
   117  H   -0.019949
   118  H   -0.027584
   119  H   -0.040853
   120  H   -0.037054
   121  H   -0.032446
   122  H   -0.025061
   123  H   -0.033868
   124  H   -0.041679
   125  H   -0.000268
   126  H   -0.011775
   127  H   -0.020239
   128  H   -0.036998
   129  H   -0.035303
   130  H   -0.027499
   131  H   -0.011792
   132  H   -0.026039
   133  H   -0.031990
   134  H   -0.022941
   135  H   -0.011873
   136  H   -0.036898
   137  H   -0.014947
   138  H   -0.013886
   139  H   -0.012887
   140  H   -0.014500
 Sum of Mulliken charges =  -0.00000

 Dipole moment (field-independent basis, Debye):
    X=             -0.4123    Y=              2.7265    Z=              1.7614  Tot=              3.2720
 Quadrupole moment (field-independent basis, Debye-Ang):
   XX=           -399.3863   YY=           -435.6426   ZZ=           -389.4841
   XY=             40.5007   XZ=              3.8950   YZ=             21.9969

 Normal termination of Gaussian 16 at Sat Apr 30 04:06:31 2022.
