 Gaussian 16, Revision A.03,
 Gaussian 16:  ES64L-G16RevA.03 25-Dec-2016

 -----------------------------------
 #p cam-b3lyp/Def2SVP td=(nstates=5)
 -----------------------------------

 -------------------------------------------------------
 step_551_chromophore_17 TDDFT with cam-b3lyp functional
 -------------------------------------------------------
 Symbolic Z-matrix:
 Charge =  0 Multiplicity = 1

                         Standard orientation:
 ---------------------------------------------------------------------
 Center     Atomic      Atomic             Coordinates (Angstroms)
 Number     Number       Type             X           Y           Z
 ---------------------------------------------------------------------
      1         12           0        3.905873    1.346668   -0.525438
      2          6           0        3.702788   -2.226043   -0.873874
      3          6           0        1.406779    1.568140   -2.852088
      4          6           0        3.867826    4.530788    0.234112
      5          6           0        6.349893    0.706426    1.913428
      6          7           0        2.628142   -0.175334   -1.634857
      7          6           0        2.729581   -1.566594   -1.697504
      8          6           0        1.584315   -2.127239   -2.537639
      9          6           0        1.203643   -0.913684   -3.443984
     10          6           0        1.770704    0.241186   -2.619991
     11          6           0        1.611216   -0.957645   -4.953434
     12          6           0        0.402814   -2.722607   -1.696945
     13          6           0       -0.058990   -4.210405   -1.900583
     14          6           0       -1.577229   -4.475350   -1.903610
     15          8           0       -2.196300   -5.146115   -2.741103
     16          8           0       -2.210155   -4.084268   -0.683498
     17          7           0        2.849460    2.865137   -1.266057
     18          6           0        1.866758    2.793425   -2.277258
     19          6           0        1.393889    4.110087   -2.486522
     20          6           0        2.027377    4.988082   -1.578115
     21          6           0        2.996521    4.167683   -0.830291
     22          6           0        0.217890    4.436161   -3.413672
     23          6           0        1.693824    6.458540   -1.544911
     24          8           0        0.769772    6.933362   -2.168347
     25          6           0        2.493742    7.338557   -0.696228
     26          7           0        4.767476    2.365908    1.017003
     27          6           0        4.715095    3.742684    1.032159
     28          6           0        5.320303    4.351036    2.303198
     29          6           0        6.123036    3.094676    2.871459
     30          6           0        5.724444    1.967181    1.853334
     31          6           0        6.291824    5.542001    2.176952
     32          6           0        5.780229    2.680464    4.391800
     33          6           0        6.983706    2.543533    5.290747
     34          7           0        4.865020   -0.353379    0.433579
     35          6           0        5.828652   -0.483828    1.363933
     36          6           0        6.276626   -1.804383    1.573008
     37          6           0        5.409829   -2.567314    0.799606
     38          6           0        4.613457   -1.624529    0.095315
     39          6           0        7.393112   -2.375364    2.531521
     40          6           0        5.075761   -3.878113    0.436972
     41          8           0        5.447599   -4.997849    0.787426
     42          6           0        4.026810   -3.656938   -0.689115
     43          6           0        4.536974   -4.256507   -1.968079
     44          8           0        5.596971   -3.981359   -2.484356
     45          8           0        3.667484   -5.110345   -2.499069
     46          6           0        3.910072   -5.504474   -3.947631
     47          6           0       -3.658778   -4.427544   -0.687834
     48          6           0       -4.142727   -4.274997    0.778205
     49          6           0       -5.369470   -4.597303    1.172243
     50          6           0       -6.524244   -4.889958    0.266331
     51          6           0       -5.602432   -4.681279    2.681085
     52          6           0       -6.067589   -3.441425    3.380040
     53          6           0       -4.861175   -2.873768    4.090094
     54          6           0       -5.070374   -1.444937    4.704865
     55          6           0       -3.968030   -1.181833    5.834307
     56          6           0       -5.082194   -0.311804    3.619503
     57          6           0       -6.478357    0.286599    3.200079
     58          6           0       -6.586742    1.030819    1.781763
     59          6           0       -7.704601    0.556138    0.825766
     60          6           0       -7.260568   -0.740609    0.102337
     61          6           0       -8.019289    1.653264   -0.167892
     62          6           0       -9.299195    2.486841    0.174445
     63          6           0      -10.163088    2.794348   -1.158997
     64          6           0      -10.608472    4.298694   -1.467688
     65          6           0      -12.153107    4.510523   -1.458677
     66          6           0      -10.096777    4.861692   -2.865471
     67          1           0        0.653692    1.726033   -3.627055
     68          1           0        3.758383    5.582979    0.503410
     69          1           0        7.033649    0.566427    2.753870
     70          1           0        1.965738   -2.940647   -3.153807
     71          1           0        0.140572   -0.684517   -3.369028
     72          1           0        0.760092   -0.765675   -5.606382
     73          1           0        2.040575   -1.868675   -5.371049
     74          1           0        2.367307   -0.195456   -5.141092
     75          1           0       -0.425696   -2.043334   -1.900266
     76          1           0        0.584560   -2.508109   -0.644474
     77          1           0        0.241155   -4.795627   -1.031318
     78          1           0        0.462679   -4.665956   -2.741437
     79          1           0       -0.700376    4.539420   -2.836826
     80          1           0        0.042690    3.612478   -4.105442
     81          1           0        0.422519    5.376072   -3.926527
     82          1           0        2.196693    7.447690    0.346872
     83          1           0        2.376024    8.294512   -1.205426
     84          1           0        3.566610    7.185009   -0.814909
     85          1           0        4.492527    4.610032    2.964347
     86          1           0        7.194676    3.171872    2.691499
     87          1           0        7.203984    5.335890    2.737404
     88          1           0        5.792383    6.361053    2.693827
     89          1           0        6.511430    5.724125    1.124763
     90          1           0        5.288004    1.707852    4.378047
     91          1           0        4.968513    3.242196    4.856099
     92          1           0        7.442382    1.554978    5.279037
     93          1           0        6.716442    2.905707    6.283613
     94          1           0        7.832505    3.199375    5.097203
     95          1           0        7.446311   -3.433217    2.274409
     96          1           0        6.879385   -2.169333    3.470362
     97          1           0        8.324145   -1.818474    2.432592
     98          1           0        3.211860   -4.304293   -0.367554
     99          1           0        3.049857   -6.065157   -4.315033
    100          1           0        4.748407   -6.195499   -4.033999
    101          1           0        4.075888   -4.590966   -4.518300
    102          1           0       -3.755662   -5.495177   -0.883952
    103          1           0       -4.288371   -3.783842   -1.301925
    104          1           0       -3.266380   -4.056118    1.387879
    105          1           0       -6.128388   -4.625490   -0.714351
    106          1           0       -7.341321   -4.195540    0.461261
    107          1           0       -6.857573   -5.920987    0.382102
    108          1           0       -4.801672   -5.092296    3.294569
    109          1           0       -6.358963   -5.427482    2.920098
    110          1           0       -6.911688   -3.744903    3.997978
    111          1           0       -6.472801   -2.702573    2.689046
    112          1           0       -3.996054   -2.831832    3.428303
    113          1           0       -4.633962   -3.526887    4.932901
    114          1           0       -5.996718   -1.396216    5.278502
    115          1           0       -4.269622   -0.429234    6.562561
    116          1           0       -3.076396   -0.702160    5.431314
    117          1           0       -3.553500   -2.056860    6.335655
    118          1           0       -4.493708   -0.584393    2.743360
    119          1           0       -4.603329    0.571824    4.039715
    120          1           0       -6.770112    0.979496    3.989003
    121          1           0       -7.116122   -0.563028    3.443228
    122          1           0       -5.602605    1.063372    1.312737
    123          1           0       -6.783671    2.068044    2.052595
    124          1           0       -8.619497    0.269237    1.343575
    125          1           0       -7.949067   -1.490910    0.490322
    126          1           0       -6.212262   -0.920663    0.341169
    127          1           0       -7.280863   -0.762062   -0.986758
    128          1           0       -8.142701    1.173466   -1.139037
    129          1           0       -7.071398    2.190254   -0.210068
    130          1           0       -9.024198    3.529027    0.337559
    131          1           0       -9.958743    2.033410    0.914420
    132          1           0      -11.054190    2.167317   -1.160784
    133          1           0       -9.512964    2.497219   -1.982304
    134          1           0      -10.203188    5.029709   -0.768004
    135          1           0      -12.596668    5.090207   -0.648355
    136          1           0      -12.600756    3.533439   -1.278931
    137          1           0      -12.519766    4.822003   -2.436180
    138          1           0      -10.882322    4.957183   -3.614087
    139          1           0       -9.287031    4.216347   -3.205698
    140          1           0       -9.771815    5.895992   -2.751135
 ---------------------------------------------------------------------

 SCF Done:  E(RCAM-B3LYP) =  -3007.13956658     A.U. after   17 cycles

 Excitation energies and oscillator strengths:

 Excited State   1:      Singlet-A      1.6488 eV  751.95 nm  f=0.3607  <S**2>=0.000
     245 -> 248        0.17491
     246 -> 247        0.68724
     245 <- 248        0.10781
 This state for optimization and/or second-order correction.
 Total Energy, E(TD-HF/TD-DFT) =  -3007.07897314
 Copying the excited state density for this state as the 1-particle RhoCI density.

 Excited State   2:      Singlet-A      2.1693 eV  571.54 nm  f=0.1283  <S**2>=0.000
     245 -> 247        0.64358
     246 -> 248       -0.28121

 Excited State   3:      Singlet-A      3.2950 eV  376.28 nm  f=0.0046  <S**2>=0.000
     242 -> 247       -0.14249
     243 -> 247        0.67876

 Excited State   4:      Singlet-A      3.3968 eV  365.00 nm  f=0.0105  <S**2>=0.000
     241 -> 247        0.44385
     241 -> 249        0.24710
     241 -> 250       -0.14471
     242 -> 247        0.37625
     243 -> 247        0.11706
     246 -> 248        0.14746

 Excited State   5:      Singlet-A      3.4455 eV  359.84 nm  f=0.2862  <S**2>=0.000
     241 -> 247       -0.31003
     241 -> 249       -0.11148
     242 -> 247        0.27081
     245 -> 247        0.18830
     246 -> 248        0.50726

 The electronic state is 1-A.
 Alpha  occ. eigenvalues --  -46.88733 -19.25536 -19.24952 -19.20441 -19.19006
 Alpha  occ. eigenvalues --  -19.18749 -19.18701 -14.42986 -14.42429 -14.39844
 Alpha  occ. eigenvalues --  -14.39415 -10.40276 -10.38507 -10.34662 -10.34463
 Alpha  occ. eigenvalues --  -10.32936 -10.32298 -10.31692 -10.31587 -10.31329
 Alpha  occ. eigenvalues --  -10.31196 -10.31186 -10.30113 -10.29432 -10.29372
 Alpha  occ. eigenvalues --  -10.29141 -10.28983 -10.28925 -10.28873 -10.28408
 Alpha  occ. eigenvalues --  -10.28372 -10.28087 -10.28035 -10.27798 -10.27783
 Alpha  occ. eigenvalues --  -10.27347 -10.27322 -10.27150 -10.26963 -10.26952
 Alpha  occ. eigenvalues --  -10.26608 -10.26524 -10.26518 -10.26332 -10.26190
 Alpha  occ. eigenvalues --  -10.26046 -10.25976 -10.25803 -10.25607 -10.25457
 Alpha  occ. eigenvalues --  -10.25455 -10.25402 -10.25241 -10.25223 -10.25205
 Alpha  occ. eigenvalues --  -10.25017 -10.24970 -10.24654 -10.24647 -10.24463
 Alpha  occ. eigenvalues --  -10.24426 -10.24393 -10.24328 -10.24306 -10.24152
 Alpha  occ. eigenvalues --  -10.24039  -3.17405  -1.92292  -1.91869  -1.91714
 Alpha  occ. eigenvalues --   -1.17053  -1.14658  -1.10864  -1.09379  -1.07316
 Alpha  occ. eigenvalues --   -1.06627  -1.05583  -1.04319  -1.03561  -1.02042
 Alpha  occ. eigenvalues --   -0.93365  -0.90620  -0.89521  -0.89369  -0.88920
 Alpha  occ. eigenvalues --   -0.88717  -0.87839  -0.87732  -0.86867  -0.86610
 Alpha  occ. eigenvalues --   -0.85977  -0.85693  -0.84411  -0.84215  -0.83843
 Alpha  occ. eigenvalues --   -0.82620  -0.81886  -0.81473  -0.80981  -0.80176
 Alpha  occ. eigenvalues --   -0.79657  -0.78546  -0.77738  -0.77418  -0.76221
 Alpha  occ. eigenvalues --   -0.75534  -0.75153  -0.74858  -0.74683  -0.73748
 Alpha  occ. eigenvalues --   -0.73662  -0.72915  -0.72186  -0.71138  -0.69637
 Alpha  occ. eigenvalues --   -0.69524  -0.67857  -0.67533  -0.66356  -0.66344
 Alpha  occ. eigenvalues --   -0.66042  -0.65227  -0.65093  -0.64340  -0.63604
 Alpha  occ. eigenvalues --   -0.63308  -0.62954  -0.62750  -0.62484  -0.60263
 Alpha  occ. eigenvalues --   -0.60039  -0.59517  -0.59269  -0.58842  -0.58157
 Alpha  occ. eigenvalues --   -0.57730  -0.56470  -0.56389  -0.55894  -0.55635
 Alpha  occ. eigenvalues --   -0.55428  -0.54914  -0.54373  -0.54123  -0.53773
 Alpha  occ. eigenvalues --   -0.53679  -0.53366  -0.52935  -0.52915  -0.52682
 Alpha  occ. eigenvalues --   -0.52535  -0.52316  -0.52060  -0.51957  -0.51676
 Alpha  occ. eigenvalues --   -0.51529  -0.51434  -0.51162  -0.51033  -0.50682
 Alpha  occ. eigenvalues --   -0.50080  -0.49792  -0.49762  -0.49713  -0.49623
 Alpha  occ. eigenvalues --   -0.49553  -0.49410  -0.49318  -0.49058  -0.48862
 Alpha  occ. eigenvalues --   -0.48726  -0.48377  -0.48094  -0.47900  -0.47654
 Alpha  occ. eigenvalues --   -0.47465  -0.47444  -0.47146  -0.46785  -0.46594
 Alpha  occ. eigenvalues --   -0.46544  -0.46458  -0.46329  -0.46183  -0.45881
 Alpha  occ. eigenvalues --   -0.45783  -0.45507  -0.45310  -0.45247  -0.45150
 Alpha  occ. eigenvalues --   -0.44475  -0.44383  -0.44234  -0.44073  -0.43952
 Alpha  occ. eigenvalues --   -0.43878  -0.43658  -0.43382  -0.43311  -0.42965
 Alpha  occ. eigenvalues --   -0.42775  -0.42711  -0.42515  -0.42497  -0.42148
 Alpha  occ. eigenvalues --   -0.42113  -0.41766  -0.41702  -0.41473  -0.41259
 Alpha  occ. eigenvalues --   -0.41011  -0.40855  -0.40666  -0.40562  -0.40326
 Alpha  occ. eigenvalues --   -0.40214  -0.39651  -0.39136  -0.38723  -0.38475
 Alpha  occ. eigenvalues --   -0.38085  -0.37903  -0.37655  -0.37495  -0.37410
 Alpha  occ. eigenvalues --   -0.37097  -0.36971  -0.36920  -0.36575  -0.36532
 Alpha  occ. eigenvalues --   -0.36268  -0.35554  -0.35247  -0.35068  -0.34365
 Alpha  occ. eigenvalues --   -0.34082  -0.34041  -0.33198  -0.31440  -0.31294
 Alpha  occ. eigenvalues --   -0.31177  -0.30612  -0.29998  -0.29723  -0.24452
 Alpha  occ. eigenvalues --   -0.21618
 Alpha virt. eigenvalues --   -0.09422  -0.02324   0.00037   0.02352   0.02592
 Alpha virt. eigenvalues --    0.03683   0.04370   0.06377   0.06447   0.06915
 Alpha virt. eigenvalues --    0.07577   0.07769   0.08108   0.08498   0.08542

 Mulliken charges:
               1
     1  Mg   0.845426
     2  C    0.039179
     3  C   -0.060993
     4  C   -0.075804
     5  C   -0.059885
     6  N   -0.274754
     7  C   -0.034983
     8  C   -0.015254
     9  C   -0.042361
    10  C    0.036783
    11  C    0.075139
    12  C    0.085248
    13  C    0.090379
    14  C    0.173069
    15  O   -0.238965
    16  O   -0.385584
    17  N   -0.458900
    18  C    0.147122
    19  C   -0.157772
    20  C   -0.036917
    21  C    0.155647
    22  C    0.142854
    23  C   -0.012347
    24  O   -0.195001
    25  C    0.040732
    26  N   -0.319788
    27  C    0.090928
    28  C   -0.066765
    29  C   -0.034939
    30  C    0.023419
    31  C    0.082895
    32  C    0.053357
    33  C   -0.004650
    34  N   -0.268053
    35  C    0.069660
    36  C   -0.190827
    37  C    0.025422
    38  C    0.055522
    39  C    0.128676
    40  C    0.041985
    41  O   -0.172757
    42  C   -0.037198
    43  C    0.154893
    44  O   -0.220055
    45  O   -0.323045
    46  C    0.173708
    47  C    0.250205
    48  C   -0.166939
    49  C   -0.137095
    50  C    0.122398
    51  C    0.086878
    52  C    0.043573
    53  C    0.019688
    54  C   -0.094433
    55  C    0.021255
    56  C    0.032348
    57  C    0.002313
    58  C    0.059455
    59  C   -0.151594
    60  C    0.040507
    61  C    0.058375
    62  C    0.040820
    63  C    0.026438
    64  C   -0.165418
    65  C    0.040714
    66  C    0.022878
    67  H   -0.033241
    68  H   -0.039031
    69  H   -0.032090
    70  H   -0.008356
    71  H    0.014367
    72  H    0.019969
    73  H    0.016851
    74  H    0.020780
    75  H    0.006859
    76  H    0.019370
    77  H    0.047803
    78  H    0.029525
    79  H    0.032241
    80  H   -0.004326
    81  H    0.040848
    82  H    0.058743
    83  H    0.018600
    84  H    0.028422
    85  H    0.025001
    86  H    0.013762
    87  H    0.019316
    88  H    0.013839
    89  H    0.025084
    90  H    0.010997
    91  H    0.001644
    92  H    0.023743
    93  H    0.011942
    94  H    0.003077
    95  H    0.051589
    96  H    0.036327
    97  H    0.033041
    98  H    0.021930
    99  H    0.042065
   100  H    0.053966
   101  H    0.047234
   102  H    0.046883
   103  H    0.046442
   104  H    0.016644
   105  H   -0.002305
   106  H    0.021456
   107  H    0.034309
   108  H   -0.011591
   109  H   -0.033671
   110  H   -0.010530
   111  H   -0.005847
   112  H    0.006145
   113  H   -0.004572
   114  H   -0.009476
   115  H    0.004347
   116  H   -0.005623
   117  H    0.005012
   118  H   -0.001830
   119  H   -0.010821
   120  H   -0.008385
   121  H   -0.007980
   122  H    0.002991
   123  H   -0.003646
   124  H   -0.009201
   125  H    0.018931
   126  H    0.008274
   127  H    0.004698
   128  H   -0.007833
   129  H   -0.006396
   130  H    0.001251
   131  H    0.015497
   132  H    0.001271
   133  H   -0.005671
   134  H    0.007981
   135  H    0.012297
   136  H   -0.012958
   137  H    0.008175
   138  H    0.008328
   139  H    0.009403
   140  H    0.009303
 Sum of Mulliken charges =  -0.00000

 Dipole moment (field-independent basis, Debye):
    X=             -0.3372    Y=              3.0491    Z=              1.7331  Tot=              3.5234
 Quadrupole moment (field-independent basis, Debye-Ang):
   XX=           -399.4376   YY=           -432.7734   ZZ=           -387.0761
   XY=             42.1058   XZ=              4.7459   YZ=             22.9024

 Normal termination of Gaussian 16 at Sat Apr 30 02:44:03 2022.
