 Gaussian 16, Revision A.03,
 Gaussian 16:  ES64L-G16RevA.03 25-Dec-2016

 ---------------------------------
 #p PBE1PBE/Def2SVP td=(nstates=5)
 ---------------------------------

 -----------------------------------------------------
 step_551_chromophore_17 TDDFT with PBE1PBE functional
 -----------------------------------------------------
 Symbolic Z-matrix:
 Charge =  0 Multiplicity = 1

                         Standard orientation:
 ---------------------------------------------------------------------
 Center     Atomic      Atomic             Coordinates (Angstroms)
 Number     Number       Type             X           Y           Z
 ---------------------------------------------------------------------
      1         12           0        3.905873    1.346668   -0.525438
      2          6           0        3.702788   -2.226043   -0.873874
      3          6           0        1.406779    1.568140   -2.852088
      4          6           0        3.867826    4.530788    0.234112
      5          6           0        6.349893    0.706426    1.913428
      6          7           0        2.628142   -0.175334   -1.634857
      7          6           0        2.729581   -1.566594   -1.697504
      8          6           0        1.584315   -2.127239   -2.537639
      9          6           0        1.203643   -0.913684   -3.443984
     10          6           0        1.770704    0.241186   -2.619991
     11          6           0        1.611216   -0.957645   -4.953434
     12          6           0        0.402814   -2.722607   -1.696945
     13          6           0       -0.058990   -4.210405   -1.900583
     14          6           0       -1.577229   -4.475350   -1.903610
     15          8           0       -2.196300   -5.146115   -2.741103
     16          8           0       -2.210155   -4.084268   -0.683498
     17          7           0        2.849460    2.865137   -1.266057
     18          6           0        1.866758    2.793425   -2.277258
     19          6           0        1.393889    4.110087   -2.486522
     20          6           0        2.027377    4.988082   -1.578115
     21          6           0        2.996521    4.167683   -0.830291
     22          6           0        0.217890    4.436161   -3.413672
     23          6           0        1.693824    6.458540   -1.544911
     24          8           0        0.769772    6.933362   -2.168347
     25          6           0        2.493742    7.338557   -0.696228
     26          7           0        4.767476    2.365908    1.017003
     27          6           0        4.715095    3.742684    1.032159
     28          6           0        5.320303    4.351036    2.303198
     29          6           0        6.123036    3.094676    2.871459
     30          6           0        5.724444    1.967181    1.853334
     31          6           0        6.291824    5.542001    2.176952
     32          6           0        5.780229    2.680464    4.391800
     33          6           0        6.983706    2.543533    5.290747
     34          7           0        4.865020   -0.353379    0.433579
     35          6           0        5.828652   -0.483828    1.363933
     36          6           0        6.276626   -1.804383    1.573008
     37          6           0        5.409829   -2.567314    0.799606
     38          6           0        4.613457   -1.624529    0.095315
     39          6           0        7.393112   -2.375364    2.531521
     40          6           0        5.075761   -3.878113    0.436972
     41          8           0        5.447599   -4.997849    0.787426
     42          6           0        4.026810   -3.656938   -0.689115
     43          6           0        4.536974   -4.256507   -1.968079
     44          8           0        5.596971   -3.981359   -2.484356
     45          8           0        3.667484   -5.110345   -2.499069
     46          6           0        3.910072   -5.504474   -3.947631
     47          6           0       -3.658778   -4.427544   -0.687834
     48          6           0       -4.142727   -4.274997    0.778205
     49          6           0       -5.369470   -4.597303    1.172243
     50          6           0       -6.524244   -4.889958    0.266331
     51          6           0       -5.602432   -4.681279    2.681085
     52          6           0       -6.067589   -3.441425    3.380040
     53          6           0       -4.861175   -2.873768    4.090094
     54          6           0       -5.070374   -1.444937    4.704865
     55          6           0       -3.968030   -1.181833    5.834307
     56          6           0       -5.082194   -0.311804    3.619503
     57          6           0       -6.478357    0.286599    3.200079
     58          6           0       -6.586742    1.030819    1.781763
     59          6           0       -7.704601    0.556138    0.825766
     60          6           0       -7.260568   -0.740609    0.102337
     61          6           0       -8.019289    1.653264   -0.167892
     62          6           0       -9.299195    2.486841    0.174445
     63          6           0      -10.163088    2.794348   -1.158997
     64          6           0      -10.608472    4.298694   -1.467688
     65          6           0      -12.153107    4.510523   -1.458677
     66          6           0      -10.096777    4.861692   -2.865471
     67          1           0        0.653692    1.726033   -3.627055
     68          1           0        3.758383    5.582979    0.503410
     69          1           0        7.033649    0.566427    2.753870
     70          1           0        1.965738   -2.940647   -3.153807
     71          1           0        0.140572   -0.684517   -3.369028
     72          1           0        0.760092   -0.765675   -5.606382
     73          1           0        2.040575   -1.868675   -5.371049
     74          1           0        2.367307   -0.195456   -5.141092
     75          1           0       -0.425696   -2.043334   -1.900266
     76          1           0        0.584560   -2.508109   -0.644474
     77          1           0        0.241155   -4.795627   -1.031318
     78          1           0        0.462679   -4.665956   -2.741437
     79          1           0       -0.700376    4.539420   -2.836826
     80          1           0        0.042690    3.612478   -4.105442
     81          1           0        0.422519    5.376072   -3.926527
     82          1           0        2.196693    7.447690    0.346872
     83          1           0        2.376024    8.294512   -1.205426
     84          1           0        3.566610    7.185009   -0.814909
     85          1           0        4.492527    4.610032    2.964347
     86          1           0        7.194676    3.171872    2.691499
     87          1           0        7.203984    5.335890    2.737404
     88          1           0        5.792383    6.361053    2.693827
     89          1           0        6.511430    5.724125    1.124763
     90          1           0        5.288004    1.707852    4.378047
     91          1           0        4.968513    3.242196    4.856099
     92          1           0        7.442382    1.554978    5.279037
     93          1           0        6.716442    2.905707    6.283613
     94          1           0        7.832505    3.199375    5.097203
     95          1           0        7.446311   -3.433217    2.274409
     96          1           0        6.879385   -2.169333    3.470362
     97          1           0        8.324145   -1.818474    2.432592
     98          1           0        3.211860   -4.304293   -0.367554
     99          1           0        3.049857   -6.065157   -4.315033
    100          1           0        4.748407   -6.195499   -4.033999
    101          1           0        4.075888   -4.590966   -4.518300
    102          1           0       -3.755662   -5.495177   -0.883952
    103          1           0       -4.288371   -3.783842   -1.301925
    104          1           0       -3.266380   -4.056118    1.387879
    105          1           0       -6.128388   -4.625490   -0.714351
    106          1           0       -7.341321   -4.195540    0.461261
    107          1           0       -6.857573   -5.920987    0.382102
    108          1           0       -4.801672   -5.092296    3.294569
    109          1           0       -6.358963   -5.427482    2.920098
    110          1           0       -6.911688   -3.744903    3.997978
    111          1           0       -6.472801   -2.702573    2.689046
    112          1           0       -3.996054   -2.831832    3.428303
    113          1           0       -4.633962   -3.526887    4.932901
    114          1           0       -5.996718   -1.396216    5.278502
    115          1           0       -4.269622   -0.429234    6.562561
    116          1           0       -3.076396   -0.702160    5.431314
    117          1           0       -3.553500   -2.056860    6.335655
    118          1           0       -4.493708   -0.584393    2.743360
    119          1           0       -4.603329    0.571824    4.039715
    120          1           0       -6.770112    0.979496    3.989003
    121          1           0       -7.116122   -0.563028    3.443228
    122          1           0       -5.602605    1.063372    1.312737
    123          1           0       -6.783671    2.068044    2.052595
    124          1           0       -8.619497    0.269237    1.343575
    125          1           0       -7.949067   -1.490910    0.490322
    126          1           0       -6.212262   -0.920663    0.341169
    127          1           0       -7.280863   -0.762062   -0.986758
    128          1           0       -8.142701    1.173466   -1.139037
    129          1           0       -7.071398    2.190254   -0.210068
    130          1           0       -9.024198    3.529027    0.337559
    131          1           0       -9.958743    2.033410    0.914420
    132          1           0      -11.054190    2.167317   -1.160784
    133          1           0       -9.512964    2.497219   -1.982304
    134          1           0      -10.203188    5.029709   -0.768004
    135          1           0      -12.596668    5.090207   -0.648355
    136          1           0      -12.600756    3.533439   -1.278931
    137          1           0      -12.519766    4.822003   -2.436180
    138          1           0      -10.882322    4.957183   -3.614087
    139          1           0       -9.287031    4.216347   -3.205698
    140          1           0       -9.771815    5.895992   -2.751135
 ---------------------------------------------------------------------

 SCF Done:  E(RPBE1PBE) =  -3005.32824224     A.U. after   15 cycles

 Excitation energies and oscillator strengths:

 Excited State   1:      Singlet-A      1.8118 eV  684.30 nm  f=0.3425  <S**2>=0.000
     245 -> 248       -0.17063
     246 -> 247        0.69462
     246 <- 247       -0.11413
 This state for optimization and/or second-order correction.
 Total Energy, E(TD-HF/TD-DFT) =  -3005.26165853
 Copying the excited state density for this state as the 1-particle RhoCI density.

 Excited State   2:      Singlet-A      2.1775 eV  569.39 nm  f=0.1274  <S**2>=0.000
     245 -> 247        0.65424
     246 -> 248        0.25713

 Excited State   3:      Singlet-A      2.8876 eV  429.37 nm  f=0.0001  <S**2>=0.000
     240 -> 247        0.13373
     241 -> 247       -0.10666
     242 -> 247        0.61933
     242 -> 249        0.14599
     243 -> 247       -0.22629

 Excited State   4:      Singlet-A      2.9454 eV  420.94 nm  f=0.0045  <S**2>=0.000
     242 -> 247        0.20481
     243 -> 247        0.66337

 Excited State   5:      Singlet-A      3.0785 eV  402.74 nm  f=0.0011  <S**2>=0.000
     241 -> 247        0.66729
     241 -> 249       -0.11955
     242 -> 247        0.12630

 The electronic state is 1-A.
 Alpha  occ. eigenvalues --  -46.92138 -19.26142 -19.25682 -19.20755 -19.19226
 Alpha  occ. eigenvalues --  -19.18972 -19.18911 -14.42421 -14.41991 -14.39525
 Alpha  occ. eigenvalues --  -14.39041 -10.37378 -10.35506 -10.31774 -10.31550
 Alpha  occ. eigenvalues --  -10.30139 -10.30053 -10.29399 -10.29050 -10.29040
 Alpha  occ. eigenvalues --  -10.28924 -10.28845 -10.27843 -10.27136 -10.27042
 Alpha  occ. eigenvalues --  -10.26940 -10.26734 -10.26676 -10.26423 -10.26261
 Alpha  occ. eigenvalues --  -10.26226 -10.25776 -10.25656 -10.25463 -10.25344
 Alpha  occ. eigenvalues --  -10.25017 -10.24921 -10.24798 -10.24424 -10.24390
 Alpha  occ. eigenvalues --  -10.24365 -10.24222 -10.23991 -10.23978 -10.23909
 Alpha  occ. eigenvalues --  -10.23763 -10.23352 -10.23236 -10.23026 -10.23023
 Alpha  occ. eigenvalues --  -10.22917 -10.22900 -10.22854 -10.22815 -10.22791
 Alpha  occ. eigenvalues --  -10.22695 -10.22518 -10.22205 -10.22195 -10.22032
 Alpha  occ. eigenvalues --  -10.21974 -10.21817 -10.21806 -10.21747 -10.21538
 Alpha  occ. eigenvalues --  -10.21449  -3.14387  -1.87215  -1.86771  -1.86620
 Alpha  occ. eigenvalues --   -1.11810  -1.09464  -1.05606  -1.04087  -1.02117
 Alpha  occ. eigenvalues --   -1.01524  -1.00280  -0.98973  -0.98115  -0.96692
 Alpha  occ. eigenvalues --   -0.87704  -0.84745  -0.83733  -0.83470  -0.83249
 Alpha  occ. eigenvalues --   -0.82978  -0.82137  -0.81856  -0.81213  -0.80702
 Alpha  occ. eigenvalues --   -0.80295  -0.79918  -0.78594  -0.78494  -0.78050
 Alpha  occ. eigenvalues --   -0.76847  -0.76022  -0.75723  -0.75282  -0.74400
 Alpha  occ. eigenvalues --   -0.73816  -0.72790  -0.72079  -0.71706  -0.70529
 Alpha  occ. eigenvalues --   -0.69865  -0.69316  -0.68967  -0.68779  -0.68121
 Alpha  occ. eigenvalues --   -0.67874  -0.67254  -0.66591  -0.65434  -0.64099
 Alpha  occ. eigenvalues --   -0.63855  -0.62091  -0.61980  -0.60776  -0.60598
 Alpha  occ. eigenvalues --   -0.60530  -0.59656  -0.59420  -0.58919  -0.57799
 Alpha  occ. eigenvalues --   -0.57688  -0.57122  -0.57040  -0.56936  -0.54814
 Alpha  occ. eigenvalues --   -0.54549  -0.54000  -0.53807  -0.53478  -0.52641
 Alpha  occ. eigenvalues --   -0.52238  -0.51030  -0.50827  -0.50532  -0.50031
 Alpha  occ. eigenvalues --   -0.49874  -0.49457  -0.48855  -0.48684  -0.48365
 Alpha  occ. eigenvalues --   -0.48135  -0.47793  -0.47635  -0.47304  -0.47162
 Alpha  occ. eigenvalues --   -0.47064  -0.46777  -0.46599  -0.46536  -0.46190
 Alpha  occ. eigenvalues --   -0.46067  -0.45981  -0.45796  -0.45605  -0.45187
 Alpha  occ. eigenvalues --   -0.44690  -0.44401  -0.44347  -0.44249  -0.44195
 Alpha  occ. eigenvalues --   -0.44083  -0.43968  -0.43960  -0.43697  -0.43510
 Alpha  occ. eigenvalues --   -0.43257  -0.43067  -0.42715  -0.42547  -0.42317
 Alpha  occ. eigenvalues --   -0.42138  -0.42057  -0.41872  -0.41489  -0.41292
 Alpha  occ. eigenvalues --   -0.41186  -0.41115  -0.41034  -0.40876  -0.40522
 Alpha  occ. eigenvalues --   -0.40471  -0.40251  -0.40034  -0.39994  -0.39863
 Alpha  occ. eigenvalues --   -0.39166  -0.39105  -0.38963  -0.38885  -0.38665
 Alpha  occ. eigenvalues --   -0.38496  -0.38459  -0.38181  -0.38075  -0.37780
 Alpha  occ. eigenvalues --   -0.37617  -0.37477  -0.37391  -0.37336  -0.36944
 Alpha  occ. eigenvalues --   -0.36890  -0.36584  -0.36440  -0.36353  -0.36131
 Alpha  occ. eigenvalues --   -0.35739  -0.35593  -0.35528  -0.35363  -0.35223
 Alpha  occ. eigenvalues --   -0.34987  -0.34597  -0.33892  -0.33706  -0.33253
 Alpha  occ. eigenvalues --   -0.33082  -0.32702  -0.32663  -0.32279  -0.32230
 Alpha  occ. eigenvalues --   -0.32017  -0.31902  -0.31866  -0.31597  -0.31437
 Alpha  occ. eigenvalues --   -0.31173  -0.30438  -0.30258  -0.30170  -0.29292
 Alpha  occ. eigenvalues --   -0.29274  -0.28899  -0.28461  -0.27005  -0.26398
 Alpha  occ. eigenvalues --   -0.26064  -0.25866  -0.25562  -0.24964  -0.21374
 Alpha  occ. eigenvalues --   -0.19249
 Alpha virt. eigenvalues --   -0.11836  -0.05831  -0.04175  -0.02023  -0.00944
 Alpha virt. eigenvalues --   -0.00096   0.00328   0.01875   0.02021   0.02651
 Alpha virt. eigenvalues --    0.03722   0.03867   0.04575   0.05209   0.05346

 Mulliken charges:
               1
     1  Mg   0.997232
     2  C    0.015410
     3  C   -0.058490
     4  C   -0.073215
     5  C   -0.041531
     6  N   -0.371183
     7  C    0.037427
     8  C   -0.088851
     9  C   -0.119245
    10  C    0.073159
    11  C    0.019857
    12  C    0.043323
    13  C    0.011507
    14  C    0.231997
    15  O   -0.270055
    16  O   -0.413110
    17  N   -0.577054
    18  C    0.175299
    19  C   -0.183431
    20  C   -0.088955
    21  C    0.189556
    22  C    0.083121
    23  C    0.038439
    24  O   -0.231528
    25  C   -0.034147
    26  N   -0.422710
    27  C    0.119663
    28  C   -0.139937
    29  C   -0.111116
    30  C    0.059106
    31  C    0.024569
    32  C   -0.003473
    33  C   -0.076115
    34  N   -0.390338
    35  C    0.075590
    36  C   -0.186800
    37  C   -0.024815
    38  C    0.107341
    39  C    0.070710
    40  C    0.130304
    41  O   -0.221877
    42  C   -0.142792
    43  C    0.252826
    44  O   -0.255015
    45  O   -0.356815
    46  C    0.116304
    47  C    0.210354
    48  C   -0.170619
    49  C   -0.188100
    50  C    0.053507
    51  C    0.025329
    52  C   -0.019031
    53  C   -0.042267
    54  C   -0.182729
    55  C   -0.037467
    56  C   -0.018537
    57  C   -0.054699
    58  C   -0.002329
    59  C   -0.236600
    60  C   -0.014607
    61  C    0.004388
    62  C   -0.029369
    63  C   -0.023048
    64  C   -0.257136
    65  C   -0.017177
    66  C   -0.037179
    67  H   -0.001426
    68  H   -0.003361
    69  H    0.001102
    70  H    0.036947
    71  H    0.050858
    72  H    0.046580
    73  H    0.043288
    74  H    0.048341
    75  H    0.040097
    76  H    0.051260
    77  H    0.080178
    78  H    0.060749
    79  H    0.060764
    80  H    0.024040
    81  H    0.068054
    82  H    0.084404
    83  H    0.047002
    84  H    0.054542
    85  H    0.061238
    86  H    0.050085
    87  H    0.046950
    88  H    0.041197
    89  H    0.052331
    90  H    0.044213
    91  H    0.032674
    92  H    0.049985
    93  H    0.040061
    94  H    0.030842
    95  H    0.078813
    96  H    0.064671
    97  H    0.059484
    98  H    0.061019
    99  H    0.062911
   100  H    0.075503
   101  H    0.067850
   102  H    0.075011
   103  H    0.071724
   104  H    0.045423
   105  H    0.026583
   106  H    0.050943
   107  H    0.061416
   108  H    0.021108
   109  H    0.000482
   110  H    0.021495
   111  H    0.034222
   112  H    0.040717
   113  H    0.028821
   114  H    0.028891
   115  H    0.032173
   116  H    0.022460
   117  H    0.031718
   118  H    0.029097
   119  H    0.023319
   120  H    0.024595
   121  H    0.023305
   122  H    0.034229
   123  H    0.031056
   124  H    0.028224
   125  H    0.044909
   126  H    0.036156
   127  H    0.030798
   128  H    0.024814
   129  H    0.026267
   130  H    0.036977
   131  H    0.045913
   132  H    0.033082
   133  H    0.026223
   134  H    0.044647
   135  H    0.039426
   136  H    0.014761
   137  H    0.034695
   138  H    0.034880
   139  H    0.036440
   140  H    0.036924
 Sum of Mulliken charges =  -0.00000

 Dipole moment (field-independent basis, Debye):
    X=             -0.3355    Y=              3.1151    Z=              1.8522  Tot=              3.6397
 Quadrupole moment (field-independent basis, Debye-Ang):
   XX=           -395.5572   YY=           -429.9252   ZZ=           -383.1462
   XY=             42.8229   XZ=              6.1155   YZ=             23.3711

 Normal termination of Gaussian 16 at Sat Apr 30 03:09:00 2022.
