 Gaussian 16, Revision A.03,
 Gaussian 16:  ES64L-G16RevA.03 25-Dec-2016

 --------------------------------
 #p wB97XD/Def2SVP td=(nstates=5)
 --------------------------------

 ----------------------------------------------------
 step_551_chromophore_17 TDDFT with wB97XD functional
 ----------------------------------------------------
 Symbolic Z-matrix:
 Charge =  0 Multiplicity = 1

                         Standard orientation:
 ---------------------------------------------------------------------
 Center     Atomic      Atomic             Coordinates (Angstroms)
 Number     Number       Type             X           Y           Z
 ---------------------------------------------------------------------
      1         12           0        3.905873    1.346668   -0.525438
      2          6           0        3.702788   -2.226043   -0.873874
      3          6           0        1.406779    1.568140   -2.852088
      4          6           0        3.867826    4.530788    0.234112
      5          6           0        6.349893    0.706426    1.913428
      6          7           0        2.628142   -0.175334   -1.634857
      7          6           0        2.729581   -1.566594   -1.697504
      8          6           0        1.584315   -2.127239   -2.537639
      9          6           0        1.203643   -0.913684   -3.443984
     10          6           0        1.770704    0.241186   -2.619991
     11          6           0        1.611216   -0.957645   -4.953434
     12          6           0        0.402814   -2.722607   -1.696945
     13          6           0       -0.058990   -4.210405   -1.900583
     14          6           0       -1.577229   -4.475350   -1.903610
     15          8           0       -2.196300   -5.146115   -2.741103
     16          8           0       -2.210155   -4.084268   -0.683498
     17          7           0        2.849460    2.865137   -1.266057
     18          6           0        1.866758    2.793425   -2.277258
     19          6           0        1.393889    4.110087   -2.486522
     20          6           0        2.027377    4.988082   -1.578115
     21          6           0        2.996521    4.167683   -0.830291
     22          6           0        0.217890    4.436161   -3.413672
     23          6           0        1.693824    6.458540   -1.544911
     24          8           0        0.769772    6.933362   -2.168347
     25          6           0        2.493742    7.338557   -0.696228
     26          7           0        4.767476    2.365908    1.017003
     27          6           0        4.715095    3.742684    1.032159
     28          6           0        5.320303    4.351036    2.303198
     29          6           0        6.123036    3.094676    2.871459
     30          6           0        5.724444    1.967181    1.853334
     31          6           0        6.291824    5.542001    2.176952
     32          6           0        5.780229    2.680464    4.391800
     33          6           0        6.983706    2.543533    5.290747
     34          7           0        4.865020   -0.353379    0.433579
     35          6           0        5.828652   -0.483828    1.363933
     36          6           0        6.276626   -1.804383    1.573008
     37          6           0        5.409829   -2.567314    0.799606
     38          6           0        4.613457   -1.624529    0.095315
     39          6           0        7.393112   -2.375364    2.531521
     40          6           0        5.075761   -3.878113    0.436972
     41          8           0        5.447599   -4.997849    0.787426
     42          6           0        4.026810   -3.656938   -0.689115
     43          6           0        4.536974   -4.256507   -1.968079
     44          8           0        5.596971   -3.981359   -2.484356
     45          8           0        3.667484   -5.110345   -2.499069
     46          6           0        3.910072   -5.504474   -3.947631
     47          6           0       -3.658778   -4.427544   -0.687834
     48          6           0       -4.142727   -4.274997    0.778205
     49          6           0       -5.369470   -4.597303    1.172243
     50          6           0       -6.524244   -4.889958    0.266331
     51          6           0       -5.602432   -4.681279    2.681085
     52          6           0       -6.067589   -3.441425    3.380040
     53          6           0       -4.861175   -2.873768    4.090094
     54          6           0       -5.070374   -1.444937    4.704865
     55          6           0       -3.968030   -1.181833    5.834307
     56          6           0       -5.082194   -0.311804    3.619503
     57          6           0       -6.478357    0.286599    3.200079
     58          6           0       -6.586742    1.030819    1.781763
     59          6           0       -7.704601    0.556138    0.825766
     60          6           0       -7.260568   -0.740609    0.102337
     61          6           0       -8.019289    1.653264   -0.167892
     62          6           0       -9.299195    2.486841    0.174445
     63          6           0      -10.163088    2.794348   -1.158997
     64          6           0      -10.608472    4.298694   -1.467688
     65          6           0      -12.153107    4.510523   -1.458677
     66          6           0      -10.096777    4.861692   -2.865471
     67          1           0        0.653692    1.726033   -3.627055
     68          1           0        3.758383    5.582979    0.503410
     69          1           0        7.033649    0.566427    2.753870
     70          1           0        1.965738   -2.940647   -3.153807
     71          1           0        0.140572   -0.684517   -3.369028
     72          1           0        0.760092   -0.765675   -5.606382
     73          1           0        2.040575   -1.868675   -5.371049
     74          1           0        2.367307   -0.195456   -5.141092
     75          1           0       -0.425696   -2.043334   -1.900266
     76          1           0        0.584560   -2.508109   -0.644474
     77          1           0        0.241155   -4.795627   -1.031318
     78          1           0        0.462679   -4.665956   -2.741437
     79          1           0       -0.700376    4.539420   -2.836826
     80          1           0        0.042690    3.612478   -4.105442
     81          1           0        0.422519    5.376072   -3.926527
     82          1           0        2.196693    7.447690    0.346872
     83          1           0        2.376024    8.294512   -1.205426
     84          1           0        3.566610    7.185009   -0.814909
     85          1           0        4.492527    4.610032    2.964347
     86          1           0        7.194676    3.171872    2.691499
     87          1           0        7.203984    5.335890    2.737404
     88          1           0        5.792383    6.361053    2.693827
     89          1           0        6.511430    5.724125    1.124763
     90          1           0        5.288004    1.707852    4.378047
     91          1           0        4.968513    3.242196    4.856099
     92          1           0        7.442382    1.554978    5.279037
     93          1           0        6.716442    2.905707    6.283613
     94          1           0        7.832505    3.199375    5.097203
     95          1           0        7.446311   -3.433217    2.274409
     96          1           0        6.879385   -2.169333    3.470362
     97          1           0        8.324145   -1.818474    2.432592
     98          1           0        3.211860   -4.304293   -0.367554
     99          1           0        3.049857   -6.065157   -4.315033
    100          1           0        4.748407   -6.195499   -4.033999
    101          1           0        4.075888   -4.590966   -4.518300
    102          1           0       -3.755662   -5.495177   -0.883952
    103          1           0       -4.288371   -3.783842   -1.301925
    104          1           0       -3.266380   -4.056118    1.387879
    105          1           0       -6.128388   -4.625490   -0.714351
    106          1           0       -7.341321   -4.195540    0.461261
    107          1           0       -6.857573   -5.920987    0.382102
    108          1           0       -4.801672   -5.092296    3.294569
    109          1           0       -6.358963   -5.427482    2.920098
    110          1           0       -6.911688   -3.744903    3.997978
    111          1           0       -6.472801   -2.702573    2.689046
    112          1           0       -3.996054   -2.831832    3.428303
    113          1           0       -4.633962   -3.526887    4.932901
    114          1           0       -5.996718   -1.396216    5.278502
    115          1           0       -4.269622   -0.429234    6.562561
    116          1           0       -3.076396   -0.702160    5.431314
    117          1           0       -3.553500   -2.056860    6.335655
    118          1           0       -4.493708   -0.584393    2.743360
    119          1           0       -4.603329    0.571824    4.039715
    120          1           0       -6.770112    0.979496    3.989003
    121          1           0       -7.116122   -0.563028    3.443228
    122          1           0       -5.602605    1.063372    1.312737
    123          1           0       -6.783671    2.068044    2.052595
    124          1           0       -8.619497    0.269237    1.343575
    125          1           0       -7.949067   -1.490910    0.490322
    126          1           0       -6.212262   -0.920663    0.341169
    127          1           0       -7.280863   -0.762062   -0.986758
    128          1           0       -8.142701    1.173466   -1.139037
    129          1           0       -7.071398    2.190254   -0.210068
    130          1           0       -9.024198    3.529027    0.337559
    131          1           0       -9.958743    2.033410    0.914420
    132          1           0      -11.054190    2.167317   -1.160784
    133          1           0       -9.512964    2.497219   -1.982304
    134          1           0      -10.203188    5.029709   -0.768004
    135          1           0      -12.596668    5.090207   -0.648355
    136          1           0      -12.600756    3.533439   -1.278931
    137          1           0      -12.519766    4.822003   -2.436180
    138          1           0      -10.882322    4.957183   -3.614087
    139          1           0       -9.287031    4.216347   -3.205698
    140          1           0       -9.771815    5.895992   -2.751135
 ---------------------------------------------------------------------

 SCF Done:  E(RwB97XD) =  -3007.83541809     A.U. after   20 cycles

 Excitation energies and oscillator strengths:

 Excited State   1:      Singlet-A      1.5891 eV  780.19 nm  f=0.3603  <S**2>=0.000
     245 -> 248        0.18098
     246 -> 247        0.68492
     245 <- 248        0.11752
 This state for optimization and/or second-order correction.
 Total Energy, E(TD-HF/TD-DFT) =  -3007.77701811
 Copying the excited state density for this state as the 1-particle RhoCI density.

 Excited State   2:      Singlet-A      2.1129 eV  586.80 nm  f=0.1244  <S**2>=0.000
     245 -> 247        0.64177
     246 -> 248       -0.28376

 Excited State   3:      Singlet-A      3.3234 eV  373.07 nm  f=0.0050  <S**2>=0.000
     242 -> 247       -0.17594
     243 -> 247        0.66446

 Excited State   4:      Singlet-A      3.4267 eV  361.82 nm  f=0.0418  <S**2>=0.000
     240 -> 247        0.19661
     240 -> 249        0.14824
     241 -> 247       -0.27458
     241 -> 249       -0.17961
     242 -> 247        0.43887
     242 -> 249        0.12966
     243 -> 247        0.13820
     246 -> 248        0.23776

 Excited State   5:      Singlet-A      3.4627 eV  358.05 nm  f=0.2854  <S**2>=0.000
     240 -> 247       -0.28174
     240 -> 249       -0.11401
     241 -> 247        0.27743
     241 -> 249        0.11652
     242 -> 247        0.13641
     245 -> 247        0.18449
     246 -> 248        0.48501

 The electronic state is 1-A.
 Alpha  occ. eigenvalues --  -46.95070 -19.30755 -19.30223 -19.25410 -19.24089
 Alpha  occ. eigenvalues --  -19.23742 -19.23660 -14.47623 -14.47000 -14.44466
 Alpha  occ. eigenvalues --  -14.44017 -10.44136 -10.42356 -10.38583 -10.38497
 Alpha  occ. eigenvalues --  -10.36716 -10.36361 -10.35725 -10.35507 -10.35348
 Alpha  occ. eigenvalues --  -10.35244 -10.35180 -10.34151 -10.33459 -10.33376
 Alpha  occ. eigenvalues --  -10.33225 -10.33161 -10.32937 -10.32853 -10.32442
 Alpha  occ. eigenvalues --  -10.32439 -10.32224 -10.32018 -10.31919 -10.31865
 Alpha  occ. eigenvalues --  -10.31397 -10.31356 -10.31082 -10.30853 -10.30827
 Alpha  occ. eigenvalues --  -10.30678 -10.30530 -10.30373 -10.30320 -10.30160
 Alpha  occ. eigenvalues --  -10.30044 -10.29806 -10.29614 -10.29460 -10.29390
 Alpha  occ. eigenvalues --  -10.29375 -10.29330 -10.29177 -10.29174 -10.29146
 Alpha  occ. eigenvalues --  -10.29064 -10.28896 -10.28590 -10.28563 -10.28383
 Alpha  occ. eigenvalues --  -10.28354 -10.28218 -10.28206 -10.28165 -10.27957
 Alpha  occ. eigenvalues --  -10.27854  -3.21175  -1.94754  -1.94311  -1.94151
 Alpha  occ. eigenvalues --   -1.19243  -1.16839  -1.13051  -1.11630  -1.09523
 Alpha  occ. eigenvalues --   -1.08863  -1.07629  -1.06330  -1.05574  -1.04082
 Alpha  occ. eigenvalues --   -0.95376  -0.92419  -0.91380  -0.91126  -0.90851
 Alpha  occ. eigenvalues --   -0.90561  -0.89754  -0.89530  -0.88824  -0.88369
 Alpha  occ. eigenvalues --   -0.87933  -0.87585  -0.86260  -0.86100  -0.85723
 Alpha  occ. eigenvalues --   -0.84530  -0.83699  -0.83390  -0.82924  -0.82059
 Alpha  occ. eigenvalues --   -0.81489  -0.80457  -0.79679  -0.79353  -0.78168
 Alpha  occ. eigenvalues --   -0.77474  -0.76992  -0.76651  -0.76471  -0.75705
 Alpha  occ. eigenvalues --   -0.75526  -0.74854  -0.74153  -0.73059  -0.71635
 Alpha  occ. eigenvalues --   -0.71418  -0.69722  -0.69515  -0.68259  -0.68225
 Alpha  occ. eigenvalues --   -0.68030  -0.67138  -0.67042  -0.66352  -0.65387
 Alpha  occ. eigenvalues --   -0.65289  -0.64773  -0.64572  -0.64498  -0.62252
 Alpha  occ. eigenvalues --   -0.62016  -0.61458  -0.61241  -0.60833  -0.60136
 Alpha  occ. eigenvalues --   -0.59717  -0.58429  -0.58288  -0.57880  -0.57518
 Alpha  occ. eigenvalues --   -0.57334  -0.56879  -0.56290  -0.56067  -0.55732
 Alpha  occ. eigenvalues --   -0.55573  -0.55212  -0.54892  -0.54850  -0.54563
 Alpha  occ. eigenvalues --   -0.54428  -0.54171  -0.53964  -0.53912  -0.53595
 Alpha  occ. eigenvalues --   -0.53460  -0.53337  -0.53073  -0.52938  -0.52541
 Alpha  occ. eigenvalues --   -0.52019  -0.51711  -0.51670  -0.51636  -0.51515
 Alpha  occ. eigenvalues --   -0.51470  -0.51344  -0.51260  -0.50987  -0.50766
 Alpha  occ. eigenvalues --   -0.50570  -0.50293  -0.49970  -0.49789  -0.49590
 Alpha  occ. eigenvalues --   -0.49364  -0.49337  -0.49079  -0.48712  -0.48535
 Alpha  occ. eigenvalues --   -0.48444  -0.48399  -0.48237  -0.48100  -0.47748
 Alpha  occ. eigenvalues --   -0.47705  -0.47430  -0.47218  -0.47199  -0.47036
 Alpha  occ. eigenvalues --   -0.46384  -0.46291  -0.46113  -0.45991  -0.45826
 Alpha  occ. eigenvalues --   -0.45709  -0.45609  -0.45324  -0.45244  -0.44883
 Alpha  occ. eigenvalues --   -0.44701  -0.44599  -0.44459  -0.44432  -0.44114
 Alpha  occ. eigenvalues --   -0.44038  -0.43690  -0.43573  -0.43405  -0.43172
 Alpha  occ. eigenvalues --   -0.42857  -0.42719  -0.42554  -0.42466  -0.42216
 Alpha  occ. eigenvalues --   -0.42066  -0.41565  -0.40984  -0.40642  -0.40304
 Alpha  occ. eigenvalues --   -0.40018  -0.39735  -0.39726  -0.39341  -0.39248
 Alpha  occ. eigenvalues --   -0.39094  -0.38932  -0.38837  -0.38579  -0.38424
 Alpha  occ. eigenvalues --   -0.38116  -0.37400  -0.37071  -0.37047  -0.36197
 Alpha  occ. eigenvalues --   -0.36149  -0.35970  -0.35369  -0.33630  -0.33229
 Alpha  occ. eigenvalues --   -0.33188  -0.32772  -0.32174  -0.31737  -0.26364
 Alpha  occ. eigenvalues --   -0.23419
 Alpha virt. eigenvalues --   -0.07776  -0.00396   0.02107   0.04485   0.05653
 Alpha virt. eigenvalues --    0.06036   0.06941   0.08646   0.08743   0.09328
 Alpha virt. eigenvalues --    0.10285   0.10622   0.11321   0.11993   0.12042

 Mulliken charges:
               1
     1  Mg   0.985714
     2  C    0.020219
     3  C   -0.070321
     4  C   -0.086070
     5  C   -0.063027
     6  N   -0.339141
     7  C    0.003021
     8  C   -0.055611
     9  C   -0.090426
    10  C    0.056810
    11  C    0.028028
    12  C    0.048090
    13  C    0.028685
    14  C    0.225251
    15  O   -0.269053
    16  O   -0.413401
    17  N   -0.545472
    18  C    0.164214
    19  C   -0.174042
    20  C   -0.084123
    21  C    0.182988
    22  C    0.096605
    23  C    0.036265
    24  O   -0.226316
    25  C   -0.025293
    26  N   -0.393942
    27  C    0.110037
    28  C   -0.117120
    29  C   -0.084785
    30  C    0.050926
    31  C    0.035264
    32  C    0.008400
    33  C   -0.060364
    34  N   -0.353392
    35  C    0.073829
    36  C   -0.191324
    37  C   -0.023223
    38  C    0.089940
    39  C    0.085082
    40  C    0.115443
    41  O   -0.210120
    42  C   -0.103836
    43  C    0.226427
    44  O   -0.250032
    45  O   -0.354679
    46  C    0.131932
    47  C    0.223868
    48  C   -0.181091
    49  C   -0.172174
    50  C    0.071338
    51  C    0.043542
    52  C    0.001799
    53  C   -0.018606
    54  C   -0.153961
    55  C   -0.025014
    56  C   -0.007121
    57  C   -0.038288
    58  C    0.016240
    59  C   -0.208484
    60  C   -0.002311
    61  C    0.022511
    62  C   -0.011401
    63  C   -0.006310
    64  C   -0.232474
    65  C   -0.002920
    66  C   -0.021911
    67  H   -0.008243
    68  H   -0.014973
    69  H   -0.006850
    70  H    0.015344
    71  H    0.039857
    72  H    0.041808
    73  H    0.038507
    74  H    0.042065
    75  H    0.031097
    76  H    0.044841
    77  H    0.073997
    78  H    0.056835
    79  H    0.056442
    80  H    0.018043
    81  H    0.063523
    82  H    0.082170
    83  H    0.044731
    84  H    0.049062
    85  H    0.051666
    86  H    0.037956
    87  H    0.040407
    88  H    0.036119
    89  H    0.046744
    90  H    0.035008
    91  H    0.026484
    92  H    0.044329
    93  H    0.034830
    94  H    0.023486
    95  H    0.075327
    96  H    0.058404
    97  H    0.055204
    98  H    0.053676
    99  H    0.060181
   100  H    0.072351
   101  H    0.064081
   102  H    0.068643
   103  H    0.065655
   104  H    0.042367
   105  H    0.019037
   106  H    0.043804
   107  H    0.056964
   108  H    0.012006
   109  H   -0.006667
   110  H    0.015863
   111  H    0.011562
   112  H    0.026352
   113  H    0.018453
   114  H    0.017234
   115  H    0.026756
   116  H    0.015092
   117  H    0.026556
   118  H    0.019106
   119  H    0.014325
   120  H    0.017516
   121  H    0.010981
   122  H    0.025315
   123  H    0.021448
   124  H    0.016274
   125  H    0.038490
   126  H    0.026478
   127  H    0.026093
   128  H    0.012560
   129  H    0.017481
   130  H    0.025607
   131  H    0.039637
   132  H    0.024502
   133  H    0.013339
   134  H    0.033790
   135  H    0.034466
   136  H    0.006585
   137  H    0.027761
   138  H    0.027676
   139  H    0.029874
   140  H    0.031217
 Sum of Mulliken charges =  -0.00000

 Dipole moment (field-independent basis, Debye):
    X=             -0.3406    Y=              3.0840    Z=              1.7683  Tot=              3.5712
 Quadrupole moment (field-independent basis, Debye-Ang):
   XX=           -395.6044   YY=           -428.6616   ZZ=           -382.8708
   XY=             42.3288   XZ=              5.6166   YZ=             23.0734

 Normal termination of Gaussian 16 at Sat Apr 30 03:47:07 2022.
