 Gaussian 16, Revision A.03,
 Gaussian 16:  ES64L-G16RevA.03 25-Dec-2016

 --------------------
 #p ZINDO=(nstates=5)
 --------------------

 -----------------------------
 step_551_chromophore_17 ZINDO
 -----------------------------
 Symbolic Z-matrix:
 Charge =  0 Multiplicity = 1

                         Standard orientation:
 ---------------------------------------------------------------------
 Center     Atomic      Atomic             Coordinates (Angstroms)
 Number     Number       Type             X           Y           Z
 ---------------------------------------------------------------------
      1         12           0        3.905873    1.346668   -0.525438
      2          6           0        3.702788   -2.226043   -0.873874
      3          6           0        1.406779    1.568140   -2.852088
      4          6           0        3.867826    4.530788    0.234112
      5          6           0        6.349893    0.706426    1.913428
      6          7           0        2.628142   -0.175334   -1.634857
      7          6           0        2.729581   -1.566594   -1.697504
      8          6           0        1.584315   -2.127239   -2.537639
      9          6           0        1.203643   -0.913684   -3.443984
     10          6           0        1.770704    0.241186   -2.619991
     11          6           0        1.611216   -0.957645   -4.953434
     12          6           0        0.402814   -2.722607   -1.696945
     13          6           0       -0.058990   -4.210405   -1.900583
     14          6           0       -1.577229   -4.475350   -1.903610
     15          8           0       -2.196300   -5.146115   -2.741103
     16          8           0       -2.210155   -4.084268   -0.683498
     17          7           0        2.849460    2.865137   -1.266057
     18          6           0        1.866758    2.793425   -2.277258
     19          6           0        1.393889    4.110087   -2.486522
     20          6           0        2.027377    4.988082   -1.578115
     21          6           0        2.996521    4.167683   -0.830291
     22          6           0        0.217890    4.436161   -3.413672
     23          6           0        1.693824    6.458540   -1.544911
     24          8           0        0.769772    6.933362   -2.168347
     25          6           0        2.493742    7.338557   -0.696228
     26          7           0        4.767476    2.365908    1.017003
     27          6           0        4.715095    3.742684    1.032159
     28          6           0        5.320303    4.351036    2.303198
     29          6           0        6.123036    3.094676    2.871459
     30          6           0        5.724444    1.967181    1.853334
     31          6           0        6.291824    5.542001    2.176952
     32          6           0        5.780229    2.680464    4.391800
     33          6           0        6.983706    2.543533    5.290747
     34          7           0        4.865020   -0.353379    0.433579
     35          6           0        5.828652   -0.483828    1.363933
     36          6           0        6.276626   -1.804383    1.573008
     37          6           0        5.409829   -2.567314    0.799606
     38          6           0        4.613457   -1.624529    0.095315
     39          6           0        7.393112   -2.375364    2.531521
     40          6           0        5.075761   -3.878113    0.436972
     41          8           0        5.447599   -4.997849    0.787426
     42          6           0        4.026810   -3.656938   -0.689115
     43          6           0        4.536974   -4.256507   -1.968079
     44          8           0        5.596971   -3.981359   -2.484356
     45          8           0        3.667484   -5.110345   -2.499069
     46          6           0        3.910072   -5.504474   -3.947631
     47          6           0       -3.658778   -4.427544   -0.687834
     48          6           0       -4.142727   -4.274997    0.778205
     49          6           0       -5.369470   -4.597303    1.172243
     50          6           0       -6.524244   -4.889958    0.266331
     51          6           0       -5.602432   -4.681279    2.681085
     52          6           0       -6.067589   -3.441425    3.380040
     53          6           0       -4.861175   -2.873768    4.090094
     54          6           0       -5.070374   -1.444937    4.704865
     55          6           0       -3.968030   -1.181833    5.834307
     56          6           0       -5.082194   -0.311804    3.619503
     57          6           0       -6.478357    0.286599    3.200079
     58          6           0       -6.586742    1.030819    1.781763
     59          6           0       -7.704601    0.556138    0.825766
     60          6           0       -7.260568   -0.740609    0.102337
     61          6           0       -8.019289    1.653264   -0.167892
     62          6           0       -9.299195    2.486841    0.174445
     63          6           0      -10.163088    2.794348   -1.158997
     64          6           0      -10.608472    4.298694   -1.467688
     65          6           0      -12.153107    4.510523   -1.458677
     66          6           0      -10.096777    4.861692   -2.865471
     67          1           0        0.653692    1.726033   -3.627055
     68          1           0        3.758383    5.582979    0.503410
     69          1           0        7.033649    0.566427    2.753870
     70          1           0        1.965738   -2.940647   -3.153807
     71          1           0        0.140572   -0.684517   -3.369028
     72          1           0        0.760092   -0.765675   -5.606382
     73          1           0        2.040575   -1.868675   -5.371049
     74          1           0        2.367307   -0.195456   -5.141092
     75          1           0       -0.425696   -2.043334   -1.900266
     76          1           0        0.584560   -2.508109   -0.644474
     77          1           0        0.241155   -4.795627   -1.031318
     78          1           0        0.462679   -4.665956   -2.741437
     79          1           0       -0.700376    4.539420   -2.836826
     80          1           0        0.042690    3.612478   -4.105442
     81          1           0        0.422519    5.376072   -3.926527
     82          1           0        2.196693    7.447690    0.346872
     83          1           0        2.376024    8.294512   -1.205426
     84          1           0        3.566610    7.185009   -0.814909
     85          1           0        4.492527    4.610032    2.964347
     86          1           0        7.194676    3.171872    2.691499
     87          1           0        7.203984    5.335890    2.737404
     88          1           0        5.792383    6.361053    2.693827
     89          1           0        6.511430    5.724125    1.124763
     90          1           0        5.288004    1.707852    4.378047
     91          1           0        4.968513    3.242196    4.856099
     92          1           0        7.442382    1.554978    5.279037
     93          1           0        6.716442    2.905707    6.283613
     94          1           0        7.832505    3.199375    5.097203
     95          1           0        7.446311   -3.433217    2.274409
     96          1           0        6.879385   -2.169333    3.470362
     97          1           0        8.324145   -1.818474    2.432592
     98          1           0        3.211860   -4.304293   -0.367554
     99          1           0        3.049857   -6.065157   -4.315033
    100          1           0        4.748407   -6.195499   -4.033999
    101          1           0        4.075888   -4.590966   -4.518300
    102          1           0       -3.755662   -5.495177   -0.883952
    103          1           0       -4.288371   -3.783842   -1.301925
    104          1           0       -3.266380   -4.056118    1.387879
    105          1           0       -6.128388   -4.625490   -0.714351
    106          1           0       -7.341321   -4.195540    0.461261
    107          1           0       -6.857573   -5.920987    0.382102
    108          1           0       -4.801672   -5.092296    3.294569
    109          1           0       -6.358963   -5.427482    2.920098
    110          1           0       -6.911688   -3.744903    3.997978
    111          1           0       -6.472801   -2.702573    2.689046
    112          1           0       -3.996054   -2.831832    3.428303
    113          1           0       -4.633962   -3.526887    4.932901
    114          1           0       -5.996718   -1.396216    5.278502
    115          1           0       -4.269622   -0.429234    6.562561
    116          1           0       -3.076396   -0.702160    5.431314
    117          1           0       -3.553500   -2.056860    6.335655
    118          1           0       -4.493708   -0.584393    2.743360
    119          1           0       -4.603329    0.571824    4.039715
    120          1           0       -6.770112    0.979496    3.989003
    121          1           0       -7.116122   -0.563028    3.443228
    122          1           0       -5.602605    1.063372    1.312737
    123          1           0       -6.783671    2.068044    2.052595
    124          1           0       -8.619497    0.269237    1.343575
    125          1           0       -7.949067   -1.490910    0.490322
    126          1           0       -6.212262   -0.920663    0.341169
    127          1           0       -7.280863   -0.762062   -0.986758
    128          1           0       -8.142701    1.173466   -1.139037
    129          1           0       -7.071398    2.190254   -0.210068
    130          1           0       -9.024198    3.529027    0.337559
    131          1           0       -9.958743    2.033410    0.914420
    132          1           0      -11.054190    2.167317   -1.160784
    133          1           0       -9.512964    2.497219   -1.982304
    134          1           0      -10.203188    5.029709   -0.768004
    135          1           0      -12.596668    5.090207   -0.648355
    136          1           0      -12.600756    3.533439   -1.278931
    137          1           0      -12.519766    4.822003   -2.436180
    138          1           0      -10.882322    4.957183   -3.614087
    139          1           0       -9.287031    4.216347   -3.205698
    140          1           0       -9.771815    5.895992   -2.751135
 ---------------------------------------------------------------------

 SCF Done:  E(RZINDO/S) =  -474.076597772     A.U. after   19 cycles

 Excitation energies and oscillator strengths:

 Excited State   1:      Singlet-A      1.1875 eV 1044.07 nm  f=0.5885  <S**2>=0.000
     175 ->178         0.19144
     176 ->177         0.66226
 This state for optimization and/or second-order correction.
 Total Energy, E(CIS/TDA) =  -474.032957654
 Copying the excited state density for this state as the 1-particle RhoCI density.

 Excited State   2:      Singlet-A      1.8620 eV  665.88 nm  f=0.0391  <S**2>=0.000
     175 ->177         0.54202
     176 ->178        -0.43014

 Excited State   3:      Singlet-A      2.8999 eV  427.54 nm  f=0.1617  <S**2>=0.000
     168 ->177         0.30957
     168 ->178        -0.11872
     168 ->179         0.31250
     168 ->181         0.20288
     168 ->185        -0.15926
     169 ->177        -0.12069
     169 ->179        -0.12303
     171 ->177         0.15523
     175 ->177         0.15998
     176 ->178         0.21939
     176 ->179        -0.13687

 Excited State   4:      Singlet-A      2.9205 eV  424.53 nm  f=0.6751  <S**2>=0.000
     168 ->177        -0.19868
     168 ->179        -0.19166
     168 ->181        -0.11947
     175 ->177         0.31303
     176 ->178         0.41567
     176 ->179        -0.26952

 Excited State   5:      Singlet-A      2.9966 eV  413.75 nm  f=0.2118  <S**2>=0.000
     170 ->177        -0.13910
     170 ->178         0.10189
     170 ->179         0.16038
     170 ->181        -0.23092
     170 ->185        -0.12826
     175 ->177         0.15816
     176 ->178         0.19683
     176 ->179         0.47263

 The electronic state is 1-A.
 Alpha  occ. eigenvalues --   -1.86497  -1.80915  -1.79696  -1.73886  -1.71688
 Alpha  occ. eigenvalues --   -1.69883  -1.63760  -1.61362  -1.60390  -1.60090
 Alpha  occ. eigenvalues --   -1.52968  -1.50689  -1.47610  -1.46947  -1.45478
 Alpha  occ. eigenvalues --   -1.43909  -1.43349  -1.41109  -1.38237  -1.38168
 Alpha  occ. eigenvalues --   -1.36230  -1.33756  -1.33459  -1.30893  -1.28909
 Alpha  occ. eigenvalues --   -1.27969  -1.27182  -1.23635  -1.19975  -1.18441
 Alpha  occ. eigenvalues --   -1.17133  -1.15397  -1.14577  -1.13740  -1.12640
 Alpha  occ. eigenvalues --   -1.12350  -1.09800  -1.09198  -1.05780  -1.04395
 Alpha  occ. eigenvalues --   -1.02285  -1.02036  -0.99671  -0.98661  -0.97645
 Alpha  occ. eigenvalues --   -0.96126  -0.94651  -0.92913  -0.92806  -0.92215
 Alpha  occ. eigenvalues --   -0.91105  -0.90862  -0.88532  -0.88281  -0.88162
 Alpha  occ. eigenvalues --   -0.86795  -0.85554  -0.83554  -0.82325  -0.80751
 Alpha  occ. eigenvalues --   -0.79853  -0.78749  -0.77500  -0.76205  -0.75557
 Alpha  occ. eigenvalues --   -0.75462  -0.74657  -0.74293  -0.73599  -0.73489
 Alpha  occ. eigenvalues --   -0.73151  -0.71837  -0.71384  -0.71174  -0.71010
 Alpha  occ. eigenvalues --   -0.70251  -0.70067  -0.68813  -0.67952  -0.67571
 Alpha  occ. eigenvalues --   -0.67389  -0.67121  -0.66757  -0.65994  -0.65630
 Alpha  occ. eigenvalues --   -0.64795  -0.64465  -0.64314  -0.64237  -0.64095
 Alpha  occ. eigenvalues --   -0.63957  -0.63484  -0.63220  -0.62633  -0.62351
 Alpha  occ. eigenvalues --   -0.61681  -0.61521  -0.61223  -0.61051  -0.60263
 Alpha  occ. eigenvalues --   -0.60019  -0.59400  -0.59086  -0.58702  -0.57718
 Alpha  occ. eigenvalues --   -0.57434  -0.57226  -0.56820  -0.56629  -0.56299
 Alpha  occ. eigenvalues --   -0.55747  -0.55707  -0.55625  -0.55233  -0.55132
 Alpha  occ. eigenvalues --   -0.54340  -0.53984  -0.53660  -0.53472  -0.53026
 Alpha  occ. eigenvalues --   -0.52827  -0.52475  -0.52413  -0.52003  -0.51737
 Alpha  occ. eigenvalues --   -0.51612  -0.51293  -0.51200  -0.51067  -0.50864
 Alpha  occ. eigenvalues --   -0.50280  -0.49891  -0.49818  -0.49654  -0.49142
 Alpha  occ. eigenvalues --   -0.49046  -0.48795  -0.48263  -0.47936  -0.47589
 Alpha  occ. eigenvalues --   -0.47278  -0.47156  -0.46888  -0.46614  -0.46520
 Alpha  occ. eigenvalues --   -0.46334  -0.46126  -0.45938  -0.45757  -0.45387
 Alpha  occ. eigenvalues --   -0.45140  -0.45072  -0.44575  -0.44530  -0.44125
 Alpha  occ. eigenvalues --   -0.43634  -0.43433  -0.43235  -0.43024  -0.42837
 Alpha  occ. eigenvalues --   -0.42491  -0.41890  -0.41802  -0.39367  -0.39057
 Alpha  occ. eigenvalues --   -0.38024  -0.37901  -0.35270  -0.35074  -0.34971
 Alpha  occ. eigenvalues --   -0.33720  -0.33018  -0.32658  -0.32306  -0.27092
 Alpha  occ. eigenvalues --   -0.22115
 Alpha virt. eigenvalues --   -0.09178  -0.02769  -0.00890   0.00781   0.01561
 Alpha virt. eigenvalues --    0.01907   0.02555   0.03173   0.04259   0.05129
 Alpha virt. eigenvalues --    0.05384   0.06355   0.07241   0.07388   0.07818

 Mulliken charges:
               1
     1  Mg   0.435358
     2  C   -0.044517
     3  C   -0.063889
     4  C   -0.082182
     5  C   -0.093434
     6  N   -0.290763
     7  C    0.121179
     8  C    0.019657
     9  C    0.006769
    10  C    0.126039
    11  C   -0.048401
    12  C   -0.022953
    13  C    0.014086
    14  C    0.457617
    15  O   -0.507946
    16  O   -0.282764
    17  N   -0.328324
    18  C    0.089297
    19  C    0.033798
    20  C   -0.061013
    21  C    0.121753
    22  C   -0.041366
    23  C    0.340038
    24  O   -0.520788
    25  C   -0.036280
    26  N   -0.257972
    27  C    0.116324
    28  C   -0.000229
    29  C   -0.012621
    30  C    0.147743
    31  C   -0.051989
    32  C   -0.026324
    33  C   -0.054461
    34  N   -0.322138
    35  C    0.129048
    36  C    0.028597
    37  C   -0.041900
    38  C    0.117464
    39  C   -0.044025
    40  C    0.339041
    41  O   -0.525715
    42  C    0.060215
    43  C    0.495009
    44  O   -0.533096
    45  O   -0.274202
    46  C    0.074922
    47  C    0.091779
    48  C   -0.095208
    49  C   -0.003197
    50  C   -0.040305
    51  C   -0.027215
    52  C   -0.024334
    53  C   -0.024266
    54  C   -0.015746
    55  C   -0.069002
    56  C   -0.037905
    57  C   -0.053373
    58  C   -0.025427
    59  C   -0.008003
    60  C   -0.064651
    61  C   -0.034468
    62  C   -0.047641
    63  C   -0.046714
    64  C   -0.017656
    65  C   -0.064862
    66  C   -0.063454
    67  H    0.025518
    68  H    0.025933
    69  H    0.017936
    70  H    0.025592
    71  H    0.030608
    72  H    0.020819
    73  H    0.025091
    74  H    0.023264
    75  H    0.023182
    76  H    0.027879
    77  H    0.044057
    78  H    0.045196
    79  H    0.036452
    80  H    0.015889
    81  H    0.043299
    82  H    0.050867
    83  H    0.027567
    84  H    0.026680
    85  H    0.038713
    86  H    0.037817
    87  H    0.022902
    88  H    0.019916
    89  H    0.030760
    90  H    0.017171
    91  H    0.026975
    92  H    0.025776
    93  H    0.017108
    94  H    0.012647
    95  H    0.047980
    96  H    0.037289
    97  H    0.038190
    98  H    0.042440
    99  H    0.032619
   100  H    0.051267
   101  H    0.047602
   102  H    0.057953
   103  H    0.057894
   104  H    0.039824
   105  H    0.024962
   106  H    0.028776
   107  H    0.039124
   108  H    0.021174
   109  H    0.002562
   110  H    0.019480
   111  H    0.018332
   112  H    0.027657
   113  H    0.016046
   114  H    0.020756
   115  H    0.016340
   116  H    0.008478
   117  H    0.021611
   118  H    0.022164
   119  H    0.009684
   120  H    0.012693
   121  H    0.020852
   122  H    0.027314
   123  H    0.009678
   124  H    0.022181
   125  H    0.017517
   126  H    0.018107
   127  H    0.020789
   128  H    0.017585
   129  H    0.024767
   130  H    0.028098
   131  H    0.036785
   132  H    0.021220
   133  H    0.019575
   134  H    0.022600
   135  H    0.021844
   136  H    0.007380
   137  H    0.023853
   138  H    0.021903
   139  H    0.020369
   140  H    0.016059
 Sum of Mulliken charges =  -0.00000

 Dipole moment (field-independent basis, Debye):
    X=              0.1201    Y=              3.6685    Z=              3.5044  Tot=              5.0747
 N-N= 4.469593745863D+03 E-N= 0.000000000000D+00  KE=-9.612754675903D+03
 Leave Link  601 at Sat Apr 30 04:06:38 2022, MaxMem=  6710886400 cpu:               0.7 elap:               0.0
 (Enter /sw/apps/gaussian-16.0/g16/l9999.exe)
 1\1\GINC-BP1-COMPUTE154\SP\RZINDO CIS\STO-3G\C55H74Mg1N4O6\OF15641\30-
 Apr-2022\0\\#p ZINDO=(nstates=5)\\step_551_chromophore_17 ZINDO\\0,1\M
 g,0,29.52,59.2,40.431\C,0,26.353,57.8,39.463\C,0,30.987,56.379,39.167\
 C,0,32.34,60.787,40.927\C,0,27.666,61.986,41.495\N,0,28.747,57.363,39.
 332\C,0,27.439,56.94,39.087\C,0,27.461,55.663,38.25\C,0,28.869,55.07,3
 8.574\C,0,29.597,56.323,39.058\C,0,28.95,53.815,39.504\C,0,27.172,55.8
 89,36.726\C,0,25.993,55.136,36.011\C,0,26.271,54.587,34.598\O,0,26.01,

 Normal termination of Gaussian 16 at Sat Apr 30 04:06:38 2022.
