 Gaussian 16, Revision A.03,
 Gaussian 16:  ES64L-G16RevA.03 25-Dec-2016

 ------------------------------
 #p blyp/Def2SVP td=(nstates=5)
 ------------------------------

 ---------------------------------------------------
 step_1801_chromophore_12 TDDFT with blyp functional
 ---------------------------------------------------
 Symbolic Z-matrix:
 Charge =  0 Multiplicity = 1

                         Standard orientation:
 ---------------------------------------------------------------------
 Center     Atomic      Atomic             Coordinates (Angstroms)
 Number     Number       Type             X           Y           Z
 ---------------------------------------------------------------------
      1         12           0       -4.123829    0.476720   -0.263470
      2          6           0       -2.992483   -2.785713    0.561082
      3          6           0       -0.768218    1.333580   -0.566789
      4          6           0       -5.081510    3.467256   -1.116693
      5          6           0       -7.420214   -0.581800    0.400988
      6          7           0       -2.107195   -0.692962   -0.145564
      7          6           0       -1.934800   -1.972241    0.238753
      8          6           0       -0.455064   -2.318785    0.138477
      9          6           0        0.291791   -0.875668    0.064965
     10          6           0       -0.928833   -0.040781   -0.305979
     11          6           0        0.856875   -0.350127    1.412019
     12          6           0       -0.141378   -3.339233   -0.980889
     13          6           0        1.085679   -4.301370   -0.780360
     14          6           0        2.112231   -4.233443   -1.896787
     15          8           0        1.930398   -4.065678   -3.105328
     16          8           0        3.330170   -4.392471   -1.339089
     17          7           0       -3.072350    2.187577   -0.717849
     18          6           0       -1.740272    2.332827   -0.807882
     19          6           0       -1.437935    3.750215   -0.993942
     20          6           0       -2.696902    4.387915   -1.395755
     21          6           0       -3.669292    3.366950   -1.158377
     22          6           0       -0.008884    4.329277   -0.931616
     23          6           0       -3.031277    5.864111   -1.920658
     24          8           0       -4.155901    6.401334   -1.876212
     25          6           0       -1.836842    6.671872   -2.298009
     26          7           0       -6.029196    1.376457   -0.175652
     27          6           0       -6.143783    2.608858   -0.633595
     28          6           0       -7.658455    2.899897   -0.891585
     29          6           0       -8.379422    1.688167   -0.263680
     30          6           0       -7.220093    0.720455    0.042167
     31          6           0       -8.005343    4.300567   -0.274752
     32          6           0       -9.694277    1.200955   -0.957256
     33          6           0       -9.651144    0.081953   -2.092704
     34          7           0       -5.092181   -1.371478    0.255717
     35          6           0       -6.473751   -1.626032    0.605591
     36          6           0       -6.615180   -3.020190    1.024297
     37          6           0       -5.292667   -3.526376    0.904286
     38          6           0       -4.403206   -2.468426    0.616332
     39          6           0       -7.876490   -3.830926    1.307410
     40          6           0       -4.449223   -4.704239    1.031161
     41          8           0       -4.783220   -5.825545    1.358992
     42          6           0       -2.982628   -4.216073    0.943312
     43          6           0       -2.408705   -4.445861    2.324039
     44          8           0       -2.833029   -3.982313    3.406985
     45          8           0       -1.353096   -5.309769    2.346046
     46          6           0       -0.766444   -5.669252    3.622565
     47          6           0        4.402869   -4.469692   -2.367179
     48          6           0        5.744971   -4.291121   -1.809649
     49          6           0        6.860163   -3.816068   -2.325379
     50          6           0        6.890813   -3.279411   -3.697582
     51          6           0        8.149364   -3.635793   -1.567021
     52          6           0        8.689734   -2.194981   -1.550841
     53          6           0        9.560629   -2.034031   -0.324812
     54          6           0       10.257647   -0.678595   -0.125901
     55          6           0       11.675975   -0.907259    0.483849
     56          6           0        9.450432    0.339051    0.698861
     57          6           0        9.468595    1.734205    0.001824
     58          6           0        9.061823    2.779062    1.059998
     59          6           0        7.832455    3.670344    0.724624
     60          6           0        8.301304    5.125792    0.384182
     61          6           0        6.709213    3.665296    1.768725
     62          6           0        5.305896    4.076127    1.248239
     63          6           0        4.544203    5.221744    2.026395
     64          6           0        3.120766    4.859793    2.532823
     65          6           0        2.273511    6.183222    2.655588
     66          6           0        3.225105    4.104552    3.851704
     67          1           0        0.259582    1.670585   -0.415966
     68          1           0       -5.414439    4.456453   -1.436707
     69          1           0       -8.479949   -0.810112    0.533470
     70          1           0       -0.097953   -2.773568    1.061999
     71          1           0        0.985386   -0.787614   -0.772198
     72          1           0        1.037455   -1.151988    2.128186
     73          1           0        0.156213    0.327383    1.900329
     74          1           0        1.747790    0.248500    1.223052
     75          1           0        0.191034   -2.619043   -1.728522
     76          1           0       -1.041167   -3.812376   -1.373722
     77          1           0        0.933531   -5.375492   -0.673749
     78          1           0        1.620177   -4.115774    0.152000
     79          1           0        0.662348    3.559952   -0.549813
     80          1           0       -0.152737    5.175404   -0.260336
     81          1           0        0.255968    4.708904   -1.918414
     82          1           0       -2.014132    7.634724   -2.776228
     83          1           0       -1.219948    6.142155   -3.023609
     84          1           0       -1.334947    6.899689   -1.356685
     85          1           0       -7.666976    2.979497   -1.979303
     86          1           0       -8.696122    2.006682    0.729953
     87          1           0       -9.039383    4.098109    0.004111
     88          1           0       -8.222632    4.996787   -1.085369
     89          1           0       -7.436942    4.535816    0.624470
     90          1           0      -10.096844    2.091835   -1.438854
     91          1           0      -10.366174    1.036374   -0.114908
     92          1           0      -10.268768    0.262127   -2.973231
     93          1           0      -10.080337   -0.874336   -1.793648
     94          1           0       -8.612909   -0.154786   -2.322030
     95          1           0       -7.784013   -4.449828    2.199253
     96          1           0       -8.057918   -4.533072    0.493499
     97          1           0       -8.725826   -3.163329    1.453261
     98          1           0       -2.381349   -4.843726    0.285844
     99          1           0       -1.289261   -5.291001    4.500813
    100          1           0        0.231279   -5.233977    3.687532
    101          1           0       -0.776156   -6.757249    3.692237
    102          1           0        4.255081   -3.669417   -3.093154
    103          1           0        4.506793   -5.482607   -2.754993
    104          1           0        5.723748   -4.610568   -0.766914
    105          1           0        7.854813   -3.493060   -4.158971
    106          1           0        6.803206   -2.202910   -3.550682
    107          1           0        6.150588   -3.643367   -4.409739
    108          1           0        8.780086   -4.376783   -2.058472
    109          1           0        8.061640   -4.119301   -0.594498
    110          1           0        7.875081   -1.481878   -1.421998
    111          1           0        9.357053   -1.793250   -2.312643
    112          1           0       10.320167   -2.806302   -0.454421
    113          1           0        8.972287   -2.098947    0.590635
    114          1           0       10.401020   -0.223303   -1.105709
    115          1           0       12.404248   -0.595324   -0.265497
    116          1           0       11.891162   -1.954953    0.693410
    117          1           0       11.830429   -0.418632    1.445398
    118          1           0        9.891637    0.357631    1.694899
    119          1           0        8.389105    0.091086    0.706839
    120          1           0        8.785360    1.778351   -0.845347
    121          1           0       10.444243    2.051150   -0.368018
    122          1           0        9.956815    3.382128    1.214004
    123          1           0        8.828854    2.333869    2.027462
    124          1           0        7.292151    3.280199   -0.137799
    125          1           0        7.671938    5.601821   -0.368182
    126          1           0        9.279563    5.135483   -0.095916
    127          1           0        8.355917    5.655607    1.334996
    128          1           0        6.987479    4.255153    2.641010
    129          1           0        6.606893    2.637879    2.118716
    130          1           0        4.596289    3.262235    1.395265
    131          1           0        5.392157    4.378422    0.204577
    132          1           0        4.403358    5.940738    1.220225
    133          1           0        5.125238    5.682332    2.824985
    134          1           0        2.689311    4.189134    1.790823
    135          1           0        2.696616    7.187716    2.671698
    136          1           0        1.609913    6.045865    3.509556
    137          1           0        1.616561    6.188579    1.785514
    138          1           0        2.626219    4.559453    4.640329
    139          1           0        4.251682    4.046318    4.212418
    140          1           0        2.757265    3.120166    3.845907
 ---------------------------------------------------------------------

 SCF Done:  E(RB-LYP) =  -3007.36786433     A.U. after   21 cycles

 Excitation energies and oscillator strengths:

 Excited State   1:      Singlet-A      1.8308 eV  677.23 nm  f=0.3008  <S**2>=0.000
     245 -> 248       -0.15804
     245 -> 249       -0.13656
     246 -> 247        0.67789
     246 <- 247       -0.13883
 This state for optimization and/or second-order correction.
 Total Energy, E(TD-HF/TD-DFT) =  -3007.30058490
 Copying the excited state density for this state as the 1-particle RhoCI density.

 Excited State   2:      Singlet-A      1.8501 eV  670.15 nm  f=0.0154  <S**2>=0.000
     244 -> 247        0.66122
     245 -> 247       -0.21247

 Excited State   3:      Singlet-A      1.9546 eV  634.31 nm  f=0.0727  <S**2>=0.000
     244 -> 247        0.23010
     245 -> 247        0.61806
     246 -> 248        0.16808
     246 -> 249        0.13085

 Excited State   4:      Singlet-A      2.2702 eV  546.14 nm  f=0.0008  <S**2>=0.000
     242 -> 247        0.50548
     243 -> 247       -0.48408

 Excited State   5:      Singlet-A      2.3575 eV  525.92 nm  f=0.0001  <S**2>=0.000
     241 -> 247        0.70172

 The electronic state is 1-A.
 Alpha  occ. eigenvalues --  -46.27503 -18.82688 -18.81900 -18.77079 -18.76565
 Alpha  occ. eigenvalues --  -18.75397 -18.74959 -14.02988 -14.02907 -14.01027
 Alpha  occ. eigenvalues --  -14.00448 -10.04006 -10.03579 -10.01661  -9.98838
 Alpha  occ. eigenvalues --   -9.97587  -9.97219  -9.96746  -9.96453  -9.96240
 Alpha  occ. eigenvalues --   -9.96026  -9.96024  -9.95879  -9.95680  -9.94872
 Alpha  occ. eigenvalues --   -9.94585  -9.94309  -9.94201  -9.93942  -9.93860
 Alpha  occ. eigenvalues --   -9.93838  -9.93780  -9.93726  -9.93667  -9.93589
 Alpha  occ. eigenvalues --   -9.93457  -9.93431  -9.93316  -9.93014  -9.92854
 Alpha  occ. eigenvalues --   -9.92795  -9.92753  -9.92725  -9.92527  -9.92471
 Alpha  occ. eigenvalues --   -9.92255  -9.92230  -9.92221  -9.92181  -9.92040
 Alpha  occ. eigenvalues --   -9.91900  -9.91812  -9.91689  -9.91618  -9.91606
 Alpha  occ. eigenvalues --   -9.91603  -9.91335  -9.91200  -9.91163  -9.91060
 Alpha  occ. eigenvalues --   -9.91050  -9.91022  -9.90925  -9.90860  -9.90810
 Alpha  occ. eigenvalues --   -9.90434  -2.91962  -1.72412  -1.71843  -1.71665
 Alpha  occ. eigenvalues --   -0.98467  -0.97273  -0.91328  -0.91098  -0.89347
 Alpha  occ. eigenvalues --   -0.87538  -0.86572  -0.86215  -0.85483  -0.83960
 Alpha  occ. eigenvalues --   -0.75426  -0.74760  -0.73347  -0.72578  -0.72293
 Alpha  occ. eigenvalues --   -0.72045  -0.71564  -0.71280  -0.70902  -0.70147
 Alpha  occ. eigenvalues --   -0.69712  -0.69082  -0.68622  -0.67621  -0.66874
 Alpha  occ. eigenvalues --   -0.66640  -0.66261  -0.65695  -0.65252  -0.64536
 Alpha  occ. eigenvalues --   -0.64229  -0.62864  -0.62669  -0.61678  -0.60837
 Alpha  occ. eigenvalues --   -0.60716  -0.60544  -0.59778  -0.59763  -0.59284
 Alpha  occ. eigenvalues --   -0.58285  -0.57671  -0.56832  -0.55919  -0.55731
 Alpha  occ. eigenvalues --   -0.54250  -0.53404  -0.52805  -0.52480  -0.51515
 Alpha  occ. eigenvalues --   -0.51251  -0.51129  -0.50757  -0.49887  -0.49822
 Alpha  occ. eigenvalues --   -0.49536  -0.49483  -0.49066  -0.48379  -0.46757
 Alpha  occ. eigenvalues --   -0.46460  -0.45835  -0.45681  -0.44396  -0.44251
 Alpha  occ. eigenvalues --   -0.43597  -0.43478  -0.43212  -0.42682  -0.42597
 Alpha  occ. eigenvalues --   -0.42389  -0.41952  -0.41799  -0.41662  -0.41403
 Alpha  occ. eigenvalues --   -0.41130  -0.40966  -0.40679  -0.40544  -0.40343
 Alpha  occ. eigenvalues --   -0.40018  -0.39869  -0.39724  -0.39637  -0.39455
 Alpha  occ. eigenvalues --   -0.39297  -0.39032  -0.38831  -0.38426  -0.38345
 Alpha  occ. eigenvalues --   -0.38170  -0.38001  -0.37643  -0.37552  -0.37228
 Alpha  occ. eigenvalues --   -0.37120  -0.37021  -0.36793  -0.36607  -0.36446
 Alpha  occ. eigenvalues --   -0.36341  -0.36122  -0.35894  -0.35819  -0.35582
 Alpha  occ. eigenvalues --   -0.35367  -0.35250  -0.35167  -0.34992  -0.34676
 Alpha  occ. eigenvalues --   -0.34611  -0.34386  -0.34253  -0.34137  -0.34121
 Alpha  occ. eigenvalues --   -0.33576  -0.33535  -0.33431  -0.33214  -0.32999
 Alpha  occ. eigenvalues --   -0.32928  -0.32680  -0.32552  -0.32329  -0.32216
 Alpha  occ. eigenvalues --   -0.32104  -0.31929  -0.31827  -0.31680  -0.31598
 Alpha  occ. eigenvalues --   -0.31394  -0.31251  -0.30986  -0.30843  -0.30818
 Alpha  occ. eigenvalues --   -0.30450  -0.30321  -0.29882  -0.29745  -0.29720
 Alpha  occ. eigenvalues --   -0.29554  -0.29366  -0.29273  -0.29088  -0.29037
 Alpha  occ. eigenvalues --   -0.28806  -0.28607  -0.28348  -0.28197  -0.27959
 Alpha  occ. eigenvalues --   -0.27795  -0.27769  -0.27551  -0.26973  -0.26617
 Alpha  occ. eigenvalues --   -0.26413  -0.26057  -0.25964  -0.25815  -0.25654
 Alpha  occ. eigenvalues --   -0.25152  -0.24802  -0.24095  -0.23980  -0.23759
 Alpha  occ. eigenvalues --   -0.23086  -0.22025  -0.21722  -0.20812  -0.20568
 Alpha  occ. eigenvalues --   -0.20206  -0.19788  -0.19692  -0.18200  -0.16990
 Alpha  occ. eigenvalues --   -0.15983
 Alpha virt. eigenvalues --   -0.11542  -0.07044  -0.06148  -0.04742  -0.02268
 Alpha virt. eigenvalues --   -0.02212  -0.01295  -0.01162  -0.00628  -0.00450
 Alpha virt. eigenvalues --    0.00161   0.00700   0.01600   0.02508   0.02594

 Mulliken charges:
               1
     1  Mg   0.668796
     2  C    0.092640
     3  C   -0.069756
     4  C   -0.035394
     5  C   -0.068175
     6  N   -0.164846
     7  C   -0.109337
     8  C    0.029492
     9  C   -0.022992
    10  C   -0.025336
    11  C    0.128515
    12  C    0.151691
    13  C    0.143411
    14  C    0.050278
    15  O   -0.204503
    16  O   -0.262453
    17  N   -0.305449
    18  C    0.185885
    19  C   -0.203981
    20  C   -0.009755
    21  C    0.103521
    22  C    0.172913
    23  C   -0.011552
    24  O   -0.170480
    25  C    0.124461
    26  N   -0.210764
    27  C    0.018020
    28  C   -0.083095
    29  C    0.103247
    30  C   -0.009171
    31  C    0.173285
    32  C    0.102494
    33  C    0.059911
    34  N   -0.285025
    35  C    0.133357
    36  C   -0.162323
    37  C    0.089087
    38  C    0.045276
    39  C    0.166899
    40  C   -0.057101
    41  O   -0.128745
    42  C    0.085279
    43  C    0.090226
    44  O   -0.211525
    45  O   -0.257570
    46  C    0.206680
    47  C    0.339231
    48  C   -0.165233
    49  C   -0.161281
    50  C    0.149019
    51  C    0.200288
    52  C    0.088015
    53  C    0.063631
    54  C   -0.068752
    55  C    0.107744
    56  C    0.098255
    57  C    0.054859
    58  C    0.121579
    59  C   -0.087059
    60  C    0.102972
    61  C    0.099430
    62  C    0.079826
    63  C    0.067475
    64  C   -0.092741
    65  C    0.103479
    66  C    0.112678
    67  H   -0.075732
    68  H   -0.043256
    69  H   -0.064569
    70  H   -0.037552
    71  H   -0.015338
    72  H   -0.001074
    73  H    0.002896
    74  H    0.000142
    75  H   -0.017634
    76  H   -0.001028
    77  H    0.011976
    78  H   -0.018027
    79  H    0.004350
    80  H    0.017325
    81  H    0.011487
    82  H   -0.008675
    83  H    0.012348
    84  H    0.017607
    85  H   -0.008400
    86  H   -0.033207
    87  H   -0.039963
    88  H   -0.008420
    89  H    0.012464
    90  H   -0.024132
    91  H   -0.022097
    92  H   -0.006209
    93  H   -0.014247
    94  H    0.010743
    95  H    0.008303
    96  H    0.013101
    97  H   -0.016250
    98  H   -0.025703
    99  H    0.022121
   100  H    0.007860
   101  H    0.021426
   102  H    0.013437
   103  H    0.010349
   104  H   -0.051155
   105  H   -0.022390
   106  H    0.004142
   107  H   -0.002282
   108  H   -0.028242
   109  H   -0.044958
   110  H   -0.028647
   111  H   -0.026950
   112  H   -0.033012
   113  H   -0.028666
   114  H   -0.045752
   115  H   -0.011343
   116  H   -0.023985
   117  H   -0.018829
   118  H   -0.020338
   119  H   -0.028480
   120  H   -0.025494
   121  H   -0.028422
   122  H   -0.040650
   123  H   -0.038180
   124  H   -0.044892
   125  H   -0.018854
   126  H   -0.021384
   127  H   -0.009603
   128  H   -0.034332
   129  H   -0.041076
   130  H   -0.037261
   131  H   -0.023158
   132  H   -0.043959
   133  H   -0.023673
   134  H   -0.032600
   135  H   -0.000025
   136  H   -0.024575
   137  H   -0.028112
   138  H   -0.028161
   139  H   -0.008568
   140  H   -0.022004
 Sum of Mulliken charges =  -0.00000

 Dipole moment (field-independent basis, Debye):
    X=              4.4886    Y=              3.0152    Z=             -0.8723  Tot=              5.4772
 Quadrupole moment (field-independent basis, Debye-Ang):
   XX=           -366.6404   YY=           -430.9614   ZZ=           -414.0327
   XY=            -17.9795   XZ=              6.1634   YZ=              1.5111

 Normal termination of Gaussian 16 at Fri Apr 29 01:21:24 2022.
