 Gaussian 16, Revision A.03,
 Gaussian 16:  ES64L-G16RevA.03 25-Dec-2016

 -----------------------------------
 #p cam-b3lyp/Def2SVP td=(nstates=5)
 -----------------------------------

 --------------------------------------------------------
 step_1801_chromophore_12 TDDFT with cam-b3lyp functional
 --------------------------------------------------------
 Symbolic Z-matrix:
 Charge =  0 Multiplicity = 1

                         Standard orientation:
 ---------------------------------------------------------------------
 Center     Atomic      Atomic             Coordinates (Angstroms)
 Number     Number       Type             X           Y           Z
 ---------------------------------------------------------------------
      1         12           0       -4.123829    0.476720   -0.263470
      2          6           0       -2.992483   -2.785713    0.561082
      3          6           0       -0.768218    1.333580   -0.566789
      4          6           0       -5.081510    3.467256   -1.116693
      5          6           0       -7.420214   -0.581800    0.400988
      6          7           0       -2.107195   -0.692962   -0.145564
      7          6           0       -1.934800   -1.972241    0.238753
      8          6           0       -0.455064   -2.318785    0.138477
      9          6           0        0.291791   -0.875668    0.064965
     10          6           0       -0.928833   -0.040781   -0.305979
     11          6           0        0.856875   -0.350127    1.412019
     12          6           0       -0.141378   -3.339233   -0.980889
     13          6           0        1.085679   -4.301370   -0.780360
     14          6           0        2.112231   -4.233443   -1.896787
     15          8           0        1.930398   -4.065678   -3.105328
     16          8           0        3.330170   -4.392471   -1.339089
     17          7           0       -3.072350    2.187577   -0.717849
     18          6           0       -1.740272    2.332827   -0.807882
     19          6           0       -1.437935    3.750215   -0.993942
     20          6           0       -2.696902    4.387915   -1.395755
     21          6           0       -3.669292    3.366950   -1.158377
     22          6           0       -0.008884    4.329277   -0.931616
     23          6           0       -3.031277    5.864111   -1.920658
     24          8           0       -4.155901    6.401334   -1.876212
     25          6           0       -1.836842    6.671872   -2.298009
     26          7           0       -6.029196    1.376457   -0.175652
     27          6           0       -6.143783    2.608858   -0.633595
     28          6           0       -7.658455    2.899897   -0.891585
     29          6           0       -8.379422    1.688167   -0.263680
     30          6           0       -7.220093    0.720455    0.042167
     31          6           0       -8.005343    4.300567   -0.274752
     32          6           0       -9.694277    1.200955   -0.957256
     33          6           0       -9.651144    0.081953   -2.092704
     34          7           0       -5.092181   -1.371478    0.255717
     35          6           0       -6.473751   -1.626032    0.605591
     36          6           0       -6.615180   -3.020190    1.024297
     37          6           0       -5.292667   -3.526376    0.904286
     38          6           0       -4.403206   -2.468426    0.616332
     39          6           0       -7.876490   -3.830926    1.307410
     40          6           0       -4.449223   -4.704239    1.031161
     41          8           0       -4.783220   -5.825545    1.358992
     42          6           0       -2.982628   -4.216073    0.943312
     43          6           0       -2.408705   -4.445861    2.324039
     44          8           0       -2.833029   -3.982313    3.406985
     45          8           0       -1.353096   -5.309769    2.346046
     46          6           0       -0.766444   -5.669252    3.622565
     47          6           0        4.402869   -4.469692   -2.367179
     48          6           0        5.744971   -4.291121   -1.809649
     49          6           0        6.860163   -3.816068   -2.325379
     50          6           0        6.890813   -3.279411   -3.697582
     51          6           0        8.149364   -3.635793   -1.567021
     52          6           0        8.689734   -2.194981   -1.550841
     53          6           0        9.560629   -2.034031   -0.324812
     54          6           0       10.257647   -0.678595   -0.125901
     55          6           0       11.675975   -0.907259    0.483849
     56          6           0        9.450432    0.339051    0.698861
     57          6           0        9.468595    1.734205    0.001824
     58          6           0        9.061823    2.779062    1.059998
     59          6           0        7.832455    3.670344    0.724624
     60          6           0        8.301304    5.125792    0.384182
     61          6           0        6.709213    3.665296    1.768725
     62          6           0        5.305896    4.076127    1.248239
     63          6           0        4.544203    5.221744    2.026395
     64          6           0        3.120766    4.859793    2.532823
     65          6           0        2.273511    6.183222    2.655588
     66          6           0        3.225105    4.104552    3.851704
     67          1           0        0.259582    1.670585   -0.415966
     68          1           0       -5.414439    4.456453   -1.436707
     69          1           0       -8.479949   -0.810112    0.533470
     70          1           0       -0.097953   -2.773568    1.061999
     71          1           0        0.985386   -0.787614   -0.772198
     72          1           0        1.037455   -1.151988    2.128186
     73          1           0        0.156213    0.327383    1.900329
     74          1           0        1.747790    0.248500    1.223052
     75          1           0        0.191034   -2.619043   -1.728522
     76          1           0       -1.041167   -3.812376   -1.373722
     77          1           0        0.933531   -5.375492   -0.673749
     78          1           0        1.620177   -4.115774    0.152000
     79          1           0        0.662348    3.559952   -0.549813
     80          1           0       -0.152737    5.175404   -0.260336
     81          1           0        0.255968    4.708904   -1.918414
     82          1           0       -2.014132    7.634724   -2.776228
     83          1           0       -1.219948    6.142155   -3.023609
     84          1           0       -1.334947    6.899689   -1.356685
     85          1           0       -7.666976    2.979497   -1.979303
     86          1           0       -8.696122    2.006682    0.729953
     87          1           0       -9.039383    4.098109    0.004111
     88          1           0       -8.222632    4.996787   -1.085369
     89          1           0       -7.436942    4.535816    0.624470
     90          1           0      -10.096844    2.091835   -1.438854
     91          1           0      -10.366174    1.036374   -0.114908
     92          1           0      -10.268768    0.262127   -2.973231
     93          1           0      -10.080337   -0.874336   -1.793648
     94          1           0       -8.612909   -0.154786   -2.322030
     95          1           0       -7.784013   -4.449828    2.199253
     96          1           0       -8.057918   -4.533072    0.493499
     97          1           0       -8.725826   -3.163329    1.453261
     98          1           0       -2.381349   -4.843726    0.285844
     99          1           0       -1.289261   -5.291001    4.500813
    100          1           0        0.231279   -5.233977    3.687532
    101          1           0       -0.776156   -6.757249    3.692237
    102          1           0        4.255081   -3.669417   -3.093154
    103          1           0        4.506793   -5.482607   -2.754993
    104          1           0        5.723748   -4.610568   -0.766914
    105          1           0        7.854813   -3.493060   -4.158971
    106          1           0        6.803206   -2.202910   -3.550682
    107          1           0        6.150588   -3.643367   -4.409739
    108          1           0        8.780086   -4.376783   -2.058472
    109          1           0        8.061640   -4.119301   -0.594498
    110          1           0        7.875081   -1.481878   -1.421998
    111          1           0        9.357053   -1.793250   -2.312643
    112          1           0       10.320167   -2.806302   -0.454421
    113          1           0        8.972287   -2.098947    0.590635
    114          1           0       10.401020   -0.223303   -1.105709
    115          1           0       12.404248   -0.595324   -0.265497
    116          1           0       11.891162   -1.954953    0.693410
    117          1           0       11.830429   -0.418632    1.445398
    118          1           0        9.891637    0.357631    1.694899
    119          1           0        8.389105    0.091086    0.706839
    120          1           0        8.785360    1.778351   -0.845347
    121          1           0       10.444243    2.051150   -0.368018
    122          1           0        9.956815    3.382128    1.214004
    123          1           0        8.828854    2.333869    2.027462
    124          1           0        7.292151    3.280199   -0.137799
    125          1           0        7.671938    5.601821   -0.368182
    126          1           0        9.279563    5.135483   -0.095916
    127          1           0        8.355917    5.655607    1.334996
    128          1           0        6.987479    4.255153    2.641010
    129          1           0        6.606893    2.637879    2.118716
    130          1           0        4.596289    3.262235    1.395265
    131          1           0        5.392157    4.378422    0.204577
    132          1           0        4.403358    5.940738    1.220225
    133          1           0        5.125238    5.682332    2.824985
    134          1           0        2.689311    4.189134    1.790823
    135          1           0        2.696616    7.187716    2.671698
    136          1           0        1.609913    6.045865    3.509556
    137          1           0        1.616561    6.188579    1.785514
    138          1           0        2.626219    4.559453    4.640329
    139          1           0        4.251682    4.046318    4.212418
    140          1           0        2.757265    3.120166    3.845907
 ---------------------------------------------------------------------

 SCF Done:  E(RCAM-B3LYP) =  -3007.15780180     A.U. after   19 cycles

 Excitation energies and oscillator strengths:

 Excited State   1:      Singlet-A      1.7914 eV  692.12 nm  f=0.3883  <S**2>=0.000
     245 -> 248       -0.17585
     246 -> 247        0.68338
     245 <- 248       -0.10009
 This state for optimization and/or second-order correction.
 Total Energy, E(TD-HF/TD-DFT) =  -3007.09197042
 Copying the excited state density for this state as the 1-particle RhoCI density.

 Excited State   2:      Singlet-A      2.1984 eV  563.97 nm  f=0.1315  <S**2>=0.000
     245 -> 247        0.65031
     246 -> 248        0.25567

 Excited State   3:      Singlet-A      3.2483 eV  381.69 nm  f=0.0045  <S**2>=0.000
     241 -> 247       -0.17123
     244 -> 247        0.66397

 Excited State   4:      Singlet-A      3.4320 eV  361.26 nm  f=0.0246  <S**2>=0.000
     240 -> 247        0.12999
     241 -> 247        0.54433
     242 -> 247        0.25792
     244 -> 247        0.14213
     246 -> 248       -0.26620

 Excited State   5:      Singlet-A      3.5573 eV  348.53 nm  f=0.1115  <S**2>=0.000
     241 -> 247       -0.14191
     242 -> 247        0.50145
     242 -> 249        0.17183
     242 -> 250        0.23121
     245 -> 247       -0.11373
     246 -> 248        0.30273

 The electronic state is 1-A.
 Alpha  occ. eigenvalues --  -46.89108 -19.25598 -19.24658 -19.20754 -19.19481
 Alpha  occ. eigenvalues --  -19.18239 -19.17669 -14.41891 -14.41748 -14.39740
 Alpha  occ. eigenvalues --  -14.38605 -10.39238 -10.38860 -10.37426 -10.33709
 Alpha  occ. eigenvalues --  -10.31637 -10.31635 -10.31319 -10.31033 -10.30999
 Alpha  occ. eigenvalues --  -10.30865 -10.30434 -10.30246 -10.29998 -10.29309
 Alpha  occ. eigenvalues --  -10.29009 -10.28725 -10.28335 -10.28195 -10.28055
 Alpha  occ. eigenvalues --  -10.27873 -10.27819 -10.27680 -10.27650 -10.27489
 Alpha  occ. eigenvalues --  -10.27309 -10.27293 -10.27236 -10.27136 -10.26971
 Alpha  occ. eigenvalues --  -10.26927 -10.26829 -10.26710 -10.26632 -10.26273
 Alpha  occ. eigenvalues --  -10.26252 -10.25927 -10.25816 -10.25767 -10.25716
 Alpha  occ. eigenvalues --  -10.25561 -10.25449 -10.25443 -10.25439 -10.25324
 Alpha  occ. eigenvalues --  -10.25318 -10.25119 -10.25031 -10.24931 -10.24746
 Alpha  occ. eigenvalues --  -10.24740 -10.24689 -10.24686 -10.24625 -10.24595
 Alpha  occ. eigenvalues --  -10.23916  -3.17467  -1.92397  -1.91916  -1.91761
 Alpha  occ. eigenvalues --   -1.16918  -1.15579  -1.10112  -1.09092  -1.07171
 Alpha  occ. eigenvalues --   -1.05232  -1.04451  -1.03956  -1.03383  -1.01062
 Alpha  occ. eigenvalues --   -0.92301  -0.91732  -0.90212  -0.89384  -0.89018
 Alpha  occ. eigenvalues --   -0.88776  -0.88283  -0.87982  -0.87548  -0.87228
 Alpha  occ. eigenvalues --   -0.86125  -0.85375  -0.84826  -0.83839  -0.83060
 Alpha  occ. eigenvalues --   -0.82845  -0.82564  -0.81567  -0.81002  -0.80386
 Alpha  occ. eigenvalues --   -0.80078  -0.78675  -0.78379  -0.77141  -0.76222
 Alpha  occ. eigenvalues --   -0.76052  -0.76000  -0.75180  -0.75002  -0.74581
 Alpha  occ. eigenvalues --   -0.73305  -0.72624  -0.71772  -0.70678  -0.70456
 Alpha  occ. eigenvalues --   -0.68926  -0.68031  -0.67193  -0.67002  -0.65717
 Alpha  occ. eigenvalues --   -0.65536  -0.65157  -0.64752  -0.63881  -0.63791
 Alpha  occ. eigenvalues --   -0.63592  -0.63357  -0.63036  -0.61910  -0.60762
 Alpha  occ. eigenvalues --   -0.60024  -0.59281  -0.59214  -0.57752  -0.57626
 Alpha  occ. eigenvalues --   -0.56956  -0.56814  -0.56469  -0.55636  -0.55529
 Alpha  occ. eigenvalues --   -0.55326  -0.55177  -0.54704  -0.54605  -0.54550
 Alpha  occ. eigenvalues --   -0.53844  -0.53824  -0.53790  -0.53422  -0.53268
 Alpha  occ. eigenvalues --   -0.52752  -0.52601  -0.52531  -0.52240  -0.52033
 Alpha  occ. eigenvalues --   -0.51938  -0.51635  -0.51388  -0.51070  -0.50699
 Alpha  occ. eigenvalues --   -0.50525  -0.50462  -0.50309  -0.49993  -0.49775
 Alpha  occ. eigenvalues --   -0.49565  -0.49322  -0.49218  -0.48954  -0.48769
 Alpha  occ. eigenvalues --   -0.48676  -0.48414  -0.48183  -0.48077  -0.47624
 Alpha  occ. eigenvalues --   -0.47497  -0.47366  -0.47221  -0.46855  -0.46559
 Alpha  occ. eigenvalues --   -0.46482  -0.46163  -0.46073  -0.45963  -0.45909
 Alpha  occ. eigenvalues --   -0.45362  -0.45248  -0.45224  -0.44919  -0.44676
 Alpha  occ. eigenvalues --   -0.44666  -0.44455  -0.44330  -0.44099  -0.43992
 Alpha  occ. eigenvalues --   -0.43868  -0.43728  -0.43329  -0.43226  -0.43083
 Alpha  occ. eigenvalues --   -0.42792  -0.42755  -0.42550  -0.42381  -0.42150
 Alpha  occ. eigenvalues --   -0.41709  -0.41572  -0.41175  -0.40975  -0.40969
 Alpha  occ. eigenvalues --   -0.40797  -0.40719  -0.40584  -0.40431  -0.40392
 Alpha  occ. eigenvalues --   -0.40028  -0.39603  -0.39402  -0.39308  -0.38997
 Alpha  occ. eigenvalues --   -0.38771  -0.38729  -0.38518  -0.37795  -0.37702
 Alpha  occ. eigenvalues --   -0.37451  -0.37276  -0.36627  -0.36591  -0.36484
 Alpha  occ. eigenvalues --   -0.35838  -0.35818  -0.35336  -0.34424  -0.34035
 Alpha  occ. eigenvalues --   -0.33851  -0.33411  -0.33044  -0.32422  -0.30924
 Alpha  occ. eigenvalues --   -0.30478  -0.29973  -0.29895  -0.28359  -0.23774
 Alpha  occ. eigenvalues --   -0.21418
 Alpha virt. eigenvalues --   -0.08676  -0.01637   0.00101   0.02368   0.03724
 Alpha virt. eigenvalues --    0.05036   0.05761   0.05775   0.05874   0.06386
 Alpha virt. eigenvalues --    0.06907   0.07357   0.08480   0.08584   0.08919

 Mulliken charges:
               1
     1  Mg   0.801440
     2  C    0.049075
     3  C   -0.092151
     4  C   -0.057419
     5  C   -0.068652
     6  N   -0.235597
     7  C   -0.067168
     8  C   -0.010066
     9  C   -0.080113
    10  C    0.004417
    11  C    0.070593
    12  C    0.091499
    13  C    0.071089
    14  C    0.134308
    15  O   -0.248200
    16  O   -0.326802
    17  N   -0.395400
    18  C    0.198093
    19  C   -0.201704
    20  C   -0.069206
    21  C    0.127756
    22  C    0.123452
    23  C    0.070881
    24  O   -0.207024
    25  C    0.038414
    26  N   -0.285757
    27  C    0.051192
    28  C   -0.136554
    29  C    0.041412
    30  C    0.007474
    31  C    0.104844
    32  C    0.045309
    33  C   -0.001482
    34  N   -0.366594
    35  C    0.123459
    36  C   -0.161441
    37  C    0.015158
    38  C    0.087322
    39  C    0.120861
    40  C    0.034994
    41  O   -0.171208
    42  C    0.004973
    43  C    0.186132
    44  O   -0.251575
    45  O   -0.322385
    46  C    0.169454
    47  C    0.304520
    48  C   -0.180400
    49  C   -0.183480
    50  C    0.080415
    51  C    0.138068
    52  C    0.030010
    53  C    0.012630
    54  C   -0.124645
    55  C    0.048913
    56  C    0.044324
    57  C    0.005166
    58  C    0.062961
    59  C   -0.141884
    60  C    0.047262
    61  C    0.048137
    62  C    0.027028
    63  C    0.015199
    64  C   -0.149420
    65  C    0.045473
    66  C    0.050284
    67  H   -0.042178
    68  H   -0.002930
    69  H   -0.029094
    70  H   -0.004897
    71  H    0.019651
    72  H    0.025215
    73  H    0.029432
    74  H    0.022379
    75  H    0.013557
    76  H    0.030348
    77  H    0.044288
    78  H    0.018413
    79  H    0.029238
    80  H    0.039999
    81  H    0.038342
    82  H    0.028498
    83  H    0.039641
    84  H    0.044573
    85  H    0.025169
    86  H    0.003899
    87  H   -0.012847
    88  H    0.018935
    89  H    0.039125
    90  H    0.003128
    91  H    0.006561
    92  H    0.018051
    93  H    0.009231
    94  H    0.033139
    95  H    0.033364
    96  H    0.036508
    97  H    0.005201
    98  H    0.019365
    99  H    0.049832
   100  H    0.026627
   101  H    0.042460
   102  H    0.042175
   103  H    0.038312
   104  H   -0.014720
   105  H    0.004607
   106  H    0.028876
   107  H    0.023699
   108  H    0.002146
   109  H   -0.010729
   110  H   -0.002195
   111  H    0.001165
   112  H   -0.004372
   113  H   -0.001643
   114  H   -0.013606
   115  H    0.012409
   116  H    0.001634
   117  H    0.004933
   118  H    0.007237
   119  H   -0.001059
   120  H    0.001530
   121  H   -0.000676
   122  H   -0.009640
   123  H   -0.008280
   124  H   -0.014255
   125  H    0.004523
   126  H    0.002985
   127  H    0.012477
   128  H   -0.007879
   129  H   -0.010984
   130  H   -0.009464
   131  H    0.003675
   132  H   -0.013779
   133  H    0.003562
   134  H   -0.004611
   135  H    0.024549
   136  H    0.000308
   137  H   -0.008095
   138  H   -0.002138
   139  H    0.014802
   140  H    0.002633
 Sum of Mulliken charges =  -0.00000

 Dipole moment (field-independent basis, Debye):
    X=              5.2561    Y=              4.4132    Z=             -1.1975  Tot=              6.9668
 Quadrupole moment (field-independent basis, Debye-Ang):
   XX=           -368.5928   YY=           -427.4449   ZZ=           -413.9150
   XY=            -22.1715   XZ=              8.0618   YZ=             -0.1931

 Normal termination of Gaussian 16 at Fri Apr 29 00:16:23 2022.
