 Gaussian 16, Revision A.03,
 Gaussian 16:  ES64L-G16RevA.03 25-Dec-2016

 ---------------------------------
 #p PBE1PBE/Def2SVP td=(nstates=5)
 ---------------------------------

 ------------------------------------------------------
 step_1801_chromophore_12 TDDFT with PBE1PBE functional
 ------------------------------------------------------
 Symbolic Z-matrix:
 Charge =  0 Multiplicity = 1

                         Standard orientation:
 ---------------------------------------------------------------------
 Center     Atomic      Atomic             Coordinates (Angstroms)
 Number     Number       Type             X           Y           Z
 ---------------------------------------------------------------------
      1         12           0       -4.123829    0.476720   -0.263470
      2          6           0       -2.992483   -2.785713    0.561082
      3          6           0       -0.768218    1.333580   -0.566789
      4          6           0       -5.081510    3.467256   -1.116693
      5          6           0       -7.420214   -0.581800    0.400988
      6          7           0       -2.107195   -0.692962   -0.145564
      7          6           0       -1.934800   -1.972241    0.238753
      8          6           0       -0.455064   -2.318785    0.138477
      9          6           0        0.291791   -0.875668    0.064965
     10          6           0       -0.928833   -0.040781   -0.305979
     11          6           0        0.856875   -0.350127    1.412019
     12          6           0       -0.141378   -3.339233   -0.980889
     13          6           0        1.085679   -4.301370   -0.780360
     14          6           0        2.112231   -4.233443   -1.896787
     15          8           0        1.930398   -4.065678   -3.105328
     16          8           0        3.330170   -4.392471   -1.339089
     17          7           0       -3.072350    2.187577   -0.717849
     18          6           0       -1.740272    2.332827   -0.807882
     19          6           0       -1.437935    3.750215   -0.993942
     20          6           0       -2.696902    4.387915   -1.395755
     21          6           0       -3.669292    3.366950   -1.158377
     22          6           0       -0.008884    4.329277   -0.931616
     23          6           0       -3.031277    5.864111   -1.920658
     24          8           0       -4.155901    6.401334   -1.876212
     25          6           0       -1.836842    6.671872   -2.298009
     26          7           0       -6.029196    1.376457   -0.175652
     27          6           0       -6.143783    2.608858   -0.633595
     28          6           0       -7.658455    2.899897   -0.891585
     29          6           0       -8.379422    1.688167   -0.263680
     30          6           0       -7.220093    0.720455    0.042167
     31          6           0       -8.005343    4.300567   -0.274752
     32          6           0       -9.694277    1.200955   -0.957256
     33          6           0       -9.651144    0.081953   -2.092704
     34          7           0       -5.092181   -1.371478    0.255717
     35          6           0       -6.473751   -1.626032    0.605591
     36          6           0       -6.615180   -3.020190    1.024297
     37          6           0       -5.292667   -3.526376    0.904286
     38          6           0       -4.403206   -2.468426    0.616332
     39          6           0       -7.876490   -3.830926    1.307410
     40          6           0       -4.449223   -4.704239    1.031161
     41          8           0       -4.783220   -5.825545    1.358992
     42          6           0       -2.982628   -4.216073    0.943312
     43          6           0       -2.408705   -4.445861    2.324039
     44          8           0       -2.833029   -3.982313    3.406985
     45          8           0       -1.353096   -5.309769    2.346046
     46          6           0       -0.766444   -5.669252    3.622565
     47          6           0        4.402869   -4.469692   -2.367179
     48          6           0        5.744971   -4.291121   -1.809649
     49          6           0        6.860163   -3.816068   -2.325379
     50          6           0        6.890813   -3.279411   -3.697582
     51          6           0        8.149364   -3.635793   -1.567021
     52          6           0        8.689734   -2.194981   -1.550841
     53          6           0        9.560629   -2.034031   -0.324812
     54          6           0       10.257647   -0.678595   -0.125901
     55          6           0       11.675975   -0.907259    0.483849
     56          6           0        9.450432    0.339051    0.698861
     57          6           0        9.468595    1.734205    0.001824
     58          6           0        9.061823    2.779062    1.059998
     59          6           0        7.832455    3.670344    0.724624
     60          6           0        8.301304    5.125792    0.384182
     61          6           0        6.709213    3.665296    1.768725
     62          6           0        5.305896    4.076127    1.248239
     63          6           0        4.544203    5.221744    2.026395
     64          6           0        3.120766    4.859793    2.532823
     65          6           0        2.273511    6.183222    2.655588
     66          6           0        3.225105    4.104552    3.851704
     67          1           0        0.259582    1.670585   -0.415966
     68          1           0       -5.414439    4.456453   -1.436707
     69          1           0       -8.479949   -0.810112    0.533470
     70          1           0       -0.097953   -2.773568    1.061999
     71          1           0        0.985386   -0.787614   -0.772198
     72          1           0        1.037455   -1.151988    2.128186
     73          1           0        0.156213    0.327383    1.900329
     74          1           0        1.747790    0.248500    1.223052
     75          1           0        0.191034   -2.619043   -1.728522
     76          1           0       -1.041167   -3.812376   -1.373722
     77          1           0        0.933531   -5.375492   -0.673749
     78          1           0        1.620177   -4.115774    0.152000
     79          1           0        0.662348    3.559952   -0.549813
     80          1           0       -0.152737    5.175404   -0.260336
     81          1           0        0.255968    4.708904   -1.918414
     82          1           0       -2.014132    7.634724   -2.776228
     83          1           0       -1.219948    6.142155   -3.023609
     84          1           0       -1.334947    6.899689   -1.356685
     85          1           0       -7.666976    2.979497   -1.979303
     86          1           0       -8.696122    2.006682    0.729953
     87          1           0       -9.039383    4.098109    0.004111
     88          1           0       -8.222632    4.996787   -1.085369
     89          1           0       -7.436942    4.535816    0.624470
     90          1           0      -10.096844    2.091835   -1.438854
     91          1           0      -10.366174    1.036374   -0.114908
     92          1           0      -10.268768    0.262127   -2.973231
     93          1           0      -10.080337   -0.874336   -1.793648
     94          1           0       -8.612909   -0.154786   -2.322030
     95          1           0       -7.784013   -4.449828    2.199253
     96          1           0       -8.057918   -4.533072    0.493499
     97          1           0       -8.725826   -3.163329    1.453261
     98          1           0       -2.381349   -4.843726    0.285844
     99          1           0       -1.289261   -5.291001    4.500813
    100          1           0        0.231279   -5.233977    3.687532
    101          1           0       -0.776156   -6.757249    3.692237
    102          1           0        4.255081   -3.669417   -3.093154
    103          1           0        4.506793   -5.482607   -2.754993
    104          1           0        5.723748   -4.610568   -0.766914
    105          1           0        7.854813   -3.493060   -4.158971
    106          1           0        6.803206   -2.202910   -3.550682
    107          1           0        6.150588   -3.643367   -4.409739
    108          1           0        8.780086   -4.376783   -2.058472
    109          1           0        8.061640   -4.119301   -0.594498
    110          1           0        7.875081   -1.481878   -1.421998
    111          1           0        9.357053   -1.793250   -2.312643
    112          1           0       10.320167   -2.806302   -0.454421
    113          1           0        8.972287   -2.098947    0.590635
    114          1           0       10.401020   -0.223303   -1.105709
    115          1           0       12.404248   -0.595324   -0.265497
    116          1           0       11.891162   -1.954953    0.693410
    117          1           0       11.830429   -0.418632    1.445398
    118          1           0        9.891637    0.357631    1.694899
    119          1           0        8.389105    0.091086    0.706839
    120          1           0        8.785360    1.778351   -0.845347
    121          1           0       10.444243    2.051150   -0.368018
    122          1           0        9.956815    3.382128    1.214004
    123          1           0        8.828854    2.333869    2.027462
    124          1           0        7.292151    3.280199   -0.137799
    125          1           0        7.671938    5.601821   -0.368182
    126          1           0        9.279563    5.135483   -0.095916
    127          1           0        8.355917    5.655607    1.334996
    128          1           0        6.987479    4.255153    2.641010
    129          1           0        6.606893    2.637879    2.118716
    130          1           0        4.596289    3.262235    1.395265
    131          1           0        5.392157    4.378422    0.204577
    132          1           0        4.403358    5.940738    1.220225
    133          1           0        5.125238    5.682332    2.824985
    134          1           0        2.689311    4.189134    1.790823
    135          1           0        2.696616    7.187716    2.671698
    136          1           0        1.609913    6.045865    3.509556
    137          1           0        1.616561    6.188579    1.785514
    138          1           0        2.626219    4.559453    4.640329
    139          1           0        4.251682    4.046318    4.212418
    140          1           0        2.757265    3.120166    3.845907
 ---------------------------------------------------------------------

 SCF Done:  E(RPBE1PBE) =  -3005.34696045     A.U. after   15 cycles

 Excitation energies and oscillator strengths:

 Excited State   1:      Singlet-A      1.8991 eV  652.84 nm  f=0.3760  <S**2>=0.000
     245 -> 248       -0.16689
     246 -> 247        0.68901
 This state for optimization and/or second-order correction.
 Total Energy, E(TD-HF/TD-DFT) =  -3005.27716801
 Copying the excited state density for this state as the 1-particle RhoCI density.

 Excited State   2:      Singlet-A      2.1864 eV  567.08 nm  f=0.1209  <S**2>=0.000
     245 -> 247        0.66021
     246 -> 248        0.22480

 Excited State   3:      Singlet-A      2.8027 eV  442.38 nm  f=0.0056  <S**2>=0.000
     244 -> 247        0.68640

 Excited State   4:      Singlet-A      2.9998 eV  413.31 nm  f=0.0007  <S**2>=0.000
     242 -> 247        0.67460

 Excited State   5:      Singlet-A      3.1636 eV  391.91 nm  f=0.0016  <S**2>=0.000
     241 -> 247        0.65596
     246 -> 248       -0.21882

 The electronic state is 1-A.
 Alpha  occ. eigenvalues --  -46.92473 -19.26306 -19.25414 -19.20716 -19.19821
 Alpha  occ. eigenvalues --  -19.18642 -19.18217 -14.41303 -14.41299 -14.39225
 Alpha  occ. eigenvalues --  -14.38483 -10.36307 -10.36035 -10.34329 -10.31138
 Alpha  occ. eigenvalues --  -10.29113 -10.29037 -10.28774 -10.28355 -10.28317
 Alpha  occ. eigenvalues --  -10.28310 -10.28108 -10.28002 -10.27553 -10.27532
 Alpha  occ. eigenvalues --  -10.26478 -10.26360 -10.26211 -10.26072 -10.25783
 Alpha  occ. eigenvalues --  -10.25603 -10.25428 -10.25393 -10.25384 -10.25376
 Alpha  occ. eigenvalues --  -10.25272 -10.24980 -10.24845 -10.24604 -10.24415
 Alpha  occ. eigenvalues --  -10.24392 -10.24304 -10.24255 -10.24251 -10.23885
 Alpha  occ. eigenvalues --  -10.23798 -10.23462 -10.23385 -10.23267 -10.23258
 Alpha  occ. eigenvalues --  -10.23237 -10.23147 -10.22943 -10.22888 -10.22850
 Alpha  occ. eigenvalues --  -10.22815 -10.22548 -10.22465 -10.22446 -10.22243
 Alpha  occ. eigenvalues --  -10.22241 -10.22148 -10.22103 -10.22095 -10.22075
 Alpha  occ. eigenvalues --  -10.21951  -3.14419  -1.87289  -1.86787  -1.86635
 Alpha  occ. eigenvalues --   -1.11767  -1.10481  -1.04579  -1.04133  -1.02059
 Alpha  occ. eigenvalues --   -1.00159  -0.98966  -0.98541  -0.97857  -0.96018
 Alpha  occ. eigenvalues --   -0.86843  -0.85870  -0.84304  -0.83483  -0.83227
 Alpha  occ. eigenvalues --   -0.83033  -0.82549  -0.82059  -0.81811  -0.81213
 Alpha  occ. eigenvalues --   -0.80336  -0.79783  -0.79189  -0.78073  -0.77244
 Alpha  occ. eigenvalues --   -0.77029  -0.76697  -0.75808  -0.75344  -0.74712
 Alpha  occ. eigenvalues --   -0.74232  -0.72809  -0.72739  -0.71484  -0.70458
 Alpha  occ. eigenvalues --   -0.70352  -0.70075  -0.69376  -0.69257  -0.68732
 Alpha  occ. eigenvalues --   -0.67700  -0.67069  -0.66159  -0.64984  -0.64860
 Alpha  occ. eigenvalues --   -0.63139  -0.62446  -0.61507  -0.61362  -0.60158
 Alpha  occ. eigenvalues --   -0.59745  -0.59718  -0.59220  -0.58406  -0.58053
 Alpha  occ. eigenvalues --   -0.57836  -0.57673  -0.57208  -0.56602  -0.55091
 Alpha  occ. eigenvalues --   -0.54415  -0.53933  -0.53717  -0.52343  -0.52218
 Alpha  occ. eigenvalues --   -0.51530  -0.51213  -0.50961  -0.50290  -0.49981
 Alpha  occ. eigenvalues --   -0.49853  -0.49737  -0.49283  -0.49163  -0.48911
 Alpha  occ. eigenvalues --   -0.48393  -0.48192  -0.48069  -0.47976  -0.47792
 Alpha  occ. eigenvalues --   -0.47272  -0.47108  -0.46991  -0.46717  -0.46600
 Alpha  occ. eigenvalues --   -0.46537  -0.46262  -0.45860  -0.45558  -0.45359
 Alpha  occ. eigenvalues --   -0.45015  -0.44926  -0.44868  -0.44577  -0.44386
 Alpha  occ. eigenvalues --   -0.44194  -0.43874  -0.43703  -0.43539  -0.43366
 Alpha  occ. eigenvalues --   -0.43296  -0.43062  -0.42863  -0.42740  -0.42259
 Alpha  occ. eigenvalues --   -0.42124  -0.42074  -0.41862  -0.41526  -0.41321
 Alpha  occ. eigenvalues --   -0.41220  -0.40812  -0.40754  -0.40603  -0.40466
 Alpha  occ. eigenvalues --   -0.40146  -0.40016  -0.39852  -0.39682  -0.39554
 Alpha  occ. eigenvalues --   -0.39409  -0.39205  -0.39093  -0.38843  -0.38678
 Alpha  occ. eigenvalues --   -0.38564  -0.38407  -0.38184  -0.37969  -0.37901
 Alpha  occ. eigenvalues --   -0.37566  -0.37479  -0.37403  -0.37308  -0.37089
 Alpha  occ. eigenvalues --   -0.36534  -0.36452  -0.36020  -0.35922  -0.35685
 Alpha  occ. eigenvalues --   -0.35671  -0.35617  -0.35355  -0.35251  -0.35155
 Alpha  occ. eigenvalues --   -0.34765  -0.34622  -0.34204  -0.34078  -0.33891
 Alpha  occ. eigenvalues --   -0.33687  -0.33463  -0.33272  -0.32746  -0.32558
 Alpha  occ. eigenvalues --   -0.32347  -0.32128  -0.31702  -0.31445  -0.31317
 Alpha  occ. eigenvalues --   -0.30872  -0.30693  -0.30395  -0.29382  -0.29197
 Alpha  occ. eigenvalues --   -0.28906  -0.28733  -0.28073  -0.27020  -0.26510
 Alpha  occ. eigenvalues --   -0.25784  -0.25241  -0.25160  -0.24210  -0.20689
 Alpha  occ. eigenvalues --   -0.18985
 Alpha virt. eigenvalues --   -0.11163  -0.05216  -0.04027  -0.02143   0.00922
 Alpha virt. eigenvalues --    0.01013   0.01101   0.01655   0.02097   0.02443
 Alpha virt. eigenvalues --    0.02740   0.03349   0.04689   0.05343   0.05503

 Mulliken charges:
               1
     1  Mg   0.949617
     2  C    0.011953
     3  C   -0.081706
     4  C   -0.053631
     5  C   -0.068844
     6  N   -0.336741
     7  C    0.006702
     8  C   -0.071528
     9  C   -0.160959
    10  C    0.041262
    11  C    0.015999
    12  C    0.035558
    13  C    0.001508
    14  C    0.197764
    15  O   -0.280571
    16  O   -0.358228
    17  N   -0.507331
    18  C    0.215580
    19  C   -0.225018
    20  C   -0.104745
    21  C    0.148874
    22  C    0.053114
    23  C    0.115445
    24  O   -0.244229
    25  C   -0.034075
    26  N   -0.402805
    27  C    0.096591
    28  C   -0.219451
    29  C   -0.032081
    30  C    0.048393
    31  C    0.042637
    32  C   -0.018279
    33  C   -0.073428
    34  N   -0.478604
    35  C    0.144492
    36  C   -0.175413
    37  C   -0.032621
    38  C    0.160856
    39  C    0.067985
    40  C    0.127933
    41  O   -0.214070
    42  C   -0.109467
    43  C    0.284316
    44  O   -0.285060
    45  O   -0.356426
    46  C    0.116017
    47  C    0.260501
    48  C   -0.183222
    49  C   -0.236481
    50  C    0.020407
    51  C    0.079752
    52  C   -0.040347
    53  C   -0.044715
    54  C   -0.208014
    55  C   -0.007543
    56  C   -0.013878
    57  C   -0.055972
    58  C    0.008296
    59  C   -0.227867
    60  C   -0.011745
    61  C   -0.004457
    62  C   -0.035234
    63  C   -0.037493
    64  C   -0.248430
    65  C   -0.018131
    66  C   -0.005516
    67  H   -0.008206
    68  H    0.029448
    69  H    0.004401
    70  H    0.036348
    71  H    0.054601
    72  H    0.051351
    73  H    0.057338
    74  H    0.048814
    75  H    0.049674
    76  H    0.061079
    77  H    0.075579
    78  H    0.049904
    79  H    0.056073
    80  H    0.068717
    81  H    0.064795
    82  H    0.054905
    83  H    0.065165
    84  H    0.071088
    85  H    0.062715
    86  H    0.044189
    87  H    0.016634
    88  H    0.046988
    89  H    0.066501
    90  H    0.037274
    91  H    0.037554
    92  H    0.045657
    93  H    0.036200
    94  H    0.062320
    95  H    0.061677
    96  H    0.064929
    97  H    0.034043
    98  H    0.058568
    99  H    0.070707
   100  H    0.048808
   101  H    0.064499
   102  H    0.067940
   103  H    0.066189
   104  H    0.016172
   105  H    0.032844
   106  H    0.057360
   107  H    0.050214
   108  H    0.035984
   109  H    0.020072
   110  H    0.032935
   111  H    0.033033
   112  H    0.029293
   113  H    0.031867
   114  H    0.024787
   115  H    0.039655
   116  H    0.028245
   117  H    0.031278
   118  H    0.038721
   119  H    0.033386
   120  H    0.033547
   121  H    0.031727
   122  H    0.023290
   123  H    0.023827
   124  H    0.024607
   125  H    0.031771
   126  H    0.031132
   127  H    0.039651
   128  H    0.023598
   129  H    0.022718
   130  H    0.024077
   131  H    0.034868
   132  H    0.021326
   133  H    0.034471
   134  H    0.034354
   135  H    0.050097
   136  H    0.028173
   137  H    0.023505
   138  H    0.024668
   139  H    0.041739
   140  H    0.029346
 Sum of Mulliken charges =  -0.00000

 Dipole moment (field-independent basis, Debye):
    X=              4.8941    Y=              3.7509    Z=             -0.9687  Tot=              6.2418
 Quadrupole moment (field-independent basis, Debye-Ang):
   XX=           -360.0253   YY=           -425.3342   ZZ=           -411.4734
   XY=            -19.8117   XZ=              7.3299   YZ=             -0.2401

 Normal termination of Gaussian 16 at Fri Apr 29 00:35:42 2022.
