 Gaussian 16, Revision A.03,
 Gaussian 16:  ES64L-G16RevA.03 25-Dec-2016

 --------------------------------
 #p wB97XD/Def2SVP td=(nstates=5)
 --------------------------------

 -----------------------------------------------------
 step_1801_chromophore_12 TDDFT with wB97XD functional
 -----------------------------------------------------
 Symbolic Z-matrix:
 Charge =  0 Multiplicity = 1

                         Standard orientation:
 ---------------------------------------------------------------------
 Center     Atomic      Atomic             Coordinates (Angstroms)
 Number     Number       Type             X           Y           Z
 ---------------------------------------------------------------------
      1         12           0       -4.123829    0.476720   -0.263470
      2          6           0       -2.992483   -2.785713    0.561082
      3          6           0       -0.768218    1.333580   -0.566789
      4          6           0       -5.081510    3.467256   -1.116693
      5          6           0       -7.420214   -0.581800    0.400988
      6          7           0       -2.107195   -0.692962   -0.145564
      7          6           0       -1.934800   -1.972241    0.238753
      8          6           0       -0.455064   -2.318785    0.138477
      9          6           0        0.291791   -0.875668    0.064965
     10          6           0       -0.928833   -0.040781   -0.305979
     11          6           0        0.856875   -0.350127    1.412019
     12          6           0       -0.141378   -3.339233   -0.980889
     13          6           0        1.085679   -4.301370   -0.780360
     14          6           0        2.112231   -4.233443   -1.896787
     15          8           0        1.930398   -4.065678   -3.105328
     16          8           0        3.330170   -4.392471   -1.339089
     17          7           0       -3.072350    2.187577   -0.717849
     18          6           0       -1.740272    2.332827   -0.807882
     19          6           0       -1.437935    3.750215   -0.993942
     20          6           0       -2.696902    4.387915   -1.395755
     21          6           0       -3.669292    3.366950   -1.158377
     22          6           0       -0.008884    4.329277   -0.931616
     23          6           0       -3.031277    5.864111   -1.920658
     24          8           0       -4.155901    6.401334   -1.876212
     25          6           0       -1.836842    6.671872   -2.298009
     26          7           0       -6.029196    1.376457   -0.175652
     27          6           0       -6.143783    2.608858   -0.633595
     28          6           0       -7.658455    2.899897   -0.891585
     29          6           0       -8.379422    1.688167   -0.263680
     30          6           0       -7.220093    0.720455    0.042167
     31          6           0       -8.005343    4.300567   -0.274752
     32          6           0       -9.694277    1.200955   -0.957256
     33          6           0       -9.651144    0.081953   -2.092704
     34          7           0       -5.092181   -1.371478    0.255717
     35          6           0       -6.473751   -1.626032    0.605591
     36          6           0       -6.615180   -3.020190    1.024297
     37          6           0       -5.292667   -3.526376    0.904286
     38          6           0       -4.403206   -2.468426    0.616332
     39          6           0       -7.876490   -3.830926    1.307410
     40          6           0       -4.449223   -4.704239    1.031161
     41          8           0       -4.783220   -5.825545    1.358992
     42          6           0       -2.982628   -4.216073    0.943312
     43          6           0       -2.408705   -4.445861    2.324039
     44          8           0       -2.833029   -3.982313    3.406985
     45          8           0       -1.353096   -5.309769    2.346046
     46          6           0       -0.766444   -5.669252    3.622565
     47          6           0        4.402869   -4.469692   -2.367179
     48          6           0        5.744971   -4.291121   -1.809649
     49          6           0        6.860163   -3.816068   -2.325379
     50          6           0        6.890813   -3.279411   -3.697582
     51          6           0        8.149364   -3.635793   -1.567021
     52          6           0        8.689734   -2.194981   -1.550841
     53          6           0        9.560629   -2.034031   -0.324812
     54          6           0       10.257647   -0.678595   -0.125901
     55          6           0       11.675975   -0.907259    0.483849
     56          6           0        9.450432    0.339051    0.698861
     57          6           0        9.468595    1.734205    0.001824
     58          6           0        9.061823    2.779062    1.059998
     59          6           0        7.832455    3.670344    0.724624
     60          6           0        8.301304    5.125792    0.384182
     61          6           0        6.709213    3.665296    1.768725
     62          6           0        5.305896    4.076127    1.248239
     63          6           0        4.544203    5.221744    2.026395
     64          6           0        3.120766    4.859793    2.532823
     65          6           0        2.273511    6.183222    2.655588
     66          6           0        3.225105    4.104552    3.851704
     67          1           0        0.259582    1.670585   -0.415966
     68          1           0       -5.414439    4.456453   -1.436707
     69          1           0       -8.479949   -0.810112    0.533470
     70          1           0       -0.097953   -2.773568    1.061999
     71          1           0        0.985386   -0.787614   -0.772198
     72          1           0        1.037455   -1.151988    2.128186
     73          1           0        0.156213    0.327383    1.900329
     74          1           0        1.747790    0.248500    1.223052
     75          1           0        0.191034   -2.619043   -1.728522
     76          1           0       -1.041167   -3.812376   -1.373722
     77          1           0        0.933531   -5.375492   -0.673749
     78          1           0        1.620177   -4.115774    0.152000
     79          1           0        0.662348    3.559952   -0.549813
     80          1           0       -0.152737    5.175404   -0.260336
     81          1           0        0.255968    4.708904   -1.918414
     82          1           0       -2.014132    7.634724   -2.776228
     83          1           0       -1.219948    6.142155   -3.023609
     84          1           0       -1.334947    6.899689   -1.356685
     85          1           0       -7.666976    2.979497   -1.979303
     86          1           0       -8.696122    2.006682    0.729953
     87          1           0       -9.039383    4.098109    0.004111
     88          1           0       -8.222632    4.996787   -1.085369
     89          1           0       -7.436942    4.535816    0.624470
     90          1           0      -10.096844    2.091835   -1.438854
     91          1           0      -10.366174    1.036374   -0.114908
     92          1           0      -10.268768    0.262127   -2.973231
     93          1           0      -10.080337   -0.874336   -1.793648
     94          1           0       -8.612909   -0.154786   -2.322030
     95          1           0       -7.784013   -4.449828    2.199253
     96          1           0       -8.057918   -4.533072    0.493499
     97          1           0       -8.725826   -3.163329    1.453261
     98          1           0       -2.381349   -4.843726    0.285844
     99          1           0       -1.289261   -5.291001    4.500813
    100          1           0        0.231279   -5.233977    3.687532
    101          1           0       -0.776156   -6.757249    3.692237
    102          1           0        4.255081   -3.669417   -3.093154
    103          1           0        4.506793   -5.482607   -2.754993
    104          1           0        5.723748   -4.610568   -0.766914
    105          1           0        7.854813   -3.493060   -4.158971
    106          1           0        6.803206   -2.202910   -3.550682
    107          1           0        6.150588   -3.643367   -4.409739
    108          1           0        8.780086   -4.376783   -2.058472
    109          1           0        8.061640   -4.119301   -0.594498
    110          1           0        7.875081   -1.481878   -1.421998
    111          1           0        9.357053   -1.793250   -2.312643
    112          1           0       10.320167   -2.806302   -0.454421
    113          1           0        8.972287   -2.098947    0.590635
    114          1           0       10.401020   -0.223303   -1.105709
    115          1           0       12.404248   -0.595324   -0.265497
    116          1           0       11.891162   -1.954953    0.693410
    117          1           0       11.830429   -0.418632    1.445398
    118          1           0        9.891637    0.357631    1.694899
    119          1           0        8.389105    0.091086    0.706839
    120          1           0        8.785360    1.778351   -0.845347
    121          1           0       10.444243    2.051150   -0.368018
    122          1           0        9.956815    3.382128    1.214004
    123          1           0        8.828854    2.333869    2.027462
    124          1           0        7.292151    3.280199   -0.137799
    125          1           0        7.671938    5.601821   -0.368182
    126          1           0        9.279563    5.135483   -0.095916
    127          1           0        8.355917    5.655607    1.334996
    128          1           0        6.987479    4.255153    2.641010
    129          1           0        6.606893    2.637879    2.118716
    130          1           0        4.596289    3.262235    1.395265
    131          1           0        5.392157    4.378422    0.204577
    132          1           0        4.403358    5.940738    1.220225
    133          1           0        5.125238    5.682332    2.824985
    134          1           0        2.689311    4.189134    1.790823
    135          1           0        2.696616    7.187716    2.671698
    136          1           0        1.609913    6.045865    3.509556
    137          1           0        1.616561    6.188579    1.785514
    138          1           0        2.626219    4.559453    4.640329
    139          1           0        4.251682    4.046318    4.212418
    140          1           0        2.757265    3.120166    3.845907
 ---------------------------------------------------------------------

 SCF Done:  E(RwB97XD) =  -3007.85465299     A.U. after   19 cycles

 Excitation energies and oscillator strengths:

 Excited State   1:      Singlet-A      1.7601 eV  704.43 nm  f=0.3875  <S**2>=0.000
     245 -> 248       -0.17869
     246 -> 247        0.68128
     245 <- 248       -0.10711
 This state for optimization and/or second-order correction.
 Total Energy, E(TD-HF/TD-DFT) =  -3007.78997142
 Copying the excited state density for this state as the 1-particle RhoCI density.

 Excited State   2:      Singlet-A      2.1495 eV  576.81 nm  f=0.1283  <S**2>=0.000
     245 -> 247        0.64743
     246 -> 248        0.25788

 Excited State   3:      Singlet-A      3.2977 eV  375.97 nm  f=0.0047  <S**2>=0.000
     241 -> 247       -0.26436
     244 -> 247        0.62377

 Excited State   4:      Singlet-A      3.4386 eV  360.56 nm  f=0.0302  <S**2>=0.000
     240 -> 247        0.17566
     241 -> 247        0.52414
     243 -> 247        0.12371
     244 -> 247        0.23027
     246 -> 248       -0.29047

 Excited State   5:      Singlet-A      3.6157 eV  342.91 nm  f=0.1978  <S**2>=0.000
     242 -> 247       -0.27761
     242 -> 249       -0.10766
     242 -> 250       -0.14923
     243 -> 247        0.38400
     243 -> 249        0.14803
     243 -> 250        0.20434
     245 -> 247       -0.14977
     246 -> 248        0.34833

 The electronic state is 1-A.
 Alpha  occ. eigenvalues --  -46.95443 -19.30849 -19.29854 -19.25873 -19.24438
 Alpha  occ. eigenvalues --  -19.23172 -19.22632 -14.46498 -14.46316 -14.44398
 Alpha  occ. eigenvalues --  -14.43168 -10.43036 -10.42692 -10.41502 -10.37642
 Alpha  occ. eigenvalues --  -10.35742 -10.35527 -10.35410 -10.35168 -10.35012
 Alpha  occ. eigenvalues --  -10.34744 -10.34535 -10.34401 -10.33941 -10.33241
 Alpha  occ. eigenvalues --  -10.33240 -10.32795 -10.32399 -10.32205 -10.31966
 Alpha  occ. eigenvalues --  -10.31812 -10.31783 -10.31710 -10.31707 -10.31521
 Alpha  occ. eigenvalues --  -10.31380 -10.31271 -10.31164 -10.31084 -10.31077
 Alpha  occ. eigenvalues --  -10.31045 -10.30722 -10.30696 -10.30618 -10.30250
 Alpha  occ. eigenvalues --  -10.30201 -10.29868 -10.29716 -10.29713 -10.29591
 Alpha  occ. eigenvalues --  -10.29436 -10.29390 -10.29354 -10.29285 -10.29274
 Alpha  occ. eigenvalues --  -10.29249 -10.28984 -10.28983 -10.28874 -10.28652
 Alpha  occ. eigenvalues --  -10.28630 -10.28585 -10.28542 -10.28532 -10.28452
 Alpha  occ. eigenvalues --  -10.27858  -3.21261  -1.94877  -1.94376  -1.94221
 Alpha  occ. eigenvalues --   -1.19112  -1.17735  -1.12412  -1.11244  -1.09367
 Alpha  occ. eigenvalues --   -1.07388  -1.06495  -1.05962  -1.05476  -1.03017
 Alpha  occ. eigenvalues --   -0.94228  -0.93546  -0.91997  -0.91179  -0.90875
 Alpha  occ. eigenvalues --   -0.90692  -0.90189  -0.89780  -0.89493  -0.89220
 Alpha  occ. eigenvalues --   -0.88011  -0.87273  -0.86683  -0.85739  -0.85018
 Alpha  occ. eigenvalues --   -0.84730  -0.84451  -0.83444  -0.82901  -0.82348
 Alpha  occ. eigenvalues --   -0.81926  -0.80686  -0.80278  -0.79050  -0.78062
 Alpha  occ. eigenvalues --   -0.77921  -0.77860  -0.77011  -0.76940  -0.76430
 Alpha  occ. eigenvalues --   -0.75242  -0.74580  -0.73739  -0.72599  -0.72382
 Alpha  occ. eigenvalues --   -0.70819  -0.70042  -0.69092  -0.69029  -0.67679
 Alpha  occ. eigenvalues --   -0.67404  -0.67172  -0.66687  -0.65790  -0.65718
 Alpha  occ. eigenvalues --   -0.65432  -0.65323  -0.64888  -0.63867  -0.62842
 Alpha  occ. eigenvalues --   -0.61921  -0.61275  -0.61151  -0.59664  -0.59617
 Alpha  occ. eigenvalues --   -0.58962  -0.58686  -0.58386  -0.57615  -0.57391
 Alpha  occ. eigenvalues --   -0.57247  -0.57157  -0.56624  -0.56524  -0.56414
 Alpha  occ. eigenvalues --   -0.55817  -0.55738  -0.55685  -0.55346  -0.55200
 Alpha  occ. eigenvalues --   -0.54728  -0.54510  -0.54474  -0.54123  -0.53946
 Alpha  occ. eigenvalues --   -0.53847  -0.53619  -0.53321  -0.53014  -0.52664
 Alpha  occ. eigenvalues --   -0.52468  -0.52359  -0.52208  -0.51903  -0.51679
 Alpha  occ. eigenvalues --   -0.51439  -0.51272  -0.51159  -0.50878  -0.50665
 Alpha  occ. eigenvalues --   -0.50627  -0.50372  -0.50135  -0.49967  -0.49514
 Alpha  occ. eigenvalues --   -0.49470  -0.49278  -0.49112  -0.48767  -0.48460
 Alpha  occ. eigenvalues --   -0.48384  -0.48046  -0.47953  -0.47887  -0.47779
 Alpha  occ. eigenvalues --   -0.47311  -0.47150  -0.47103  -0.46838  -0.46585
 Alpha  occ. eigenvalues --   -0.46546  -0.46388  -0.46225  -0.46032  -0.45921
 Alpha  occ. eigenvalues --   -0.45829  -0.45612  -0.45230  -0.45106  -0.45032
 Alpha  occ. eigenvalues --   -0.44879  -0.44629  -0.44477  -0.44266  -0.44075
 Alpha  occ. eigenvalues --   -0.43603  -0.43527  -0.43061  -0.42861  -0.42838
 Alpha  occ. eigenvalues --   -0.42727  -0.42632  -0.42473  -0.42322  -0.42290
 Alpha  occ. eigenvalues --   -0.41883  -0.41510  -0.41279  -0.41175  -0.40886
 Alpha  occ. eigenvalues --   -0.40661  -0.40621  -0.40388  -0.39651  -0.39623
 Alpha  occ. eigenvalues --   -0.39412  -0.39191  -0.38756  -0.38453  -0.38347
 Alpha  occ. eigenvalues --   -0.37757  -0.37700  -0.37347  -0.36269  -0.35994
 Alpha  occ. eigenvalues --   -0.35791  -0.35558  -0.35016  -0.34463  -0.33127
 Alpha  occ. eigenvalues --   -0.32708  -0.31933  -0.31919  -0.30424  -0.25715
 Alpha  occ. eigenvalues --   -0.23240
 Alpha virt. eigenvalues --   -0.07012   0.00286   0.02101   0.04469   0.06795
 Alpha virt. eigenvalues --    0.07838   0.08026   0.08165   0.08576   0.09159
 Alpha virt. eigenvalues --    0.09338   0.09868   0.11611   0.12007   0.12350

 Mulliken charges:
               1
     1  Mg   0.940250
     2  C    0.020658
     3  C   -0.102881
     4  C   -0.068806
     5  C   -0.075481
     6  N   -0.303511
     7  C   -0.027326
     8  C   -0.045757
     9  C   -0.135354
    10  C    0.033379
    11  C    0.024515
    12  C    0.049477
    13  C    0.012891
    14  C    0.190272
    15  O   -0.278879
    16  O   -0.357598
    17  N   -0.479234
    18  C    0.214225
    19  C   -0.214769
    20  C   -0.103038
    21  C    0.147269
    22  C    0.072609
    23  C    0.115317
    24  O   -0.236544
    25  C   -0.024394
    26  N   -0.363703
    27  C    0.082519
    28  C   -0.192123
    29  C   -0.006495
    30  C    0.029388
    31  C    0.052272
    32  C   -0.005414
    33  C   -0.055962
    34  N   -0.447085
    35  C    0.130104
    36  C   -0.175701
    37  C   -0.028999
    38  C    0.132639
    39  C    0.081173
    40  C    0.109928
    41  O   -0.208155
    42  C   -0.067054
    43  C    0.257306
    44  O   -0.280740
    45  O   -0.354758
    46  C    0.131900
    47  C    0.276813
    48  C   -0.195851
    49  C   -0.216060
    50  C    0.029777
    51  C    0.092954
    52  C   -0.020157
    53  C   -0.024698
    54  C   -0.179003
    55  C    0.003293
    56  C    0.002570
    57  C   -0.039860
    58  C    0.023306
    59  C   -0.196226
    60  C    0.000216
    61  C    0.009344
    62  C   -0.017047
    63  C   -0.024722
    64  C   -0.214253
    65  C   -0.004624
    66  C    0.003267
    67  H   -0.019089
    68  H    0.023020
    69  H   -0.003349
    70  H    0.019483
    71  H    0.046320
    72  H    0.047776
    73  H    0.050360
    74  H    0.043737
    75  H    0.036824
    76  H    0.055177
    77  H    0.071187
    78  H    0.044031
    79  H    0.053736
    80  H    0.061694
    81  H    0.060635
    82  H    0.055359
    83  H    0.060400
    84  H    0.065872
    85  H    0.052405
    86  H    0.031896
    87  H    0.008971
    88  H    0.042664
    89  H    0.062430
    90  H    0.027891
    91  H    0.031715
    92  H    0.040904
    93  H    0.030383
    94  H    0.053057
    95  H    0.055959
    96  H    0.058416
    97  H    0.026464
    98  H    0.050192
    99  H    0.066805
   100  H    0.043776
   101  H    0.060365
   102  H    0.061138
   103  H    0.061480
   104  H    0.013083
   105  H    0.027351
   106  H    0.050451
   107  H    0.046297
   108  H    0.027787
   109  H    0.013416
   110  H    0.021297
   111  H    0.024842
   112  H    0.018304
   113  H    0.021471
   114  H    0.009817
   115  H    0.034467
   116  H    0.022138
   117  H    0.025518
   118  H    0.028721
   119  H    0.022552
   120  H    0.024480
   121  H    0.023573
   122  H    0.015666
   123  H    0.012977
   124  H    0.009175
   125  H    0.026261
   126  H    0.024591
   127  H    0.032739
   128  H    0.013443
   129  H    0.013680
   130  H    0.013493
   131  H    0.026135
   132  H    0.011627
   133  H    0.025494
   134  H    0.021484
   135  H    0.045788
   136  H    0.021440
   137  H    0.014921
   138  H    0.018472
   139  H    0.035157
   140  H    0.024438
 Sum of Mulliken charges =  -0.00000

 Dipole moment (field-independent basis, Debye):
    X=              5.4183    Y=              4.6995    Z=             -1.2320  Tot=              7.2774
 Quadrupole moment (field-independent basis, Debye-Ang):
   XX=           -363.9990   YY=           -423.1813   ZZ=           -411.1019
   XY=            -22.8889   XZ=              8.4716   YZ=             -0.7929

 Normal termination of Gaussian 16 at Fri Apr 29 01:05:54 2022.
