 Gaussian 16, Revision A.03,
 Gaussian 16:  ES64L-G16RevA.03 25-Dec-2016

 --------------------
 #p ZINDO=(nstates=5)
 --------------------

 ------------------------------
 step_1801_chromophore_12 ZINDO
 ------------------------------
 Symbolic Z-matrix:
 Charge =  0 Multiplicity = 1

                         Standard orientation:
 ---------------------------------------------------------------------
 Center     Atomic      Atomic             Coordinates (Angstroms)
 Number     Number       Type             X           Y           Z
 ---------------------------------------------------------------------
      1         12           0       -4.123829    0.476720   -0.263470
      2          6           0       -2.992483   -2.785713    0.561082
      3          6           0       -0.768218    1.333580   -0.566789
      4          6           0       -5.081510    3.467256   -1.116693
      5          6           0       -7.420214   -0.581800    0.400988
      6          7           0       -2.107195   -0.692962   -0.145564
      7          6           0       -1.934800   -1.972241    0.238753
      8          6           0       -0.455064   -2.318785    0.138477
      9          6           0        0.291791   -0.875668    0.064965
     10          6           0       -0.928833   -0.040781   -0.305979
     11          6           0        0.856875   -0.350127    1.412019
     12          6           0       -0.141378   -3.339233   -0.980889
     13          6           0        1.085679   -4.301370   -0.780360
     14          6           0        2.112231   -4.233443   -1.896787
     15          8           0        1.930398   -4.065678   -3.105328
     16          8           0        3.330170   -4.392471   -1.339089
     17          7           0       -3.072350    2.187577   -0.717849
     18          6           0       -1.740272    2.332827   -0.807882
     19          6           0       -1.437935    3.750215   -0.993942
     20          6           0       -2.696902    4.387915   -1.395755
     21          6           0       -3.669292    3.366950   -1.158377
     22          6           0       -0.008884    4.329277   -0.931616
     23          6           0       -3.031277    5.864111   -1.920658
     24          8           0       -4.155901    6.401334   -1.876212
     25          6           0       -1.836842    6.671872   -2.298009
     26          7           0       -6.029196    1.376457   -0.175652
     27          6           0       -6.143783    2.608858   -0.633595
     28          6           0       -7.658455    2.899897   -0.891585
     29          6           0       -8.379422    1.688167   -0.263680
     30          6           0       -7.220093    0.720455    0.042167
     31          6           0       -8.005343    4.300567   -0.274752
     32          6           0       -9.694277    1.200955   -0.957256
     33          6           0       -9.651144    0.081953   -2.092704
     34          7           0       -5.092181   -1.371478    0.255717
     35          6           0       -6.473751   -1.626032    0.605591
     36          6           0       -6.615180   -3.020190    1.024297
     37          6           0       -5.292667   -3.526376    0.904286
     38          6           0       -4.403206   -2.468426    0.616332
     39          6           0       -7.876490   -3.830926    1.307410
     40          6           0       -4.449223   -4.704239    1.031161
     41          8           0       -4.783220   -5.825545    1.358992
     42          6           0       -2.982628   -4.216073    0.943312
     43          6           0       -2.408705   -4.445861    2.324039
     44          8           0       -2.833029   -3.982313    3.406985
     45          8           0       -1.353096   -5.309769    2.346046
     46          6           0       -0.766444   -5.669252    3.622565
     47          6           0        4.402869   -4.469692   -2.367179
     48          6           0        5.744971   -4.291121   -1.809649
     49          6           0        6.860163   -3.816068   -2.325379
     50          6           0        6.890813   -3.279411   -3.697582
     51          6           0        8.149364   -3.635793   -1.567021
     52          6           0        8.689734   -2.194981   -1.550841
     53          6           0        9.560629   -2.034031   -0.324812
     54          6           0       10.257647   -0.678595   -0.125901
     55          6           0       11.675975   -0.907259    0.483849
     56          6           0        9.450432    0.339051    0.698861
     57          6           0        9.468595    1.734205    0.001824
     58          6           0        9.061823    2.779062    1.059998
     59          6           0        7.832455    3.670344    0.724624
     60          6           0        8.301304    5.125792    0.384182
     61          6           0        6.709213    3.665296    1.768725
     62          6           0        5.305896    4.076127    1.248239
     63          6           0        4.544203    5.221744    2.026395
     64          6           0        3.120766    4.859793    2.532823
     65          6           0        2.273511    6.183222    2.655588
     66          6           0        3.225105    4.104552    3.851704
     67          1           0        0.259582    1.670585   -0.415966
     68          1           0       -5.414439    4.456453   -1.436707
     69          1           0       -8.479949   -0.810112    0.533470
     70          1           0       -0.097953   -2.773568    1.061999
     71          1           0        0.985386   -0.787614   -0.772198
     72          1           0        1.037455   -1.151988    2.128186
     73          1           0        0.156213    0.327383    1.900329
     74          1           0        1.747790    0.248500    1.223052
     75          1           0        0.191034   -2.619043   -1.728522
     76          1           0       -1.041167   -3.812376   -1.373722
     77          1           0        0.933531   -5.375492   -0.673749
     78          1           0        1.620177   -4.115774    0.152000
     79          1           0        0.662348    3.559952   -0.549813
     80          1           0       -0.152737    5.175404   -0.260336
     81          1           0        0.255968    4.708904   -1.918414
     82          1           0       -2.014132    7.634724   -2.776228
     83          1           0       -1.219948    6.142155   -3.023609
     84          1           0       -1.334947    6.899689   -1.356685
     85          1           0       -7.666976    2.979497   -1.979303
     86          1           0       -8.696122    2.006682    0.729953
     87          1           0       -9.039383    4.098109    0.004111
     88          1           0       -8.222632    4.996787   -1.085369
     89          1           0       -7.436942    4.535816    0.624470
     90          1           0      -10.096844    2.091835   -1.438854
     91          1           0      -10.366174    1.036374   -0.114908
     92          1           0      -10.268768    0.262127   -2.973231
     93          1           0      -10.080337   -0.874336   -1.793648
     94          1           0       -8.612909   -0.154786   -2.322030
     95          1           0       -7.784013   -4.449828    2.199253
     96          1           0       -8.057918   -4.533072    0.493499
     97          1           0       -8.725826   -3.163329    1.453261
     98          1           0       -2.381349   -4.843726    0.285844
     99          1           0       -1.289261   -5.291001    4.500813
    100          1           0        0.231279   -5.233977    3.687532
    101          1           0       -0.776156   -6.757249    3.692237
    102          1           0        4.255081   -3.669417   -3.093154
    103          1           0        4.506793   -5.482607   -2.754993
    104          1           0        5.723748   -4.610568   -0.766914
    105          1           0        7.854813   -3.493060   -4.158971
    106          1           0        6.803206   -2.202910   -3.550682
    107          1           0        6.150588   -3.643367   -4.409739
    108          1           0        8.780086   -4.376783   -2.058472
    109          1           0        8.061640   -4.119301   -0.594498
    110          1           0        7.875081   -1.481878   -1.421998
    111          1           0        9.357053   -1.793250   -2.312643
    112          1           0       10.320167   -2.806302   -0.454421
    113          1           0        8.972287   -2.098947    0.590635
    114          1           0       10.401020   -0.223303   -1.105709
    115          1           0       12.404248   -0.595324   -0.265497
    116          1           0       11.891162   -1.954953    0.693410
    117          1           0       11.830429   -0.418632    1.445398
    118          1           0        9.891637    0.357631    1.694899
    119          1           0        8.389105    0.091086    0.706839
    120          1           0        8.785360    1.778351   -0.845347
    121          1           0       10.444243    2.051150   -0.368018
    122          1           0        9.956815    3.382128    1.214004
    123          1           0        8.828854    2.333869    2.027462
    124          1           0        7.292151    3.280199   -0.137799
    125          1           0        7.671938    5.601821   -0.368182
    126          1           0        9.279563    5.135483   -0.095916
    127          1           0        8.355917    5.655607    1.334996
    128          1           0        6.987479    4.255153    2.641010
    129          1           0        6.606893    2.637879    2.118716
    130          1           0        4.596289    3.262235    1.395265
    131          1           0        5.392157    4.378422    0.204577
    132          1           0        4.403358    5.940738    1.220225
    133          1           0        5.125238    5.682332    2.824985
    134          1           0        2.689311    4.189134    1.790823
    135          1           0        2.696616    7.187716    2.671698
    136          1           0        1.609913    6.045865    3.509556
    137          1           0        1.616561    6.188579    1.785514
    138          1           0        2.626219    4.559453    4.640329
    139          1           0        4.251682    4.046318    4.212418
    140          1           0        2.757265    3.120166    3.845907
 ---------------------------------------------------------------------

 SCF Done:  E(RZINDO/S) =  -474.214325460     A.U. after   19 cycles

 Excitation energies and oscillator strengths:

 Excited State   1:      Singlet-A      1.3524 eV  916.78 nm  f=0.5423  <S**2>=0.000
     175 ->178         0.16489
     176 ->177         0.66830
 This state for optimization and/or second-order correction.
 Total Energy, E(CIS/TDA) =  -474.164626107
 Copying the excited state density for this state as the 1-particle RhoCI density.

 Excited State   2:      Singlet-A      1.9399 eV  639.12 nm  f=0.0894  <S**2>=0.000
     175 ->177         0.56965
     176 ->178        -0.37333

 Excited State   3:      Singlet-A      2.9854 eV  415.30 nm  f=0.0838  <S**2>=0.000
     170 ->177         0.20195
     170 ->179         0.19394
     170 ->180         0.32189
     170 ->185         0.16001
     170 ->189         0.16044
     171 ->180        -0.13402
     174 ->177         0.24300
     174 ->179         0.10238
     174 ->180         0.13794
     175 ->177         0.10571
     176 ->178         0.15895
     176 ->179        -0.14806
     176 ->180        -0.12893

 Excited State   4:      Singlet-A      3.0168 eV  410.97 nm  f=0.8615  <S**2>=0.000
     166 ->179        -0.13382
     170 ->177        -0.13008
     170 ->180        -0.12254
     171 ->177        -0.13583
     175 ->177         0.31722
     176 ->178         0.49685

 Excited State   5:      Singlet-A      3.0515 eV  406.30 nm  f=0.1076  <S**2>=0.000
     166 ->177         0.24069
     166 ->178        -0.16746
     166 ->179        -0.40052
     166 ->180         0.20086
     166 ->184         0.11493
     166 ->185        -0.11659
     168 ->177         0.10854
     168 ->179        -0.18051
     175 ->177        -0.11398
     176 ->178        -0.15426
     176 ->179         0.12706

 The electronic state is 1-A.
 Alpha  occ. eigenvalues --   -1.82260  -1.80983  -1.79979  -1.74850  -1.72393
 Alpha  occ. eigenvalues --   -1.70078  -1.65883  -1.61855  -1.58362  -1.57417
 Alpha  occ. eigenvalues --   -1.56916  -1.53204  -1.48157  -1.47007  -1.45327
 Alpha  occ. eigenvalues --   -1.42487  -1.41507  -1.40739  -1.39636  -1.39205
 Alpha  occ. eigenvalues --   -1.36268  -1.34192  -1.31978  -1.30472  -1.27875
 Alpha  occ. eigenvalues --   -1.27154  -1.24717  -1.23960  -1.22566  -1.18531
 Alpha  occ. eigenvalues --   -1.16964  -1.16306  -1.15351  -1.15004  -1.14307
 Alpha  occ. eigenvalues --   -1.12825  -1.11585  -1.11231  -1.04648  -1.03971
 Alpha  occ. eigenvalues --   -1.02315  -1.01411  -0.99829  -0.99172  -0.97937
 Alpha  occ. eigenvalues --   -0.96485  -0.94080  -0.93608  -0.92236  -0.91789
 Alpha  occ. eigenvalues --   -0.90869  -0.89549  -0.88870  -0.88544  -0.88195
 Alpha  occ. eigenvalues --   -0.85039  -0.83919  -0.83360  -0.81181  -0.80312
 Alpha  occ. eigenvalues --   -0.80155  -0.79160  -0.77945  -0.77075  -0.76672
 Alpha  occ. eigenvalues --   -0.75474  -0.75224  -0.74886  -0.74524  -0.73632
 Alpha  occ. eigenvalues --   -0.72514  -0.72014  -0.71794  -0.71657  -0.71461
 Alpha  occ. eigenvalues --   -0.70066  -0.69306  -0.68906  -0.68669  -0.68210
 Alpha  occ. eigenvalues --   -0.67833  -0.67651  -0.67343  -0.66370  -0.66032
 Alpha  occ. eigenvalues --   -0.65721  -0.65359  -0.65060  -0.64372  -0.64167
 Alpha  occ. eigenvalues --   -0.63636  -0.62923  -0.62464  -0.61949  -0.61740
 Alpha  occ. eigenvalues --   -0.61077  -0.60815  -0.60597  -0.60333  -0.60043
 Alpha  occ. eigenvalues --   -0.59628  -0.59454  -0.59085  -0.58925  -0.58733
 Alpha  occ. eigenvalues --   -0.58308  -0.57901  -0.57709  -0.57174  -0.56726
 Alpha  occ. eigenvalues --   -0.56122  -0.55739  -0.55635  -0.55075  -0.54748
 Alpha  occ. eigenvalues --   -0.54257  -0.54255  -0.53605  -0.52764  -0.52366
 Alpha  occ. eigenvalues --   -0.51879  -0.51798  -0.51656  -0.51468  -0.51398
 Alpha  occ. eigenvalues --   -0.51290  -0.50964  -0.50803  -0.50620  -0.50365
 Alpha  occ. eigenvalues --   -0.49914  -0.49465  -0.49384  -0.49201  -0.49180
 Alpha  occ. eigenvalues --   -0.48801  -0.48498  -0.48251  -0.48084  -0.47615
 Alpha  occ. eigenvalues --   -0.47461  -0.47359  -0.47209  -0.46836  -0.46817
 Alpha  occ. eigenvalues --   -0.46390  -0.46253  -0.46043  -0.45936  -0.45531
 Alpha  occ. eigenvalues --   -0.45334  -0.45156  -0.44425  -0.44389  -0.44364
 Alpha  occ. eigenvalues --   -0.43813  -0.43750  -0.43365  -0.42596  -0.42547
 Alpha  occ. eigenvalues --   -0.42061  -0.41627  -0.40160  -0.38789  -0.38586
 Alpha  occ. eigenvalues --   -0.37453  -0.37290  -0.36677  -0.34772  -0.33797
 Alpha  occ. eigenvalues --   -0.33583  -0.32128  -0.32093  -0.30693  -0.26459
 Alpha  occ. eigenvalues --   -0.22062
 Alpha virt. eigenvalues --   -0.08377  -0.01863  -0.00913   0.01121   0.01806
 Alpha virt. eigenvalues --    0.02859   0.03215   0.03320   0.04227   0.05322
 Alpha virt. eigenvalues --    0.05494   0.06058   0.06530   0.07307   0.07931

 Mulliken charges:
               1
     1  Mg   0.429000
     2  C   -0.038591
     3  C   -0.115675
     4  C   -0.069851
     5  C   -0.031144
     6  N   -0.298899
     7  C    0.113101
     8  C    0.005077
     9  C   -0.002897
    10  C    0.179288
    11  C   -0.042726
    12  C   -0.024293
    13  C    0.003512
    14  C    0.470487
    15  O   -0.534211
    16  O   -0.264792
    17  N   -0.335949
    18  C    0.158709
    19  C    0.011396
    20  C   -0.039913
    21  C    0.142957
    22  C   -0.045811
    23  C    0.339448
    24  O   -0.505799
    25  C   -0.024505
    26  N   -0.244181
    27  C    0.165262
    28  C    0.003259
    29  C    0.004635
    30  C    0.072880
    31  C   -0.065224
    32  C   -0.030373
    33  C   -0.059012
    34  N   -0.335467
    35  C    0.040595
    36  C    0.018333
    37  C   -0.065721
    38  C    0.111377
    39  C   -0.033915
    40  C    0.333046
    41  O   -0.529843
    42  C    0.068357
    43  C    0.484494
    44  O   -0.541275
    45  O   -0.271943
    46  C    0.078210
    47  C    0.102024
    48  C   -0.089207
    49  C   -0.009886
    50  C   -0.043528
    51  C   -0.014329
    52  C   -0.028584
    53  C   -0.039812
    54  C   -0.021266
    55  C   -0.061929
    56  C   -0.031370
    57  C   -0.036249
    58  C   -0.038757
    59  C   -0.013875
    60  C   -0.059565
    61  C   -0.030327
    62  C   -0.045374
    63  C   -0.041407
    64  C   -0.003192
    65  C   -0.062631
    66  C   -0.056684
    67  H    0.022371
    68  H    0.037853
    69  H    0.024100
    70  H    0.021298
    71  H    0.039949
    72  H    0.027221
    73  H    0.026409
    74  H    0.020490
    75  H    0.025655
    76  H    0.041510
    77  H    0.053648
    78  H    0.034542
    79  H    0.039044
    80  H    0.035182
    81  H    0.036356
    82  H    0.035470
    83  H    0.032678
    84  H    0.046324
    85  H    0.039445
    86  H    0.025399
    87  H    0.006355
    88  H    0.036547
    89  H    0.047562
    90  H    0.011329
    91  H    0.025437
    92  H    0.025409
    93  H    0.016109
    94  H    0.027599
    95  H    0.034970
    96  H    0.034575
    97  H    0.017776
    98  H    0.043598
    99  H    0.053415
   100  H    0.030038
   101  H    0.038295
   102  H    0.057789
   103  H    0.058510
   104  H    0.013516
   105  H    0.015747
   106  H    0.030568
   107  H    0.024361
   108  H    0.023225
   109  H    0.022648
   110  H    0.017162
   111  H    0.034099
   112  H    0.017925
   113  H    0.020072
   114  H    0.014527
   115  H    0.016925
   116  H    0.015162
   117  H    0.020821
   118  H    0.029762
   119  H    0.019750
   120  H    0.022549
   121  H    0.019776
   122  H    0.015515
   123  H    0.016289
   124  H    0.015365
   125  H    0.017345
   126  H    0.013788
   127  H    0.024431
   128  H    0.019529
   129  H    0.009197
   130  H    0.019481
   131  H    0.023658
   132  H    0.004577
   133  H    0.027982
   134  H    0.022827
   135  H    0.034230
   136  H    0.015879
   137  H    0.004458
   138  H    0.013825
   139  H    0.022450
   140  H    0.014856
 Sum of Mulliken charges =  -0.00000

 Dipole moment (field-independent basis, Debye):
    X=              8.7668    Y=              7.3649    Z=             -2.2677  Tot=             11.6722
 N-N= 4.479729792482D+03 E-N= 0.000000000000D+00  KE=-9.633401719069D+03
 Leave Link  601 at Fri Apr 29 01:21:33 2022, MaxMem=  6710886400 cpu:               0.8 elap:               0.1
 (Enter /sw/apps/gaussian-16.0/g16/l9999.exe)
 1\1\GINC-BP1-COMPUTE137\SP\RZINDO CIS\STO-3G\C55H74Mg1N4O6\OF15641\29-
 Apr-2022\0\\#p ZINDO=(nstates=5)\\step_1801_chromophore_12 ZINDO\\0,1\
 Mg,0,47.926,15.475,27.89\C,0,45.849,15.008,30.731\C,0,49.836,17.576,29
 .896\C,0,49.93,15.883,25.359\C,0,45.655,13.544,26.008\N,0,47.886,16.08
 8,30.142\C,0,46.93,15.794,31.044\C,0,47.332,16.378,32.392\C,0,48.48,17
 .472,32.03\C,0,48.798,16.967,30.627\C,0,47.989,18.941,31.925\C,0,47.68
 4,15.3,33.444\C,0,47.421,15.632,34.958\C,0,48.649,15.501,35.841\O,0,49

 Normal termination of Gaussian 16 at Fri Apr 29 01:21:33 2022.
