 Gaussian 16, Revision A.03,
 Gaussian 16:  ES64L-G16RevA.03 25-Dec-2016

 ------------------------------
 #p blyp/Def2SVP td=(nstates=5)
 ------------------------------

 -------------------------------------------------
 step_551_chromophore_1 TDDFT with blyp functional
 -------------------------------------------------
 Symbolic Z-matrix:
 Charge =  0 Multiplicity = 1

                         Standard orientation:
 ---------------------------------------------------------------------
 Center     Atomic      Atomic             Coordinates (Angstroms)
 Number     Number       Type             X           Y           Z
 ---------------------------------------------------------------------
      1         12           0        5.941178    0.488703    0.139828
      2          6           0        3.754125   -2.246805   -0.518360
      3          6           0        3.246578    2.572289   -0.662981
      4          6           0        8.049002    2.935481   -0.253040
      5          6           0        8.491253   -1.723268    0.661410
      6          7           0        3.701131    0.183826   -0.482637
      7          6           0        3.083548   -1.032502   -0.745745
      8          6           0        1.612419   -0.760945   -1.248429
      9          6           0        1.549057    0.812353   -1.551661
     10          6           0        2.852975    1.243620   -0.775644
     11          6           0        1.550651    1.141537   -3.086664
     12          6           0        0.582253   -1.131096   -0.170858
     13          6           0       -0.832282   -0.910049   -0.631449
     14          6           0       -1.835823   -1.956428   -0.046423
     15          8           0       -1.729552   -2.645456    0.967996
     16          8           0       -2.974288   -1.912840   -0.825501
     17          7           0        5.645188    2.512348   -0.150036
     18          6           0        4.438220    3.213328   -0.273526
     19          6           0        4.754876    4.682686   -0.213840
     20          6           0        6.177134    4.769775   -0.014039
     21          6           0        6.680677    3.380628   -0.121853
     22          6           0        3.665003    5.670403   -0.444404
     23          6           0        7.026966    5.990039    0.212878
     24          8           0        8.230679    5.989929    0.368993
     25          6           0        6.268370    7.335656    0.460006
     26          7           0        8.039828    0.554327   -0.059633
     27          6           0        8.662488    1.692553   -0.251775
     28          6           0       10.256881    1.504026   -0.180700
     29          6           0       10.326867    0.068163    0.296341
     30          6           0        8.873454   -0.430202    0.292078
     31          6           0       10.979355    1.761930   -1.598736
     32          6           0       11.062514   -0.070088    1.639925
     33          6           0       10.307176    0.131454    2.932868
     34          7           0        6.123893   -1.566518    0.321925
     35          6           0        7.221748   -2.328023    0.591265
     36          6           0        6.896219   -3.716676    0.496622
     37          6           0        5.551657   -3.701780    0.102390
     38          6           0        5.097630   -2.413048    0.026454
     39          6           0        7.874412   -4.838851    0.521922
     40          6           0        4.506163   -4.561003   -0.273113
     41          8           0        4.480539   -5.821224   -0.328793
     42          6           0        3.306501   -3.697677   -0.824747
     43          6           0        2.146179   -4.152723   -0.028532
     44          8           0        1.974486   -3.907521    1.149350
     45          8           0        1.449702   -5.066864   -0.702231
     46          6           0        0.370555   -5.755142    0.068833
     47          6           0       -4.066304   -2.790087   -0.437636
     48          6           0       -5.189466   -1.960705    0.078228
     49          6           0       -6.474273   -2.329372    0.085126
     50          6           0       -7.037700   -3.650569   -0.447083
     51          6           0       -7.484156   -1.306867    0.600269
     52          6           0       -7.330398    0.110396    0.007187
     53          6           0       -8.656164    0.718071   -0.193311
     54          6           0       -8.877930    1.966263    0.722834
     55          6           0       -7.804175    3.069747    0.667760
     56          6           0       -9.325443    1.554366    2.144251
     57          6           0      -10.656722    2.092032    2.763836
     58          6           0      -11.687930    0.972525    3.124378
     59          6           0      -12.970128    1.055629    2.316996
     60          6           0      -14.087318    0.272954    2.939740
     61          6           0      -12.617345    0.547420    0.879460
     62          6           0      -12.460108    1.542533   -0.286506
     63          6           0      -13.751350    1.799081   -1.113999
     64          6           0      -13.729124    0.797036   -2.415851
     65          6           0      -13.326403    1.617842   -3.686360
     66          6           0      -15.103738    0.042085   -2.567691
     67          1           0        2.452718    3.303548   -0.826918
     68          1           0        8.784357    3.734066   -0.369592
     69          1           0        9.199429   -2.451034    1.063272
     70          1           0        1.461273   -1.375131   -2.136476
     71          1           0        0.643205    1.236983   -1.119489
     72          1           0        2.355345    1.867519   -3.205840
     73          1           0        0.632678    1.651879   -3.377666
     74          1           0        1.693635    0.284073   -3.744388
     75          1           0        0.696719   -0.444836    0.667592
     76          1           0        0.568170   -2.183511    0.111061
     77          1           0       -0.836695   -0.882699   -1.721797
     78          1           0       -1.127754    0.100865   -0.355013
     79          1           0        2.671475    5.287145   -0.679118
     80          1           0        3.848833    6.297853   -1.317098
     81          1           0        3.643737    6.222598    0.494330
     82          1           0        5.855713    7.629754   -0.504497
     83          1           0        6.914134    8.080957    0.926015
     84          1           0        5.419027    7.074219    1.091612
     85          1           0       10.779704    2.125494    0.546856
     86          1           0       10.893075   -0.478795   -0.457073
     87          1           0       10.284750    1.426697   -2.368493
     88          1           0       11.884007    1.160033   -1.681384
     89          1           0       11.253842    2.793028   -1.821695
     90          1           0       11.998318    0.487322    1.609490
     91          1           0       11.275343   -1.135573    1.720847
     92          1           0       10.113660   -0.853991    3.357014
     93          1           0        9.341203    0.587038    2.717837
     94          1           0       10.856662    0.794681    3.600538
     95          1           0        7.274504   -5.678501    0.872561
     96          1           0        8.780363   -4.676586    1.107061
     97          1           0        8.152721   -4.854005   -0.531237
     98          1           0        3.080221   -3.769395   -1.888853
     99          1           0       -0.531579   -5.214061   -0.218530
    100          1           0        0.391926   -5.832343    1.155815
    101          1           0        0.085559   -6.695028   -0.404903
    102          1           0       -3.725816   -3.524810    0.290916
    103          1           0       -4.319112   -3.244916   -1.395799
    104          1           0       -4.863483   -0.955240    0.343389
    105          1           0       -7.493778   -4.186975    0.385405
    106          1           0       -6.277565   -4.173935   -1.025703
    107          1           0       -7.845892   -3.521496   -1.168191
    108          1           0       -7.457298   -1.178246    1.682679
    109          1           0       -8.424586   -1.734693    0.254505
    110          1           0       -6.933020    0.046732   -1.006365
    111          1           0       -6.686677    0.693874    0.664610
    112          1           0       -9.429114    0.007519    0.097318
    113          1           0       -8.733902    0.960279   -1.253432
    114          1           0       -9.772197    2.389022    0.265494
    115          1           0       -8.411598    3.973890    0.634274
    116          1           0       -7.249403    2.992140   -0.267323
    117          1           0       -7.051149    3.126389    1.453764
    118          1           0       -8.498788    1.908539    2.760444
    119          1           0       -9.227269    0.470602    2.214165
    120          1           0      -11.002525    2.876014    2.089425
    121          1           0      -10.366835    2.710803    3.612719
    122          1           0      -11.956275    0.920151    4.179705
    123          1           0      -11.179006    0.016082    3.003651
    124          1           0      -13.303824    2.082887    2.171919
    125          1           0      -13.841877   -0.269948    3.853010
    126          1           0      -14.589937   -0.393256    2.238640
    127          1           0      -14.724620    1.119214    3.194656
    128          1           0      -13.371772   -0.130583    0.479545
    129          1           0      -11.686675   -0.019627    0.916806
    130          1           0      -11.617262    1.242975   -0.909825
    131          1           0      -12.204866    2.481014    0.205498
    132          1           0      -13.912947    2.842292   -1.385304
    133          1           0      -14.462031    1.390279   -0.395157
    134          1           0      -13.005086   -0.003803   -2.262436
    135          1           0      -12.417182    1.158293   -4.074019
    136          1           0      -13.081630    2.666884   -3.519077
    137          1           0      -14.061850    1.646252   -4.490727
    138          1           0      -15.092523   -0.978008   -2.183073
    139          1           0      -15.506592    0.102186   -3.578783
    140          1           0      -15.832983    0.530475   -1.921525
 ---------------------------------------------------------------------

 SCF Done:  E(RB-LYP) =  -3007.35623298     A.U. after   22 cycles

 Excitation energies and oscillator strengths:

 Excited State   1:      Singlet-A      1.7790 eV  696.93 nm  f=0.0005  <S**2>=0.000
     244 -> 247        0.70502
 This state for optimization and/or second-order correction.
 Total Energy, E(TD-HF/TD-DFT) =  -3007.29085613
 Copying the excited state density for this state as the 1-particle RhoCI density.

 Excited State   2:      Singlet-A      1.8507 eV  669.94 nm  f=0.2752  <S**2>=0.000
     245 -> 248       -0.18759
     246 -> 247        0.67826
     246 <- 247       -0.14090

 Excited State   3:      Singlet-A      1.9032 eV  651.46 nm  f=0.0279  <S**2>=0.000
     243 -> 247        0.64091
     245 -> 247        0.26849

 Excited State   4:      Singlet-A      1.9867 eV  624.08 nm  f=0.0941  <S**2>=0.000
     243 -> 247       -0.28511
     245 -> 247        0.60251
     246 -> 248        0.18920

 Excited State   5:      Singlet-A      2.2101 eV  560.99 nm  f=0.0000  <S**2>=0.000
     242 -> 247        0.70710

 The electronic state is 1-A.
 Alpha  occ. eigenvalues --  -46.27469 -18.81849 -18.81757 -18.77567 -18.75781
 Alpha  occ. eigenvalues --  -18.74934 -18.74768 -14.03375 -14.03063 -14.01495
 Alpha  occ. eigenvalues --  -14.00574 -10.04607 -10.02413 -10.00001  -9.99047
 Alpha  occ. eigenvalues --   -9.97239  -9.96847  -9.96831  -9.96809  -9.96586
 Alpha  occ. eigenvalues --   -9.96549  -9.96356  -9.96245  -9.95252  -9.95054
 Alpha  occ. eigenvalues --   -9.94833  -9.94557  -9.94440  -9.94207  -9.93857
 Alpha  occ. eigenvalues --   -9.93805  -9.93692  -9.93564  -9.93405  -9.93271
 Alpha  occ. eigenvalues --   -9.93084  -9.93051  -9.92839  -9.92834  -9.92818
 Alpha  occ. eigenvalues --   -9.92655  -9.92503  -9.92413  -9.92375  -9.92175
 Alpha  occ. eigenvalues --   -9.92111  -9.91914  -9.91768  -9.91744  -9.91618
 Alpha  occ. eigenvalues --   -9.91580  -9.91539  -9.91414  -9.91391  -9.91349
 Alpha  occ. eigenvalues --   -9.91146  -9.91096  -9.91037  -9.90803  -9.90762
 Alpha  occ. eigenvalues --   -9.90757  -9.90712  -9.90619  -9.90599  -9.90487
 Alpha  occ. eigenvalues --   -9.90484  -2.92069  -1.72490  -1.71982  -1.71760
 Alpha  occ. eigenvalues --   -0.97746  -0.97682  -0.92014  -0.89975  -0.88988
 Alpha  occ. eigenvalues --   -0.88516  -0.87749  -0.86165  -0.85118  -0.83989
 Alpha  occ. eigenvalues --   -0.75089  -0.74078  -0.73314  -0.72942  -0.72807
 Alpha  occ. eigenvalues --   -0.71802  -0.71652  -0.70771  -0.70568  -0.70340
 Alpha  occ. eigenvalues --   -0.70146  -0.68883  -0.68031  -0.67331  -0.66888
 Alpha  occ. eigenvalues --   -0.66379  -0.66003  -0.65397  -0.65016  -0.64543
 Alpha  occ. eigenvalues --   -0.64244  -0.62758  -0.62241  -0.61606  -0.60858
 Alpha  occ. eigenvalues --   -0.60638  -0.60065  -0.60055  -0.59768  -0.58744
 Alpha  occ. eigenvalues --   -0.58121  -0.57631  -0.56698  -0.54935  -0.54855
 Alpha  occ. eigenvalues --   -0.54420  -0.53731  -0.52567  -0.52361  -0.51308
 Alpha  occ. eigenvalues --   -0.51179  -0.50933  -0.50738  -0.50260  -0.50113
 Alpha  occ. eigenvalues --   -0.48927  -0.48802  -0.47816  -0.47500  -0.46801
 Alpha  occ. eigenvalues --   -0.46741  -0.46243  -0.45960  -0.45184  -0.44421
 Alpha  occ. eigenvalues --   -0.43910  -0.43652  -0.43224  -0.42854  -0.42794
 Alpha  occ. eigenvalues --   -0.42355  -0.42019  -0.41859  -0.41648  -0.41154
 Alpha  occ. eigenvalues --   -0.40603  -0.40376  -0.40267  -0.40166  -0.39973
 Alpha  occ. eigenvalues --   -0.39917  -0.39594  -0.39298  -0.39158  -0.38971
 Alpha  occ. eigenvalues --   -0.38877  -0.38733  -0.38665  -0.38158  -0.38064
 Alpha  occ. eigenvalues --   -0.37814  -0.37761  -0.37548  -0.37448  -0.37120
 Alpha  occ. eigenvalues --   -0.36925  -0.36743  -0.36673  -0.36508  -0.36459
 Alpha  occ. eigenvalues --   -0.36139  -0.36012  -0.35797  -0.35575  -0.35518
 Alpha  occ. eigenvalues --   -0.35346  -0.35025  -0.34861  -0.34781  -0.34550
 Alpha  occ. eigenvalues --   -0.34482  -0.34314  -0.34191  -0.34109  -0.34040
 Alpha  occ. eigenvalues --   -0.33790  -0.33760  -0.33660  -0.33418  -0.32938
 Alpha  occ. eigenvalues --   -0.32796  -0.32704  -0.32597  -0.32503  -0.32360
 Alpha  occ. eigenvalues --   -0.31976  -0.31732  -0.31591  -0.31490  -0.31375
 Alpha  occ. eigenvalues --   -0.31334  -0.31007  -0.30762  -0.30657  -0.30487
 Alpha  occ. eigenvalues --   -0.30243  -0.30075  -0.29868  -0.29835  -0.29504
 Alpha  occ. eigenvalues --   -0.29456  -0.29349  -0.29192  -0.29144  -0.29019
 Alpha  occ. eigenvalues --   -0.28950  -0.28812  -0.28761  -0.28101  -0.27771
 Alpha  occ. eigenvalues --   -0.27483  -0.26761  -0.26739  -0.26539  -0.26270
 Alpha  occ. eigenvalues --   -0.26176  -0.26136  -0.25566  -0.25440  -0.25067
 Alpha  occ. eigenvalues --   -0.24893  -0.24114  -0.23861  -0.23739  -0.23712
 Alpha  occ. eigenvalues --   -0.23574  -0.22646  -0.22221  -0.21042  -0.20486
 Alpha  occ. eigenvalues --   -0.20320  -0.19835  -0.18669  -0.18153  -0.17108
 Alpha  occ. eigenvalues --   -0.16174
 Alpha virt. eigenvalues --   -0.11713  -0.06753  -0.06222  -0.04836  -0.03353
 Alpha virt. eigenvalues --   -0.01987  -0.01658  -0.01515  -0.01103   0.00346
 Alpha virt. eigenvalues --    0.00918   0.01615   0.02177   0.02565   0.02714

 Mulliken charges:
               1
     1  Mg   0.698647
     2  C   -0.000731
     3  C   -0.015418
     4  C   -0.021400
     5  C   -0.079120
     6  N   -0.210054
     7  C   -0.048412
     8  C    0.005006
     9  C   -0.012642
    10  C    0.022129
    11  C    0.131452
    12  C    0.122607
    13  C    0.077185
    14  C    0.110068
    15  O   -0.185157
    16  O   -0.280014
    17  N   -0.307372
    18  C    0.102705
    19  C   -0.128642
    20  C    0.038104
    21  C    0.100978
    22  C    0.160492
    23  C   -0.090632
    24  O   -0.146366
    25  C    0.115960
    26  N   -0.188886
    27  C    0.012416
    28  C   -0.006395
    29  C    0.086196
    30  C    0.033756
    31  C    0.096738
    32  C    0.047703
    33  C    0.088277
    34  N   -0.267444
    35  C    0.070834
    36  C   -0.180415
    37  C    0.152413
    38  C    0.072196
    39  C    0.177197
    40  C   -0.080126
    41  O   -0.180603
    42  C    0.100026
    43  C    0.087506
    44  O   -0.198862
    45  O   -0.242125
    46  C    0.227471
    47  C    0.307959
    48  C   -0.098332
    49  C   -0.158912
    50  C    0.151430
    51  C    0.121289
    52  C    0.082253
    53  C    0.072105
    54  C   -0.090154
    55  C    0.123829
    56  C    0.074707
    57  C    0.118273
    58  C    0.130865
    59  C   -0.068906
    60  C    0.133286
    61  C    0.074590
    62  C    0.024167
    63  C    0.113173
    64  C   -0.095532
    65  C    0.097503
    66  C    0.092718
    67  H   -0.071454
    68  H   -0.047055
    69  H   -0.070738
    70  H   -0.038365
    71  H   -0.025515
    72  H   -0.009017
    73  H   -0.010395
    74  H    0.002255
    75  H   -0.026922
    76  H    0.026712
    77  H   -0.014315
    78  H    0.004268
    79  H   -0.013992
    80  H    0.011060
    81  H    0.012595
    82  H    0.002025
    83  H    0.004339
    84  H   -0.004384
    85  H   -0.016909
    86  H   -0.039233
    87  H   -0.008587
    88  H   -0.008433
    89  H    0.005002
    90  H   -0.016012
    91  H   -0.026878
    92  H   -0.006874
    93  H   -0.004586
    94  H   -0.004663
    95  H    0.025573
    96  H   -0.008404
    97  H    0.015957
    98  H   -0.003945
    99  H   -0.008164
   100  H    0.045187
   101  H   -0.000148
   102  H    0.015581
   103  H   -0.003648
   104  H   -0.029311
   105  H    0.009613
   106  H   -0.018703
   107  H   -0.008758
   108  H    0.002677
   109  H   -0.049263
   110  H   -0.038607
   111  H   -0.017770
   112  H   -0.017681
   113  H   -0.037608
   114  H   -0.052919
   115  H   -0.014409
   116  H   -0.024921
   117  H   -0.007079
   118  H   -0.052648
   119  H   -0.039430
   120  H   -0.038424
   121  H   -0.040357
   122  H   -0.045739
   123  H   -0.034737
   124  H   -0.037552
   125  H   -0.015794
   126  H   -0.016442
   127  H   -0.017902
   128  H   -0.049156
   129  H   -0.040096
   130  H   -0.012873
   131  H   -0.030829
   132  H   -0.016273
   133  H   -0.035414
   134  H   -0.023759
   135  H   -0.016260
   136  H   -0.017420
   137  H   -0.015354
   138  H   -0.013737
   139  H   -0.016620
   140  H   -0.023916
 Sum of Mulliken charges =  -0.00000

 Dipole moment (field-independent basis, Debye):
    X=             -3.0859    Y=              3.4847    Z=             -2.6272  Tot=              5.3449
 Quadrupole moment (field-independent basis, Debye-Ang):
   XX=           -376.5341   YY=           -426.1183   ZZ=           -406.0723
   XY=             -0.7826   XZ=              0.2003   YZ=              3.3123

 Normal termination of Gaussian 16 at Sat Apr 30 02:31:33 2022.
