 Gaussian 16, Revision A.03,
 Gaussian 16:  ES64L-G16RevA.03 25-Dec-2016

 -----------------------------------
 #p cam-b3lyp/Def2SVP td=(nstates=5)
 -----------------------------------

 ------------------------------------------------------
 step_551_chromophore_1 TDDFT with cam-b3lyp functional
 ------------------------------------------------------
 Symbolic Z-matrix:
 Charge =  0 Multiplicity = 1

                         Standard orientation:
 ---------------------------------------------------------------------
 Center     Atomic      Atomic             Coordinates (Angstroms)
 Number     Number       Type             X           Y           Z
 ---------------------------------------------------------------------
      1         12           0        5.941178    0.488703    0.139828
      2          6           0        3.754125   -2.246805   -0.518360
      3          6           0        3.246578    2.572289   -0.662981
      4          6           0        8.049002    2.935481   -0.253040
      5          6           0        8.491253   -1.723268    0.661410
      6          7           0        3.701131    0.183826   -0.482637
      7          6           0        3.083548   -1.032502   -0.745745
      8          6           0        1.612419   -0.760945   -1.248429
      9          6           0        1.549057    0.812353   -1.551661
     10          6           0        2.852975    1.243620   -0.775644
     11          6           0        1.550651    1.141537   -3.086664
     12          6           0        0.582253   -1.131096   -0.170858
     13          6           0       -0.832282   -0.910049   -0.631449
     14          6           0       -1.835823   -1.956428   -0.046423
     15          8           0       -1.729552   -2.645456    0.967996
     16          8           0       -2.974288   -1.912840   -0.825501
     17          7           0        5.645188    2.512348   -0.150036
     18          6           0        4.438220    3.213328   -0.273526
     19          6           0        4.754876    4.682686   -0.213840
     20          6           0        6.177134    4.769775   -0.014039
     21          6           0        6.680677    3.380628   -0.121853
     22          6           0        3.665003    5.670403   -0.444404
     23          6           0        7.026966    5.990039    0.212878
     24          8           0        8.230679    5.989929    0.368993
     25          6           0        6.268370    7.335656    0.460006
     26          7           0        8.039828    0.554327   -0.059633
     27          6           0        8.662488    1.692553   -0.251775
     28          6           0       10.256881    1.504026   -0.180700
     29          6           0       10.326867    0.068163    0.296341
     30          6           0        8.873454   -0.430202    0.292078
     31          6           0       10.979355    1.761930   -1.598736
     32          6           0       11.062514   -0.070088    1.639925
     33          6           0       10.307176    0.131454    2.932868
     34          7           0        6.123893   -1.566518    0.321925
     35          6           0        7.221748   -2.328023    0.591265
     36          6           0        6.896219   -3.716676    0.496622
     37          6           0        5.551657   -3.701780    0.102390
     38          6           0        5.097630   -2.413048    0.026454
     39          6           0        7.874412   -4.838851    0.521922
     40          6           0        4.506163   -4.561003   -0.273113
     41          8           0        4.480539   -5.821224   -0.328793
     42          6           0        3.306501   -3.697677   -0.824747
     43          6           0        2.146179   -4.152723   -0.028532
     44          8           0        1.974486   -3.907521    1.149350
     45          8           0        1.449702   -5.066864   -0.702231
     46          6           0        0.370555   -5.755142    0.068833
     47          6           0       -4.066304   -2.790087   -0.437636
     48          6           0       -5.189466   -1.960705    0.078228
     49          6           0       -6.474273   -2.329372    0.085126
     50          6           0       -7.037700   -3.650569   -0.447083
     51          6           0       -7.484156   -1.306867    0.600269
     52          6           0       -7.330398    0.110396    0.007187
     53          6           0       -8.656164    0.718071   -0.193311
     54          6           0       -8.877930    1.966263    0.722834
     55          6           0       -7.804175    3.069747    0.667760
     56          6           0       -9.325443    1.554366    2.144251
     57          6           0      -10.656722    2.092032    2.763836
     58          6           0      -11.687930    0.972525    3.124378
     59          6           0      -12.970128    1.055629    2.316996
     60          6           0      -14.087318    0.272954    2.939740
     61          6           0      -12.617345    0.547420    0.879460
     62          6           0      -12.460108    1.542533   -0.286506
     63          6           0      -13.751350    1.799081   -1.113999
     64          6           0      -13.729124    0.797036   -2.415851
     65          6           0      -13.326403    1.617842   -3.686360
     66          6           0      -15.103738    0.042085   -2.567691
     67          1           0        2.452718    3.303548   -0.826918
     68          1           0        8.784357    3.734066   -0.369592
     69          1           0        9.199429   -2.451034    1.063272
     70          1           0        1.461273   -1.375131   -2.136476
     71          1           0        0.643205    1.236983   -1.119489
     72          1           0        2.355345    1.867519   -3.205840
     73          1           0        0.632678    1.651879   -3.377666
     74          1           0        1.693635    0.284073   -3.744388
     75          1           0        0.696719   -0.444836    0.667592
     76          1           0        0.568170   -2.183511    0.111061
     77          1           0       -0.836695   -0.882699   -1.721797
     78          1           0       -1.127754    0.100865   -0.355013
     79          1           0        2.671475    5.287145   -0.679118
     80          1           0        3.848833    6.297853   -1.317098
     81          1           0        3.643737    6.222598    0.494330
     82          1           0        5.855713    7.629754   -0.504497
     83          1           0        6.914134    8.080957    0.926015
     84          1           0        5.419027    7.074219    1.091612
     85          1           0       10.779704    2.125494    0.546856
     86          1           0       10.893075   -0.478795   -0.457073
     87          1           0       10.284750    1.426697   -2.368493
     88          1           0       11.884007    1.160033   -1.681384
     89          1           0       11.253842    2.793028   -1.821695
     90          1           0       11.998318    0.487322    1.609490
     91          1           0       11.275343   -1.135573    1.720847
     92          1           0       10.113660   -0.853991    3.357014
     93          1           0        9.341203    0.587038    2.717837
     94          1           0       10.856662    0.794681    3.600538
     95          1           0        7.274504   -5.678501    0.872561
     96          1           0        8.780363   -4.676586    1.107061
     97          1           0        8.152721   -4.854005   -0.531237
     98          1           0        3.080221   -3.769395   -1.888853
     99          1           0       -0.531579   -5.214061   -0.218530
    100          1           0        0.391926   -5.832343    1.155815
    101          1           0        0.085559   -6.695028   -0.404903
    102          1           0       -3.725816   -3.524810    0.290916
    103          1           0       -4.319112   -3.244916   -1.395799
    104          1           0       -4.863483   -0.955240    0.343389
    105          1           0       -7.493778   -4.186975    0.385405
    106          1           0       -6.277565   -4.173935   -1.025703
    107          1           0       -7.845892   -3.521496   -1.168191
    108          1           0       -7.457298   -1.178246    1.682679
    109          1           0       -8.424586   -1.734693    0.254505
    110          1           0       -6.933020    0.046732   -1.006365
    111          1           0       -6.686677    0.693874    0.664610
    112          1           0       -9.429114    0.007519    0.097318
    113          1           0       -8.733902    0.960279   -1.253432
    114          1           0       -9.772197    2.389022    0.265494
    115          1           0       -8.411598    3.973890    0.634274
    116          1           0       -7.249403    2.992140   -0.267323
    117          1           0       -7.051149    3.126389    1.453764
    118          1           0       -8.498788    1.908539    2.760444
    119          1           0       -9.227269    0.470602    2.214165
    120          1           0      -11.002525    2.876014    2.089425
    121          1           0      -10.366835    2.710803    3.612719
    122          1           0      -11.956275    0.920151    4.179705
    123          1           0      -11.179006    0.016082    3.003651
    124          1           0      -13.303824    2.082887    2.171919
    125          1           0      -13.841877   -0.269948    3.853010
    126          1           0      -14.589937   -0.393256    2.238640
    127          1           0      -14.724620    1.119214    3.194656
    128          1           0      -13.371772   -0.130583    0.479545
    129          1           0      -11.686675   -0.019627    0.916806
    130          1           0      -11.617262    1.242975   -0.909825
    131          1           0      -12.204866    2.481014    0.205498
    132          1           0      -13.912947    2.842292   -1.385304
    133          1           0      -14.462031    1.390279   -0.395157
    134          1           0      -13.005086   -0.003803   -2.262436
    135          1           0      -12.417182    1.158293   -4.074019
    136          1           0      -13.081630    2.666884   -3.519077
    137          1           0      -14.061850    1.646252   -4.490727
    138          1           0      -15.092523   -0.978008   -2.183073
    139          1           0      -15.506592    0.102186   -3.578783
    140          1           0      -15.832983    0.530475   -1.921525
 ---------------------------------------------------------------------

 SCF Done:  E(RCAM-B3LYP) =  -3007.15031039     A.U. after   18 cycles

 Excitation energies and oscillator strengths:

 Excited State   1:      Singlet-A      1.7532 eV  707.20 nm  f=0.3725  <S**2>=0.000
     245 -> 248       -0.18998
     246 -> 247        0.68222
     245 <- 248       -0.10854
 This state for optimization and/or second-order correction.
 Total Energy, E(TD-HF/TD-DFT) =  -3007.08588289
 Copying the excited state density for this state as the 1-particle RhoCI density.

 Excited State   2:      Singlet-A      2.1660 eV  572.40 nm  f=0.1535  <S**2>=0.000
     245 -> 247        0.65636
     246 -> 248        0.25148

 Excited State   3:      Singlet-A      3.3578 eV  369.24 nm  f=0.0027  <S**2>=0.000
     241 -> 247       -0.16477
     242 -> 247        0.22193
     242 -> 249        0.12208
     242 -> 250        0.10959
     244 -> 247        0.61575

 Excited State   4:      Singlet-A      3.3930 eV  365.41 nm  f=0.0001  <S**2>=0.000
     242 -> 247        0.52329
     242 -> 249        0.26781
     242 -> 250        0.23982
     244 -> 247       -0.26012

 Excited State   5:      Singlet-A      3.5529 eV  348.96 nm  f=0.0276  <S**2>=0.000
     240 -> 247       -0.30238
     240 -> 249        0.14563
     241 -> 247        0.51686
     244 -> 247        0.12371
     246 -> 248       -0.26842

 The electronic state is 1-A.
 Alpha  occ. eigenvalues --  -46.89002 -19.24700 -19.24661 -19.20575 -19.19205
 Alpha  occ. eigenvalues --  -19.17857 -19.17801 -14.42458 -14.41739 -14.40115
 Alpha  occ. eigenvalues --  -14.38808 -10.40023 -10.37729 -10.35421 -10.34235
 Alpha  occ. eigenvalues --  -10.31561 -10.31306 -10.31247 -10.31227 -10.30914
 Alpha  occ. eigenvalues --  -10.30907 -10.30815 -10.30745 -10.30349 -10.29301
 Alpha  occ. eigenvalues --  -10.28708 -10.28645 -10.28588 -10.28579 -10.28256
 Alpha  occ. eigenvalues --  -10.27996 -10.27965 -10.27853 -10.27467 -10.27435
 Alpha  occ. eigenvalues --  -10.27338 -10.26824 -10.26671 -10.26660 -10.26625
 Alpha  occ. eigenvalues --  -10.26559 -10.26493 -10.26233 -10.26123 -10.26119
 Alpha  occ. eigenvalues --  -10.25828 -10.25772 -10.25663 -10.25422 -10.25329
 Alpha  occ. eigenvalues --  -10.25285 -10.25284 -10.25151 -10.25076 -10.25018
 Alpha  occ. eigenvalues --  -10.24894 -10.24714 -10.24638 -10.24507 -10.24456
 Alpha  occ. eigenvalues --  -10.24377 -10.24340 -10.24312 -10.24220 -10.24153
 Alpha  occ. eigenvalues --  -10.24151  -3.17506  -1.92405  -1.91980  -1.91795
 Alpha  occ. eigenvalues --   -1.16278  -1.16141  -1.10646  -1.07844  -1.07046
 Alpha  occ. eigenvalues --   -1.06453  -1.05421  -1.03581  -1.02896  -1.01631
 Alpha  occ. eigenvalues --   -0.92113  -0.91004  -0.90157  -0.89818  -0.89474
 Alpha  occ. eigenvalues --   -0.88519  -0.88503  -0.87520  -0.87064  -0.86895
 Alpha  occ. eigenvalues --   -0.86551  -0.85263  -0.84310  -0.83440  -0.83012
 Alpha  occ. eigenvalues --   -0.82431  -0.82126  -0.81398  -0.80861  -0.80396
 Alpha  occ. eigenvalues --   -0.80138  -0.78757  -0.77862  -0.77034  -0.76246
 Alpha  occ. eigenvalues --   -0.76027  -0.75421  -0.75308  -0.75076  -0.73975
 Alpha  occ. eigenvalues --   -0.73141  -0.72585  -0.71558  -0.69688  -0.69455
 Alpha  occ. eigenvalues --   -0.69091  -0.68263  -0.67171  -0.66877  -0.65559
 Alpha  occ. eigenvalues --   -0.65368  -0.64928  -0.64817  -0.64190  -0.64166
 Alpha  occ. eigenvalues --   -0.62848  -0.62618  -0.61403  -0.61243  -0.60534
 Alpha  occ. eigenvalues --   -0.60358  -0.59884  -0.59548  -0.58546  -0.57832
 Alpha  occ. eigenvalues --   -0.57200  -0.57148  -0.56487  -0.55965  -0.55839
 Alpha  occ. eigenvalues --   -0.55420  -0.54962  -0.54906  -0.54586  -0.54218
 Alpha  occ. eigenvalues --   -0.53518  -0.53236  -0.53050  -0.52917  -0.52747
 Alpha  occ. eigenvalues --   -0.52561  -0.52555  -0.52261  -0.51889  -0.51541
 Alpha  occ. eigenvalues --   -0.51341  -0.51299  -0.51100  -0.50647  -0.50401
 Alpha  occ. eigenvalues --   -0.50390  -0.50078  -0.50011  -0.49814  -0.49703
 Alpha  occ. eigenvalues --   -0.49094  -0.48940  -0.48833  -0.48712  -0.48559
 Alpha  occ. eigenvalues --   -0.48542  -0.48480  -0.48117  -0.47644  -0.47522
 Alpha  occ. eigenvalues --   -0.47455  -0.47230  -0.46907  -0.46780  -0.46697
 Alpha  occ. eigenvalues --   -0.46442  -0.46386  -0.46064  -0.45866  -0.45782
 Alpha  occ. eigenvalues --   -0.45668  -0.45537  -0.45422  -0.45202  -0.44579
 Alpha  occ. eigenvalues --   -0.44485  -0.44376  -0.44333  -0.44158  -0.43964
 Alpha  occ. eigenvalues --   -0.43743  -0.43475  -0.43335  -0.42961  -0.42916
 Alpha  occ. eigenvalues --   -0.42837  -0.42600  -0.42314  -0.42187  -0.41986
 Alpha  occ. eigenvalues --   -0.41773  -0.41691  -0.41268  -0.41136  -0.40974
 Alpha  occ. eigenvalues --   -0.40679  -0.40527  -0.40388  -0.40231  -0.40157
 Alpha  occ. eigenvalues --   -0.40028  -0.40012  -0.39798  -0.39028  -0.38907
 Alpha  occ. eigenvalues --   -0.38408  -0.37905  -0.37533  -0.37371  -0.37261
 Alpha  occ. eigenvalues --   -0.36936  -0.36684  -0.36557  -0.36389  -0.36009
 Alpha  occ. eigenvalues --   -0.35468  -0.35268  -0.34878  -0.34612  -0.34325
 Alpha  occ. eigenvalues --   -0.34088  -0.33146  -0.32936  -0.31550  -0.30905
 Alpha  occ. eigenvalues --   -0.30515  -0.30144  -0.29494  -0.29365  -0.23769
 Alpha  occ. eigenvalues --   -0.21601
 Alpha virt. eigenvalues --   -0.08879  -0.01519   0.00160   0.02135   0.03034
 Alpha virt. eigenvalues --    0.04447   0.05482   0.05944   0.06205   0.06625
 Alpha virt. eigenvalues --    0.08142   0.08307   0.08789   0.08884   0.09295

 Mulliken charges:
               1
     1  Mg   0.830709
     2  C   -0.024494
     3  C   -0.038027
     4  C   -0.043729
     5  C   -0.087029
     6  N   -0.271416
     7  C   -0.009485
     8  C   -0.042736
     9  C   -0.064801
    10  C    0.043100
    11  C    0.074626
    12  C    0.067361
    13  C    0.014889
    14  C    0.189936
    15  O   -0.226936
    16  O   -0.344431
    17  N   -0.394477
    18  C    0.116925
    19  C   -0.132242
    20  C   -0.032720
    21  C    0.130243
    22  C    0.100383
    23  C   -0.008789
    24  O   -0.185643
    25  C    0.040778
    26  N   -0.265326
    27  C    0.032132
    28  C   -0.058082
    29  C    0.031229
    30  C    0.047625
    31  C    0.044650
    32  C   -0.006472
    33  C    0.026790
    34  N   -0.358188
    35  C    0.080865
    36  C   -0.177311
    37  C    0.062647
    38  C    0.110271
    39  C    0.125735
    40  C    0.016469
    41  O   -0.220484
    42  C    0.026292
    43  C    0.172085
    44  O   -0.234972
    45  O   -0.305111
    46  C    0.188039
    47  C    0.268297
    48  C   -0.115582
    49  C   -0.181044
    50  C    0.089422
    51  C    0.068384
    52  C    0.019448
    53  C    0.024828
    54  C   -0.143773
    55  C    0.063083
    56  C    0.024876
    57  C    0.059548
    58  C    0.073945
    59  C   -0.125361
    60  C    0.072039
    61  C    0.028121
    62  C   -0.023087
    63  C    0.059996
    64  C   -0.154612
    65  C    0.039175
    66  C    0.035715
    67  H   -0.038050
    68  H   -0.008473
    69  H   -0.036659
    70  H   -0.003936
    71  H    0.008157
    72  H    0.016838
    73  H    0.014344
    74  H    0.027366
    75  H    0.005525
    76  H    0.054072
    77  H    0.019659
    78  H    0.034530
    79  H    0.016555
    80  H    0.038485
    81  H    0.038037
    82  H    0.028657
    83  H    0.038790
    84  H    0.020222
    85  H    0.017428
    86  H   -0.001355
    87  H    0.015591
    88  H    0.015154
    89  H    0.028675
    90  H    0.011448
    91  H    0.001248
    92  H    0.016520
    93  H    0.016417
    94  H    0.019443
    95  H    0.050924
    96  H    0.014988
    97  H    0.041295
    98  H    0.039188
    99  H    0.012188
   100  H    0.071393
   101  H    0.024931
   102  H    0.048592
   103  H    0.024029
   104  H    0.004103
   105  H    0.033664
   106  H    0.005245
   107  H    0.016241
   108  H    0.030038
   109  H   -0.018586
   110  H   -0.005291
   111  H    0.008640
   112  H    0.003759
   113  H   -0.007446
   114  H   -0.020341
   115  H    0.010068
   116  H    0.000351
   117  H    0.015667
   118  H   -0.022219
   119  H   -0.014613
   120  H   -0.011329
   121  H   -0.007900
   122  H   -0.014195
   123  H   -0.005239
   124  H   -0.005568
   125  H    0.009089
   126  H    0.008497
   127  H    0.006396
   128  H   -0.022796
   129  H   -0.014978
   130  H    0.010118
   131  H   -0.006212
   132  H    0.012012
   133  H   -0.008692
   134  H    0.006712
   135  H    0.006940
   136  H    0.005908
   137  H    0.008387
   138  H    0.009566
   139  H    0.007509
   140  H   -0.000019
 Sum of Mulliken charges =  -0.00000

 Dipole moment (field-independent basis, Debye):
    X=             -3.3350    Y=              4.5650    Z=             -2.8881  Tot=              6.3484
 Quadrupole moment (field-independent basis, Debye-Ang):
   XX=           -377.5793   YY=           -421.5210   ZZ=           -406.3014
   XY=              4.8832   XZ=              0.0663   YZ=              3.4938

 Normal termination of Gaussian 16 at Sat Apr 30 01:32:19 2022.
