 Gaussian 16, Revision A.03,
 Gaussian 16:  ES64L-G16RevA.03 25-Dec-2016

 ---------------------------------
 #p PBE1PBE/Def2SVP td=(nstates=5)
 ---------------------------------

 ----------------------------------------------------
 step_551_chromophore_1 TDDFT with PBE1PBE functional
 ----------------------------------------------------
 Symbolic Z-matrix:
 Charge =  0 Multiplicity = 1

                         Standard orientation:
 ---------------------------------------------------------------------
 Center     Atomic      Atomic             Coordinates (Angstroms)
 Number     Number       Type             X           Y           Z
 ---------------------------------------------------------------------
      1         12           0        5.941178    0.488703    0.139828
      2          6           0        3.754125   -2.246805   -0.518360
      3          6           0        3.246578    2.572289   -0.662981
      4          6           0        8.049002    2.935481   -0.253040
      5          6           0        8.491253   -1.723268    0.661410
      6          7           0        3.701131    0.183826   -0.482637
      7          6           0        3.083548   -1.032502   -0.745745
      8          6           0        1.612419   -0.760945   -1.248429
      9          6           0        1.549057    0.812353   -1.551661
     10          6           0        2.852975    1.243620   -0.775644
     11          6           0        1.550651    1.141537   -3.086664
     12          6           0        0.582253   -1.131096   -0.170858
     13          6           0       -0.832282   -0.910049   -0.631449
     14          6           0       -1.835823   -1.956428   -0.046423
     15          8           0       -1.729552   -2.645456    0.967996
     16          8           0       -2.974288   -1.912840   -0.825501
     17          7           0        5.645188    2.512348   -0.150036
     18          6           0        4.438220    3.213328   -0.273526
     19          6           0        4.754876    4.682686   -0.213840
     20          6           0        6.177134    4.769775   -0.014039
     21          6           0        6.680677    3.380628   -0.121853
     22          6           0        3.665003    5.670403   -0.444404
     23          6           0        7.026966    5.990039    0.212878
     24          8           0        8.230679    5.989929    0.368993
     25          6           0        6.268370    7.335656    0.460006
     26          7           0        8.039828    0.554327   -0.059633
     27          6           0        8.662488    1.692553   -0.251775
     28          6           0       10.256881    1.504026   -0.180700
     29          6           0       10.326867    0.068163    0.296341
     30          6           0        8.873454   -0.430202    0.292078
     31          6           0       10.979355    1.761930   -1.598736
     32          6           0       11.062514   -0.070088    1.639925
     33          6           0       10.307176    0.131454    2.932868
     34          7           0        6.123893   -1.566518    0.321925
     35          6           0        7.221748   -2.328023    0.591265
     36          6           0        6.896219   -3.716676    0.496622
     37          6           0        5.551657   -3.701780    0.102390
     38          6           0        5.097630   -2.413048    0.026454
     39          6           0        7.874412   -4.838851    0.521922
     40          6           0        4.506163   -4.561003   -0.273113
     41          8           0        4.480539   -5.821224   -0.328793
     42          6           0        3.306501   -3.697677   -0.824747
     43          6           0        2.146179   -4.152723   -0.028532
     44          8           0        1.974486   -3.907521    1.149350
     45          8           0        1.449702   -5.066864   -0.702231
     46          6           0        0.370555   -5.755142    0.068833
     47          6           0       -4.066304   -2.790087   -0.437636
     48          6           0       -5.189466   -1.960705    0.078228
     49          6           0       -6.474273   -2.329372    0.085126
     50          6           0       -7.037700   -3.650569   -0.447083
     51          6           0       -7.484156   -1.306867    0.600269
     52          6           0       -7.330398    0.110396    0.007187
     53          6           0       -8.656164    0.718071   -0.193311
     54          6           0       -8.877930    1.966263    0.722834
     55          6           0       -7.804175    3.069747    0.667760
     56          6           0       -9.325443    1.554366    2.144251
     57          6           0      -10.656722    2.092032    2.763836
     58          6           0      -11.687930    0.972525    3.124378
     59          6           0      -12.970128    1.055629    2.316996
     60          6           0      -14.087318    0.272954    2.939740
     61          6           0      -12.617345    0.547420    0.879460
     62          6           0      -12.460108    1.542533   -0.286506
     63          6           0      -13.751350    1.799081   -1.113999
     64          6           0      -13.729124    0.797036   -2.415851
     65          6           0      -13.326403    1.617842   -3.686360
     66          6           0      -15.103738    0.042085   -2.567691
     67          1           0        2.452718    3.303548   -0.826918
     68          1           0        8.784357    3.734066   -0.369592
     69          1           0        9.199429   -2.451034    1.063272
     70          1           0        1.461273   -1.375131   -2.136476
     71          1           0        0.643205    1.236983   -1.119489
     72          1           0        2.355345    1.867519   -3.205840
     73          1           0        0.632678    1.651879   -3.377666
     74          1           0        1.693635    0.284073   -3.744388
     75          1           0        0.696719   -0.444836    0.667592
     76          1           0        0.568170   -2.183511    0.111061
     77          1           0       -0.836695   -0.882699   -1.721797
     78          1           0       -1.127754    0.100865   -0.355013
     79          1           0        2.671475    5.287145   -0.679118
     80          1           0        3.848833    6.297853   -1.317098
     81          1           0        3.643737    6.222598    0.494330
     82          1           0        5.855713    7.629754   -0.504497
     83          1           0        6.914134    8.080957    0.926015
     84          1           0        5.419027    7.074219    1.091612
     85          1           0       10.779704    2.125494    0.546856
     86          1           0       10.893075   -0.478795   -0.457073
     87          1           0       10.284750    1.426697   -2.368493
     88          1           0       11.884007    1.160033   -1.681384
     89          1           0       11.253842    2.793028   -1.821695
     90          1           0       11.998318    0.487322    1.609490
     91          1           0       11.275343   -1.135573    1.720847
     92          1           0       10.113660   -0.853991    3.357014
     93          1           0        9.341203    0.587038    2.717837
     94          1           0       10.856662    0.794681    3.600538
     95          1           0        7.274504   -5.678501    0.872561
     96          1           0        8.780363   -4.676586    1.107061
     97          1           0        8.152721   -4.854005   -0.531237
     98          1           0        3.080221   -3.769395   -1.888853
     99          1           0       -0.531579   -5.214061   -0.218530
    100          1           0        0.391926   -5.832343    1.155815
    101          1           0        0.085559   -6.695028   -0.404903
    102          1           0       -3.725816   -3.524810    0.290916
    103          1           0       -4.319112   -3.244916   -1.395799
    104          1           0       -4.863483   -0.955240    0.343389
    105          1           0       -7.493778   -4.186975    0.385405
    106          1           0       -6.277565   -4.173935   -1.025703
    107          1           0       -7.845892   -3.521496   -1.168191
    108          1           0       -7.457298   -1.178246    1.682679
    109          1           0       -8.424586   -1.734693    0.254505
    110          1           0       -6.933020    0.046732   -1.006365
    111          1           0       -6.686677    0.693874    0.664610
    112          1           0       -9.429114    0.007519    0.097318
    113          1           0       -8.733902    0.960279   -1.253432
    114          1           0       -9.772197    2.389022    0.265494
    115          1           0       -8.411598    3.973890    0.634274
    116          1           0       -7.249403    2.992140   -0.267323
    117          1           0       -7.051149    3.126389    1.453764
    118          1           0       -8.498788    1.908539    2.760444
    119          1           0       -9.227269    0.470602    2.214165
    120          1           0      -11.002525    2.876014    2.089425
    121          1           0      -10.366835    2.710803    3.612719
    122          1           0      -11.956275    0.920151    4.179705
    123          1           0      -11.179006    0.016082    3.003651
    124          1           0      -13.303824    2.082887    2.171919
    125          1           0      -13.841877   -0.269948    3.853010
    126          1           0      -14.589937   -0.393256    2.238640
    127          1           0      -14.724620    1.119214    3.194656
    128          1           0      -13.371772   -0.130583    0.479545
    129          1           0      -11.686675   -0.019627    0.916806
    130          1           0      -11.617262    1.242975   -0.909825
    131          1           0      -12.204866    2.481014    0.205498
    132          1           0      -13.912947    2.842292   -1.385304
    133          1           0      -14.462031    1.390279   -0.395157
    134          1           0      -13.005086   -0.003803   -2.262436
    135          1           0      -12.417182    1.158293   -4.074019
    136          1           0      -13.081630    2.666884   -3.519077
    137          1           0      -14.061850    1.646252   -4.490727
    138          1           0      -15.092523   -0.978008   -2.183073
    139          1           0      -15.506592    0.102186   -3.578783
    140          1           0      -15.832983    0.530475   -1.921525
 ---------------------------------------------------------------------

 SCF Done:  E(RPBE1PBE) =  -3005.33912609     A.U. after   15 cycles

 Excitation energies and oscillator strengths:

 Excited State   1:      Singlet-A      1.9042 eV  651.12 nm  f=0.3590  <S**2>=0.000
     245 -> 248       -0.18326
     246 -> 247        0.68915
     246 <- 247       -0.10101
 This state for optimization and/or second-order correction.
 Total Energy, E(TD-HF/TD-DFT) =  -3005.26914937
 Copying the excited state density for this state as the 1-particle RhoCI density.

 Excited State   2:      Singlet-A      2.1768 eV  569.57 nm  f=0.1458  <S**2>=0.000
     245 -> 247        0.66598
     246 -> 248        0.22735

 Excited State   3:      Singlet-A      2.8505 eV  434.96 nm  f=0.0004  <S**2>=0.000
     243 -> 247        0.67033
     243 -> 249       -0.16181
     243 -> 250       -0.11472

 Excited State   4:      Singlet-A      3.0194 eV  410.63 nm  f=0.0040  <S**2>=0.000
     241 -> 247       -0.41780
     242 -> 247        0.54093

 Excited State   5:      Singlet-A      3.0258 eV  409.76 nm  f=0.0008  <S**2>=0.000
     241 -> 247        0.53187
     241 -> 249        0.12233
     242 -> 247        0.41984

 The electronic state is 1-A.
 Alpha  occ. eigenvalues --  -46.92417 -19.25437 -19.25332 -19.20879 -19.19280
 Alpha  occ. eigenvalues --  -19.18268 -19.18056 -14.41895 -14.41303 -14.39704
 Alpha  occ. eigenvalues --  -14.38577 -10.37079 -10.34748 -10.32431 -10.31515
 Alpha  occ. eigenvalues --  -10.29179 -10.29095 -10.28826 -10.28639 -10.28607
 Alpha  occ. eigenvalues --  -10.28531 -10.28467 -10.28080 -10.27805 -10.27073
 Alpha  occ. eigenvalues --  -10.26619 -10.26511 -10.26417 -10.26402 -10.25815
 Alpha  occ. eigenvalues --  -10.25676 -10.25659 -10.25254 -10.25254 -10.24961
 Alpha  occ. eigenvalues --  -10.24934 -10.24682 -10.24383 -10.24318 -10.24289
 Alpha  occ. eigenvalues --  -10.24084 -10.23889 -10.23820 -10.23615 -10.23443
 Alpha  occ. eigenvalues --  -10.23422 -10.23405 -10.23258 -10.23094 -10.22900
 Alpha  occ. eigenvalues --  -10.22883 -10.22869 -10.22840 -10.22611 -10.22584
 Alpha  occ. eigenvalues --  -10.22326 -10.22115 -10.22094 -10.22080 -10.22033
 Alpha  occ. eigenvalues --  -10.22009 -10.21893 -10.21883 -10.21775 -10.21730
 Alpha  occ. eigenvalues --  -10.21542  -3.14503  -1.87341  -1.86896  -1.86713
 Alpha  occ. eigenvalues --   -1.11080  -1.10970  -1.05264  -1.02724  -1.01876
 Alpha  occ. eigenvalues --   -1.01293  -1.00111  -0.98433  -0.97422  -0.96175
 Alpha  occ. eigenvalues --   -0.86559  -0.85122  -0.84268  -0.83989  -0.83781
 Alpha  occ. eigenvalues --   -0.82704  -0.82650  -0.81771  -0.81432  -0.80984
 Alpha  occ. eigenvalues --   -0.80979  -0.79482  -0.78500  -0.77767  -0.77266
 Alpha  occ. eigenvalues --   -0.76631  -0.76320  -0.75570  -0.75172  -0.74586
 Alpha  occ. eigenvalues --   -0.74395  -0.72906  -0.72138  -0.71378  -0.70557
 Alpha  occ. eigenvalues --   -0.70238  -0.69670  -0.69504  -0.69230  -0.68138
 Alpha  occ. eigenvalues --   -0.67548  -0.67021  -0.66011  -0.63989  -0.63804
 Alpha  occ. eigenvalues --   -0.63399  -0.62725  -0.61525  -0.61052  -0.59862
 Alpha  occ. eigenvalues --   -0.59678  -0.59479  -0.59365  -0.58701  -0.58318
 Alpha  occ. eigenvalues --   -0.57127  -0.57000  -0.56034  -0.55514  -0.54990
 Alpha  occ. eigenvalues --   -0.54716  -0.54381  -0.54095  -0.53220  -0.52387
 Alpha  occ. eigenvalues --   -0.51739  -0.51641  -0.51042  -0.50482  -0.50290
 Alpha  occ. eigenvalues --   -0.49960  -0.49464  -0.49359  -0.49034  -0.48731
 Alpha  occ. eigenvalues --   -0.48128  -0.47610  -0.47527  -0.47466  -0.47293
 Alpha  occ. eigenvalues --   -0.47212  -0.47045  -0.46808  -0.46469  -0.46052
 Alpha  occ. eigenvalues --   -0.45922  -0.45814  -0.45599  -0.45190  -0.44988
 Alpha  occ. eigenvalues --   -0.44840  -0.44731  -0.44561  -0.44339  -0.44241
 Alpha  occ. eigenvalues --   -0.43660  -0.43540  -0.43412  -0.43291  -0.43192
 Alpha  occ. eigenvalues --   -0.43058  -0.43041  -0.42810  -0.42357  -0.42175
 Alpha  occ. eigenvalues --   -0.42025  -0.41864  -0.41562  -0.41447  -0.41314
 Alpha  occ. eigenvalues --   -0.41162  -0.41033  -0.40838  -0.40490  -0.40451
 Alpha  occ. eigenvalues --   -0.40382  -0.40313  -0.40022  -0.39992  -0.39326
 Alpha  occ. eigenvalues --   -0.39189  -0.39155  -0.39070  -0.38845  -0.38780
 Alpha  occ. eigenvalues --   -0.38510  -0.38308  -0.38137  -0.37781  -0.37726
 Alpha  occ. eigenvalues --   -0.37604  -0.37325  -0.37049  -0.36965  -0.36827
 Alpha  occ. eigenvalues --   -0.36594  -0.36484  -0.36148  -0.36015  -0.35749
 Alpha  occ. eigenvalues --   -0.35488  -0.35380  -0.35276  -0.35150  -0.35011
 Alpha  occ. eigenvalues --   -0.34864  -0.34830  -0.34577  -0.33883  -0.33813
 Alpha  occ. eigenvalues --   -0.33187  -0.32880  -0.32357  -0.32335  -0.32118
 Alpha  occ. eigenvalues --   -0.31790  -0.31739  -0.31590  -0.31365  -0.30895
 Alpha  occ. eigenvalues --   -0.30336  -0.30252  -0.29846  -0.29564  -0.29405
 Alpha  occ. eigenvalues --   -0.29019  -0.28789  -0.27749  -0.27077  -0.26060
 Alpha  occ. eigenvalues --   -0.25625  -0.25190  -0.25070  -0.24766  -0.20743
 Alpha  occ. eigenvalues --   -0.19182
 Alpha virt. eigenvalues --   -0.11333  -0.05052  -0.04022  -0.02287  -0.00163
 Alpha virt. eigenvalues --    0.00302   0.01098   0.01521   0.01982   0.03008
 Alpha virt. eigenvalues --    0.03726   0.04714   0.05171   0.05473   0.05601

 Mulliken charges:
               1
     1  Mg   0.977927
     2  C   -0.041545
     3  C   -0.054769
     4  C   -0.035994
     5  C   -0.081953
     6  N   -0.366552
     7  C    0.070781
     8  C   -0.119010
     9  C   -0.136341
    10  C    0.081702
    11  C    0.018709
    12  C    0.005795
    13  C   -0.050576
    14  C    0.250688
    15  O   -0.259322
    16  O   -0.374470
    17  N   -0.504163
    18  C    0.151346
    19  C   -0.168327
    20  C   -0.079605
    21  C    0.160666
    22  C    0.042844
    23  C    0.047470
    24  O   -0.224799
    25  C   -0.036734
    26  N   -0.375992
    27  C    0.066522
    28  C   -0.131317
    29  C   -0.039877
    30  C    0.084397
    31  C   -0.012522
    32  C   -0.071799
    33  C   -0.046310
    34  N   -0.487566
    35  C    0.114844
    36  C   -0.193368
    37  C   -0.001621
    38  C    0.176425
    39  C    0.069482
    40  C    0.108917
    41  O   -0.261979
    42  C   -0.083534
    43  C    0.264739
    44  O   -0.268702
    45  O   -0.339585
    46  C    0.129819
    47  C    0.227620
    48  C   -0.125168
    49  C   -0.220691
    50  C    0.022741
    51  C    0.003536
    52  C   -0.040708
    53  C   -0.042257
    54  C   -0.232935
    55  C    0.001567
    56  C   -0.024774
    57  C   -0.000032
    58  C    0.013292
    59  C   -0.216686
    60  C    0.015611
    61  C   -0.025986
    62  C   -0.088242
    63  C   -0.000760
    64  C   -0.242982
    65  C   -0.017787
    66  C   -0.023924
    67  H   -0.004366
    68  H    0.024476
    69  H   -0.003038
    70  H    0.032677
    71  H    0.044527
    72  H    0.045796
    73  H    0.041237
    74  H    0.053195
    75  H    0.039992
    76  H    0.098085
    77  H    0.052161
    78  H    0.065957
    79  H    0.041997
    80  H    0.064643
    81  H    0.064993
    82  H    0.056325
    83  H    0.065197
    84  H    0.048145
    85  H    0.053015
    86  H    0.036846
    87  H    0.043831
    88  H    0.042328
    89  H    0.055766
    90  H    0.044101
    91  H    0.035106
    92  H    0.043439
    93  H    0.048387
    94  H    0.047713
    95  H    0.078630
    96  H    0.042388
    97  H    0.071180
    98  H    0.074354
    99  H    0.036747
   100  H    0.091716
   101  H    0.047264
   102  H    0.074999
   103  H    0.050878
   104  H    0.034095
   105  H    0.061627
   106  H    0.032100
   107  H    0.043638
   108  H    0.062567
   109  H    0.014121
   110  H    0.028712
   111  H    0.041368
   112  H    0.041168
   113  H    0.024788
   114  H    0.023970
   115  H    0.038652
   116  H    0.029319
   117  H    0.041140
   118  H    0.011555
   119  H    0.019459
   120  H    0.019851
   121  H    0.025401
   122  H    0.019060
   123  H    0.026891
   124  H    0.031906
   125  H    0.035540
   126  H    0.034910
   127  H    0.033917
   128  H    0.011116
   129  H    0.022072
   130  H    0.044982
   131  H    0.027374
   132  H    0.042157
   133  H    0.026997
   134  H    0.042837
   135  H    0.034279
   136  H    0.032422
   137  H    0.034748
   138  H    0.036459
   139  H    0.034534
   140  H    0.027404
 Sum of Mulliken charges =  -0.00000

 Dipole moment (field-independent basis, Debye):
    X=             -3.1880    Y=              4.1619    Z=             -2.8933  Tot=              5.9880
 Quadrupole moment (field-independent basis, Debye-Ang):
   XX=           -370.1857   YY=           -419.3531   ZZ=           -403.7821
   XY=              2.0195   XZ=              0.6343   YZ=              3.3669

 Normal termination of Gaussian 16 at Sat Apr 30 01:48:31 2022.
