 Gaussian 16, Revision A.03,
 Gaussian 16:  ES64L-G16RevA.03 25-Dec-2016

 --------------------------------
 #p wB97XD/Def2SVP td=(nstates=5)
 --------------------------------

 ---------------------------------------------------
 step_551_chromophore_1 TDDFT with wB97XD functional
 ---------------------------------------------------
 Symbolic Z-matrix:
 Charge =  0 Multiplicity = 1

                         Standard orientation:
 ---------------------------------------------------------------------
 Center     Atomic      Atomic             Coordinates (Angstroms)
 Number     Number       Type             X           Y           Z
 ---------------------------------------------------------------------
      1         12           0        5.941178    0.488703    0.139828
      2          6           0        3.754125   -2.246805   -0.518360
      3          6           0        3.246578    2.572289   -0.662981
      4          6           0        8.049002    2.935481   -0.253040
      5          6           0        8.491253   -1.723268    0.661410
      6          7           0        3.701131    0.183826   -0.482637
      7          6           0        3.083548   -1.032502   -0.745745
      8          6           0        1.612419   -0.760945   -1.248429
      9          6           0        1.549057    0.812353   -1.551661
     10          6           0        2.852975    1.243620   -0.775644
     11          6           0        1.550651    1.141537   -3.086664
     12          6           0        0.582253   -1.131096   -0.170858
     13          6           0       -0.832282   -0.910049   -0.631449
     14          6           0       -1.835823   -1.956428   -0.046423
     15          8           0       -1.729552   -2.645456    0.967996
     16          8           0       -2.974288   -1.912840   -0.825501
     17          7           0        5.645188    2.512348   -0.150036
     18          6           0        4.438220    3.213328   -0.273526
     19          6           0        4.754876    4.682686   -0.213840
     20          6           0        6.177134    4.769775   -0.014039
     21          6           0        6.680677    3.380628   -0.121853
     22          6           0        3.665003    5.670403   -0.444404
     23          6           0        7.026966    5.990039    0.212878
     24          8           0        8.230679    5.989929    0.368993
     25          6           0        6.268370    7.335656    0.460006
     26          7           0        8.039828    0.554327   -0.059633
     27          6           0        8.662488    1.692553   -0.251775
     28          6           0       10.256881    1.504026   -0.180700
     29          6           0       10.326867    0.068163    0.296341
     30          6           0        8.873454   -0.430202    0.292078
     31          6           0       10.979355    1.761930   -1.598736
     32          6           0       11.062514   -0.070088    1.639925
     33          6           0       10.307176    0.131454    2.932868
     34          7           0        6.123893   -1.566518    0.321925
     35          6           0        7.221748   -2.328023    0.591265
     36          6           0        6.896219   -3.716676    0.496622
     37          6           0        5.551657   -3.701780    0.102390
     38          6           0        5.097630   -2.413048    0.026454
     39          6           0        7.874412   -4.838851    0.521922
     40          6           0        4.506163   -4.561003   -0.273113
     41          8           0        4.480539   -5.821224   -0.328793
     42          6           0        3.306501   -3.697677   -0.824747
     43          6           0        2.146179   -4.152723   -0.028532
     44          8           0        1.974486   -3.907521    1.149350
     45          8           0        1.449702   -5.066864   -0.702231
     46          6           0        0.370555   -5.755142    0.068833
     47          6           0       -4.066304   -2.790087   -0.437636
     48          6           0       -5.189466   -1.960705    0.078228
     49          6           0       -6.474273   -2.329372    0.085126
     50          6           0       -7.037700   -3.650569   -0.447083
     51          6           0       -7.484156   -1.306867    0.600269
     52          6           0       -7.330398    0.110396    0.007187
     53          6           0       -8.656164    0.718071   -0.193311
     54          6           0       -8.877930    1.966263    0.722834
     55          6           0       -7.804175    3.069747    0.667760
     56          6           0       -9.325443    1.554366    2.144251
     57          6           0      -10.656722    2.092032    2.763836
     58          6           0      -11.687930    0.972525    3.124378
     59          6           0      -12.970128    1.055629    2.316996
     60          6           0      -14.087318    0.272954    2.939740
     61          6           0      -12.617345    0.547420    0.879460
     62          6           0      -12.460108    1.542533   -0.286506
     63          6           0      -13.751350    1.799081   -1.113999
     64          6           0      -13.729124    0.797036   -2.415851
     65          6           0      -13.326403    1.617842   -3.686360
     66          6           0      -15.103738    0.042085   -2.567691
     67          1           0        2.452718    3.303548   -0.826918
     68          1           0        8.784357    3.734066   -0.369592
     69          1           0        9.199429   -2.451034    1.063272
     70          1           0        1.461273   -1.375131   -2.136476
     71          1           0        0.643205    1.236983   -1.119489
     72          1           0        2.355345    1.867519   -3.205840
     73          1           0        0.632678    1.651879   -3.377666
     74          1           0        1.693635    0.284073   -3.744388
     75          1           0        0.696719   -0.444836    0.667592
     76          1           0        0.568170   -2.183511    0.111061
     77          1           0       -0.836695   -0.882699   -1.721797
     78          1           0       -1.127754    0.100865   -0.355013
     79          1           0        2.671475    5.287145   -0.679118
     80          1           0        3.848833    6.297853   -1.317098
     81          1           0        3.643737    6.222598    0.494330
     82          1           0        5.855713    7.629754   -0.504497
     83          1           0        6.914134    8.080957    0.926015
     84          1           0        5.419027    7.074219    1.091612
     85          1           0       10.779704    2.125494    0.546856
     86          1           0       10.893075   -0.478795   -0.457073
     87          1           0       10.284750    1.426697   -2.368493
     88          1           0       11.884007    1.160033   -1.681384
     89          1           0       11.253842    2.793028   -1.821695
     90          1           0       11.998318    0.487322    1.609490
     91          1           0       11.275343   -1.135573    1.720847
     92          1           0       10.113660   -0.853991    3.357014
     93          1           0        9.341203    0.587038    2.717837
     94          1           0       10.856662    0.794681    3.600538
     95          1           0        7.274504   -5.678501    0.872561
     96          1           0        8.780363   -4.676586    1.107061
     97          1           0        8.152721   -4.854005   -0.531237
     98          1           0        3.080221   -3.769395   -1.888853
     99          1           0       -0.531579   -5.214061   -0.218530
    100          1           0        0.391926   -5.832343    1.155815
    101          1           0        0.085559   -6.695028   -0.404903
    102          1           0       -3.725816   -3.524810    0.290916
    103          1           0       -4.319112   -3.244916   -1.395799
    104          1           0       -4.863483   -0.955240    0.343389
    105          1           0       -7.493778   -4.186975    0.385405
    106          1           0       -6.277565   -4.173935   -1.025703
    107          1           0       -7.845892   -3.521496   -1.168191
    108          1           0       -7.457298   -1.178246    1.682679
    109          1           0       -8.424586   -1.734693    0.254505
    110          1           0       -6.933020    0.046732   -1.006365
    111          1           0       -6.686677    0.693874    0.664610
    112          1           0       -9.429114    0.007519    0.097318
    113          1           0       -8.733902    0.960279   -1.253432
    114          1           0       -9.772197    2.389022    0.265494
    115          1           0       -8.411598    3.973890    0.634274
    116          1           0       -7.249403    2.992140   -0.267323
    117          1           0       -7.051149    3.126389    1.453764
    118          1           0       -8.498788    1.908539    2.760444
    119          1           0       -9.227269    0.470602    2.214165
    120          1           0      -11.002525    2.876014    2.089425
    121          1           0      -10.366835    2.710803    3.612719
    122          1           0      -11.956275    0.920151    4.179705
    123          1           0      -11.179006    0.016082    3.003651
    124          1           0      -13.303824    2.082887    2.171919
    125          1           0      -13.841877   -0.269948    3.853010
    126          1           0      -14.589937   -0.393256    2.238640
    127          1           0      -14.724620    1.119214    3.194656
    128          1           0      -13.371772   -0.130583    0.479545
    129          1           0      -11.686675   -0.019627    0.916806
    130          1           0      -11.617262    1.242975   -0.909825
    131          1           0      -12.204866    2.481014    0.205498
    132          1           0      -13.912947    2.842292   -1.385304
    133          1           0      -14.462031    1.390279   -0.395157
    134          1           0      -13.005086   -0.003803   -2.262436
    135          1           0      -12.417182    1.158293   -4.074019
    136          1           0      -13.081630    2.666884   -3.519077
    137          1           0      -14.061850    1.646252   -4.490727
    138          1           0      -15.092523   -0.978008   -2.183073
    139          1           0      -15.506592    0.102186   -3.578783
    140          1           0      -15.832983    0.530475   -1.921525
 ---------------------------------------------------------------------

 SCF Done:  E(RwB97XD) =  -3007.85240294     A.U. after   20 cycles

 Excitation energies and oscillator strengths:

 Excited State   1:      Singlet-A      1.6997 eV  729.45 nm  f=0.3712  <S**2>=0.000
     245 -> 248        0.19525
     246 -> 247        0.68012
     245 <- 248        0.11749
 This state for optimization and/or second-order correction.
 Total Energy, E(TD-HF/TD-DFT) =  -3007.78994039
 Copying the excited state density for this state as the 1-particle RhoCI density.

 Excited State   2:      Singlet-A      2.1125 eV  586.90 nm  f=0.1489  <S**2>=0.000
     245 -> 247        0.65388
     246 -> 248       -0.25521
     246 <- 248       -0.10018

 Excited State   3:      Singlet-A      3.3935 eV  365.35 nm  f=0.0020  <S**2>=0.000
     241 -> 247       -0.20035
     242 -> 247        0.18104
     242 -> 249       -0.11367
     242 -> 250       -0.10514
     244 -> 247        0.61088

 Excited State   4:      Singlet-A      3.4332 eV  361.13 nm  f=0.0001  <S**2>=0.000
     241 -> 247        0.11188
     242 -> 247        0.51612
     242 -> 249       -0.29216
     242 -> 250       -0.26542
     244 -> 247       -0.21147

 Excited State   5:      Singlet-A      3.5670 eV  347.59 nm  f=0.0486  <S**2>=0.000
     240 -> 247       -0.27764
     240 -> 249       -0.16237
     241 -> 247        0.48822
     244 -> 247        0.14274
     246 -> 248        0.30762

 The electronic state is 1-A.
 Alpha  occ. eigenvalues --  -46.95340 -19.29976 -19.29872 -19.25519 -19.24256
 Alpha  occ. eigenvalues --  -19.22902 -19.22734 -14.47106 -14.46290 -14.44735
 Alpha  occ. eigenvalues --  -14.43380 -10.43852 -10.41549 -10.39421 -10.38236
 Alpha  occ. eigenvalues --  -10.35642 -10.35401 -10.35287 -10.35117 -10.35029
 Alpha  occ. eigenvalues --  -10.34955 -10.34721 -10.34571 -10.34562 -10.33390
 Alpha  occ. eigenvalues --  -10.32741 -10.32667 -10.32663 -10.32613 -10.32416
 Alpha  occ. eigenvalues --  -10.32018 -10.31942 -10.31899 -10.31514 -10.31396
 Alpha  occ. eigenvalues --  -10.31389 -10.30832 -10.30649 -10.30629 -10.30559
 Alpha  occ. eigenvalues --  -10.30545 -10.30338 -10.30178 -10.30129 -10.29986
 Alpha  occ. eigenvalues --  -10.29681 -10.29673 -10.29628 -10.29384 -10.29278
 Alpha  occ. eigenvalues --  -10.29237 -10.29223 -10.29157 -10.29006 -10.28953
 Alpha  occ. eigenvalues --  -10.28684 -10.28563 -10.28458 -10.28454 -10.28396
 Alpha  occ. eigenvalues --  -10.28274 -10.28254 -10.28202 -10.28198 -10.28098
 Alpha  occ. eigenvalues --  -10.27968  -3.21293  -1.94878  -1.94435  -1.94251
 Alpha  occ. eigenvalues --   -1.18444  -1.18338  -1.12894  -1.10055  -1.09232
 Alpha  occ. eigenvalues --   -1.08633  -1.07413  -1.05604  -1.04957  -1.03659
 Alpha  occ. eigenvalues --   -0.94087  -0.92795  -0.91940  -0.91653  -0.91325
 Alpha  occ. eigenvalues --   -0.90472  -0.90316  -0.89496  -0.88988  -0.88663
 Alpha  occ. eigenvalues --   -0.88476  -0.87155  -0.86164  -0.85339  -0.84910
 Alpha  occ. eigenvalues --   -0.84282  -0.84020  -0.83285  -0.82793  -0.82273
 Alpha  occ. eigenvalues --   -0.82059  -0.80738  -0.79768  -0.78939  -0.78162
 Alpha  occ. eigenvalues --   -0.77903  -0.77238  -0.77208  -0.76904  -0.75816
 Alpha  occ. eigenvalues --   -0.75093  -0.74555  -0.73539  -0.71613  -0.71338
 Alpha  occ. eigenvalues --   -0.71010  -0.70231  -0.69194  -0.68739  -0.67452
 Alpha  occ. eigenvalues --   -0.67287  -0.66918  -0.66791  -0.66124  -0.66004
 Alpha  occ. eigenvalues --   -0.64682  -0.64591  -0.63388  -0.63111  -0.62558
 Alpha  occ. eigenvalues --   -0.62251  -0.61825  -0.61525  -0.60532  -0.59783
 Alpha  occ. eigenvalues --   -0.59137  -0.59127  -0.58481  -0.57888  -0.57747
 Alpha  occ. eigenvalues --   -0.57373  -0.56875  -0.56815  -0.56497  -0.56150
 Alpha  occ. eigenvalues --   -0.55455  -0.55202  -0.54969  -0.54802  -0.54646
 Alpha  occ. eigenvalues --   -0.54500  -0.54451  -0.54207  -0.53821  -0.53461
 Alpha  occ. eigenvalues --   -0.53224  -0.53183  -0.52970  -0.52554  -0.52367
 Alpha  occ. eigenvalues --   -0.52296  -0.51993  -0.51925  -0.51765  -0.51608
 Alpha  occ. eigenvalues --   -0.50992  -0.50826  -0.50709  -0.50658  -0.50489
 Alpha  occ. eigenvalues --   -0.50432  -0.50349  -0.50065  -0.49594  -0.49457
 Alpha  occ. eigenvalues --   -0.49319  -0.49191  -0.48851  -0.48678  -0.48563
 Alpha  occ. eigenvalues --   -0.48372  -0.48268  -0.47977  -0.47734  -0.47641
 Alpha  occ. eigenvalues --   -0.47581  -0.47477  -0.47276  -0.47096  -0.46507
 Alpha  occ. eigenvalues --   -0.46345  -0.46281  -0.46252  -0.46042  -0.45869
 Alpha  occ. eigenvalues --   -0.45678  -0.45417  -0.45280  -0.44886  -0.44801
 Alpha  occ. eigenvalues --   -0.44741  -0.44610  -0.44233  -0.44122  -0.43886
 Alpha  occ. eigenvalues --   -0.43685  -0.43593  -0.43239  -0.43067  -0.42836
 Alpha  occ. eigenvalues --   -0.42570  -0.42399  -0.42303  -0.42119  -0.42049
 Alpha  occ. eigenvalues --   -0.41908  -0.41885  -0.41660  -0.40908  -0.40820
 Alpha  occ. eigenvalues --   -0.40258  -0.39826  -0.39379  -0.39255  -0.39120
 Alpha  occ. eigenvalues --   -0.38819  -0.38785  -0.38509  -0.38363  -0.37884
 Alpha  occ. eigenvalues --   -0.37303  -0.37256  -0.36823  -0.36490  -0.36291
 Alpha  occ. eigenvalues --   -0.35937  -0.35395  -0.34866  -0.33751  -0.32902
 Alpha  occ. eigenvalues --   -0.32741  -0.32083  -0.31520  -0.31513  -0.25693
 Alpha  occ. eigenvalues --   -0.23419
 Alpha virt. eigenvalues --   -0.07227   0.00393   0.02203   0.04237   0.06156
 Alpha virt. eigenvalues --    0.06728   0.07837   0.08231   0.08800   0.09098
 Alpha virt. eigenvalues --    0.10498   0.11522   0.12042   0.12075   0.12352

 Mulliken charges:
               1
     1  Mg   0.967849
     2  C   -0.038586
     3  C   -0.057888
     4  C   -0.054510
     5  C   -0.095684
     6  N   -0.333230
     7  C    0.031855
     8  C   -0.089956
     9  C   -0.112661
    10  C    0.066857
    11  C    0.028514
    12  C    0.030596
    13  C   -0.039756
    14  C    0.243018
    15  O   -0.256590
    16  O   -0.373531
    17  N   -0.476408
    18  C    0.139270
    19  C   -0.152355
    20  C   -0.074238
    21  C    0.154696
    22  C    0.052204
    23  C    0.040319
    24  O   -0.217656
    25  C   -0.018928
    26  N   -0.338622
    27  C    0.052626
    28  C   -0.109274
    29  C   -0.016778
    30  C    0.070232
    31  C   -0.001852
    32  C   -0.054792
    33  C   -0.028859
    34  N   -0.450013
    35  C    0.099674
    36  C   -0.188826
    37  C    0.008399
    38  C    0.150632
    39  C    0.080649
    40  C    0.087979
    41  O   -0.254039
    42  C   -0.043003
    43  C    0.238414
    44  O   -0.262362
    45  O   -0.337574
    46  C    0.146037
    47  C    0.240074
    48  C   -0.133685
    49  C   -0.208933
    50  C    0.038446
    51  C    0.025354
    52  C   -0.028655
    53  C   -0.010866
    54  C   -0.194924
    55  C    0.010955
    56  C   -0.007375
    57  C    0.014664
    58  C    0.033296
    59  C   -0.185115
    60  C    0.024084
    61  C   -0.001049
    62  C   -0.065200
    63  C    0.021344
    64  C   -0.217558
    65  C   -0.007336
    66  C   -0.010451
    67  H   -0.013447
    68  H    0.019032
    69  H   -0.012169
    70  H    0.021660
    71  H    0.033448
    72  H    0.037896
    73  H    0.036645
    74  H    0.048980
    75  H    0.032183
    76  H    0.076441
    77  H    0.044451
    78  H    0.059382
    79  H    0.040270
    80  H    0.061187
    81  H    0.059703
    82  H    0.050243
    83  H    0.065065
    84  H    0.039245
    85  H    0.044277
    86  H    0.026804
    87  H    0.037268
    88  H    0.036419
    89  H    0.051019
    90  H    0.036396
    91  H    0.025859
    92  H    0.038350
    93  H    0.036569
    94  H    0.042977
    95  H    0.074216
    96  H    0.037044
    97  H    0.064471
    98  H    0.069790
    99  H    0.031223
   100  H    0.089321
   101  H    0.043858
   102  H    0.070894
   103  H    0.045512
   104  H    0.029579
   105  H    0.056358
   106  H    0.026226
   107  H    0.038162
   108  H    0.055300
   109  H    0.003903
   110  H    0.019975
   111  H    0.030629
   112  H    0.018168
   113  H    0.018719
   114  H    0.002216
   115  H    0.033333
   116  H    0.022992
   117  H    0.035937
   118  H    0.002165
   119  H    0.001365
   120  H    0.008294
   121  H    0.019637
   122  H    0.011413
   123  H    0.016479
   124  H    0.019346
   125  H    0.030638
   126  H    0.029725
   127  H    0.028442
   128  H   -0.003451
   129  H    0.005200
   130  H    0.031117
   131  H    0.013265
   132  H    0.036499
   133  H    0.010940
   134  H    0.032061
   135  H    0.028560
   136  H    0.026226
   137  H    0.028970
   138  H    0.031323
   139  H    0.028787
   140  H    0.020098
 Sum of Mulliken charges =  -0.00000

 Dipole moment (field-independent basis, Debye):
    X=             -3.3831    Y=              4.7256    Z=             -2.9453  Tot=              6.5154
 Quadrupole moment (field-independent basis, Debye-Ang):
   XX=           -372.7750   YY=           -416.9748   ZZ=           -403.4032
   XY=              5.5132   XZ=              0.4549   YZ=              3.5388

 Normal termination of Gaussian 16 at Sat Apr 30 02:19:36 2022.
