 Gaussian 16, Revision A.03,
 Gaussian 16:  ES64L-G16RevA.03 25-Dec-2016

 --------------------
 #p ZINDO=(nstates=5)
 --------------------

 ----------------------------
 step_551_chromophore_1 ZINDO
 ----------------------------
 Symbolic Z-matrix:
 Charge =  0 Multiplicity = 1

                         Standard orientation:
 ---------------------------------------------------------------------
 Center     Atomic      Atomic             Coordinates (Angstroms)
 Number     Number       Type             X           Y           Z
 ---------------------------------------------------------------------
      1         12           0        5.941178    0.488703    0.139828
      2          6           0        3.754125   -2.246805   -0.518360
      3          6           0        3.246578    2.572289   -0.662981
      4          6           0        8.049002    2.935481   -0.253040
      5          6           0        8.491253   -1.723268    0.661410
      6          7           0        3.701131    0.183826   -0.482637
      7          6           0        3.083548   -1.032502   -0.745745
      8          6           0        1.612419   -0.760945   -1.248429
      9          6           0        1.549057    0.812353   -1.551661
     10          6           0        2.852975    1.243620   -0.775644
     11          6           0        1.550651    1.141537   -3.086664
     12          6           0        0.582253   -1.131096   -0.170858
     13          6           0       -0.832282   -0.910049   -0.631449
     14          6           0       -1.835823   -1.956428   -0.046423
     15          8           0       -1.729552   -2.645456    0.967996
     16          8           0       -2.974288   -1.912840   -0.825501
     17          7           0        5.645188    2.512348   -0.150036
     18          6           0        4.438220    3.213328   -0.273526
     19          6           0        4.754876    4.682686   -0.213840
     20          6           0        6.177134    4.769775   -0.014039
     21          6           0        6.680677    3.380628   -0.121853
     22          6           0        3.665003    5.670403   -0.444404
     23          6           0        7.026966    5.990039    0.212878
     24          8           0        8.230679    5.989929    0.368993
     25          6           0        6.268370    7.335656    0.460006
     26          7           0        8.039828    0.554327   -0.059633
     27          6           0        8.662488    1.692553   -0.251775
     28          6           0       10.256881    1.504026   -0.180700
     29          6           0       10.326867    0.068163    0.296341
     30          6           0        8.873454   -0.430202    0.292078
     31          6           0       10.979355    1.761930   -1.598736
     32          6           0       11.062514   -0.070088    1.639925
     33          6           0       10.307176    0.131454    2.932868
     34          7           0        6.123893   -1.566518    0.321925
     35          6           0        7.221748   -2.328023    0.591265
     36          6           0        6.896219   -3.716676    0.496622
     37          6           0        5.551657   -3.701780    0.102390
     38          6           0        5.097630   -2.413048    0.026454
     39          6           0        7.874412   -4.838851    0.521922
     40          6           0        4.506163   -4.561003   -0.273113
     41          8           0        4.480539   -5.821224   -0.328793
     42          6           0        3.306501   -3.697677   -0.824747
     43          6           0        2.146179   -4.152723   -0.028532
     44          8           0        1.974486   -3.907521    1.149350
     45          8           0        1.449702   -5.066864   -0.702231
     46          6           0        0.370555   -5.755142    0.068833
     47          6           0       -4.066304   -2.790087   -0.437636
     48          6           0       -5.189466   -1.960705    0.078228
     49          6           0       -6.474273   -2.329372    0.085126
     50          6           0       -7.037700   -3.650569   -0.447083
     51          6           0       -7.484156   -1.306867    0.600269
     52          6           0       -7.330398    0.110396    0.007187
     53          6           0       -8.656164    0.718071   -0.193311
     54          6           0       -8.877930    1.966263    0.722834
     55          6           0       -7.804175    3.069747    0.667760
     56          6           0       -9.325443    1.554366    2.144251
     57          6           0      -10.656722    2.092032    2.763836
     58          6           0      -11.687930    0.972525    3.124378
     59          6           0      -12.970128    1.055629    2.316996
     60          6           0      -14.087318    0.272954    2.939740
     61          6           0      -12.617345    0.547420    0.879460
     62          6           0      -12.460108    1.542533   -0.286506
     63          6           0      -13.751350    1.799081   -1.113999
     64          6           0      -13.729124    0.797036   -2.415851
     65          6           0      -13.326403    1.617842   -3.686360
     66          6           0      -15.103738    0.042085   -2.567691
     67          1           0        2.452718    3.303548   -0.826918
     68          1           0        8.784357    3.734066   -0.369592
     69          1           0        9.199429   -2.451034    1.063272
     70          1           0        1.461273   -1.375131   -2.136476
     71          1           0        0.643205    1.236983   -1.119489
     72          1           0        2.355345    1.867519   -3.205840
     73          1           0        0.632678    1.651879   -3.377666
     74          1           0        1.693635    0.284073   -3.744388
     75          1           0        0.696719   -0.444836    0.667592
     76          1           0        0.568170   -2.183511    0.111061
     77          1           0       -0.836695   -0.882699   -1.721797
     78          1           0       -1.127754    0.100865   -0.355013
     79          1           0        2.671475    5.287145   -0.679118
     80          1           0        3.848833    6.297853   -1.317098
     81          1           0        3.643737    6.222598    0.494330
     82          1           0        5.855713    7.629754   -0.504497
     83          1           0        6.914134    8.080957    0.926015
     84          1           0        5.419027    7.074219    1.091612
     85          1           0       10.779704    2.125494    0.546856
     86          1           0       10.893075   -0.478795   -0.457073
     87          1           0       10.284750    1.426697   -2.368493
     88          1           0       11.884007    1.160033   -1.681384
     89          1           0       11.253842    2.793028   -1.821695
     90          1           0       11.998318    0.487322    1.609490
     91          1           0       11.275343   -1.135573    1.720847
     92          1           0       10.113660   -0.853991    3.357014
     93          1           0        9.341203    0.587038    2.717837
     94          1           0       10.856662    0.794681    3.600538
     95          1           0        7.274504   -5.678501    0.872561
     96          1           0        8.780363   -4.676586    1.107061
     97          1           0        8.152721   -4.854005   -0.531237
     98          1           0        3.080221   -3.769395   -1.888853
     99          1           0       -0.531579   -5.214061   -0.218530
    100          1           0        0.391926   -5.832343    1.155815
    101          1           0        0.085559   -6.695028   -0.404903
    102          1           0       -3.725816   -3.524810    0.290916
    103          1           0       -4.319112   -3.244916   -1.395799
    104          1           0       -4.863483   -0.955240    0.343389
    105          1           0       -7.493778   -4.186975    0.385405
    106          1           0       -6.277565   -4.173935   -1.025703
    107          1           0       -7.845892   -3.521496   -1.168191
    108          1           0       -7.457298   -1.178246    1.682679
    109          1           0       -8.424586   -1.734693    0.254505
    110          1           0       -6.933020    0.046732   -1.006365
    111          1           0       -6.686677    0.693874    0.664610
    112          1           0       -9.429114    0.007519    0.097318
    113          1           0       -8.733902    0.960279   -1.253432
    114          1           0       -9.772197    2.389022    0.265494
    115          1           0       -8.411598    3.973890    0.634274
    116          1           0       -7.249403    2.992140   -0.267323
    117          1           0       -7.051149    3.126389    1.453764
    118          1           0       -8.498788    1.908539    2.760444
    119          1           0       -9.227269    0.470602    2.214165
    120          1           0      -11.002525    2.876014    2.089425
    121          1           0      -10.366835    2.710803    3.612719
    122          1           0      -11.956275    0.920151    4.179705
    123          1           0      -11.179006    0.016082    3.003651
    124          1           0      -13.303824    2.082887    2.171919
    125          1           0      -13.841877   -0.269948    3.853010
    126          1           0      -14.589937   -0.393256    2.238640
    127          1           0      -14.724620    1.119214    3.194656
    128          1           0      -13.371772   -0.130583    0.479545
    129          1           0      -11.686675   -0.019627    0.916806
    130          1           0      -11.617262    1.242975   -0.909825
    131          1           0      -12.204866    2.481014    0.205498
    132          1           0      -13.912947    2.842292   -1.385304
    133          1           0      -14.462031    1.390279   -0.395157
    134          1           0      -13.005086   -0.003803   -2.262436
    135          1           0      -12.417182    1.158293   -4.074019
    136          1           0      -13.081630    2.666884   -3.519077
    137          1           0      -14.061850    1.646252   -4.490727
    138          1           0      -15.092523   -0.978008   -2.183073
    139          1           0      -15.506592    0.102186   -3.578783
    140          1           0      -15.832983    0.530475   -1.921525
 ---------------------------------------------------------------------

 SCF Done:  E(RZINDO/S) =  -474.277012676     A.U. after   20 cycles

 Excitation energies and oscillator strengths:

 Excited State   1:      Singlet-A      1.2730 eV  973.97 nm  f=0.5860  <S**2>=0.000
     175 ->178         0.19687
     176 ->177         0.66162
 This state for optimization and/or second-order correction.
 Total Energy, E(CIS/TDA) =  -474.230231420
 Copying the excited state density for this state as the 1-particle RhoCI density.

 Excited State   2:      Singlet-A      1.8762 eV  660.83 nm  f=0.0814  <S**2>=0.000
     175 ->177         0.57492
     176 ->178        -0.38301

 Excited State   3:      Singlet-A      2.9176 eV  424.96 nm  f=0.0093  <S**2>=0.000
     170 ->177         0.31862
     170 ->178        -0.15371
     170 ->179         0.31126
     170 ->180         0.40954
     170 ->185         0.15238
     170 ->188        -0.15095

 Excited State   4:      Singlet-A      2.9964 eV  413.78 nm  f=0.0686  <S**2>=0.000
     168 ->177         0.29473
     168 ->179        -0.41375
     168 ->180         0.24793
     168 ->184         0.12817
     168 ->185        -0.19462
     168 ->188        -0.10883
     176 ->178         0.12876
     176 ->179         0.10754

 Excited State   5:      Singlet-A      3.0288 eV  409.36 nm  f=0.9864  <S**2>=0.000
     171 ->177         0.10703
     175 ->177         0.34156
     176 ->178         0.53969
     176 ->179        -0.10674
     176 ->180        -0.14408

 The electronic state is 1-A.
 Alpha  occ. eigenvalues --   -1.85337  -1.81600  -1.77918  -1.73284  -1.72915
 Alpha  occ. eigenvalues --   -1.69764  -1.68060  -1.61828  -1.58770  -1.56861
 Alpha  occ. eigenvalues --   -1.53172  -1.51671  -1.49054  -1.48047  -1.46468
 Alpha  occ. eigenvalues --   -1.43735  -1.41633  -1.40489  -1.37910  -1.37391
 Alpha  occ. eigenvalues --   -1.34970  -1.33931  -1.33573  -1.31725  -1.29288
 Alpha  occ. eigenvalues --   -1.28724  -1.24689  -1.22070  -1.20529  -1.17715
 Alpha  occ. eigenvalues --   -1.16329  -1.15867  -1.15499  -1.14021  -1.12950
 Alpha  occ. eigenvalues --   -1.12484  -1.11311  -1.10024  -1.04847  -1.03992
 Alpha  occ. eigenvalues --   -1.01876  -1.00981  -0.99489  -0.97550  -0.97292
 Alpha  occ. eigenvalues --   -0.96835  -0.94923  -0.93622  -0.93168  -0.91608
 Alpha  occ. eigenvalues --   -0.91114  -0.89811  -0.88385  -0.88129  -0.85092
 Alpha  occ. eigenvalues --   -0.84117  -0.83213  -0.82633  -0.81254  -0.81103
 Alpha  occ. eigenvalues --   -0.80194  -0.79071  -0.78812  -0.76810  -0.76697
 Alpha  occ. eigenvalues --   -0.75885  -0.75217  -0.75037  -0.73735  -0.73359
 Alpha  occ. eigenvalues --   -0.73040  -0.72726  -0.71965  -0.71215  -0.70611
 Alpha  occ. eigenvalues --   -0.70026  -0.69635  -0.69170  -0.69103  -0.68171
 Alpha  occ. eigenvalues --   -0.67422  -0.66994  -0.66634  -0.66290  -0.65071
 Alpha  occ. eigenvalues --   -0.64527  -0.63973  -0.63595  -0.63467  -0.63292
 Alpha  occ. eigenvalues --   -0.62962  -0.62736  -0.62292  -0.62121  -0.61870
 Alpha  occ. eigenvalues --   -0.61711  -0.61446  -0.60616  -0.60250  -0.60176
 Alpha  occ. eigenvalues --   -0.59597  -0.59338  -0.59233  -0.58894  -0.58027
 Alpha  occ. eigenvalues --   -0.57900  -0.56881  -0.56305  -0.56070  -0.55705
 Alpha  occ. eigenvalues --   -0.55684  -0.55383  -0.54837  -0.54492  -0.54429
 Alpha  occ. eigenvalues --   -0.53979  -0.53049  -0.52945  -0.52881  -0.52551
 Alpha  occ. eigenvalues --   -0.52385  -0.52116  -0.51548  -0.51529  -0.51256
 Alpha  occ. eigenvalues --   -0.50960  -0.50565  -0.50484  -0.50107  -0.50027
 Alpha  occ. eigenvalues --   -0.49852  -0.49661  -0.49147  -0.48981  -0.48851
 Alpha  occ. eigenvalues --   -0.48621  -0.48118  -0.47991  -0.47884  -0.47543
 Alpha  occ. eigenvalues --   -0.47425  -0.47204  -0.46981  -0.46505  -0.46344
 Alpha  occ. eigenvalues --   -0.45951  -0.45745  -0.45685  -0.45608  -0.45506
 Alpha  occ. eigenvalues --   -0.45021  -0.44966  -0.44728  -0.43804  -0.43680
 Alpha  occ. eigenvalues --   -0.43058  -0.42989  -0.42628  -0.42450  -0.41795
 Alpha  occ. eigenvalues --   -0.41491  -0.40934  -0.39740  -0.38909  -0.38673
 Alpha  occ. eigenvalues --   -0.37243  -0.36842  -0.35789  -0.34478  -0.34194
 Alpha  occ. eigenvalues --   -0.33616  -0.32614  -0.31793  -0.31790  -0.26307
 Alpha  occ. eigenvalues --   -0.21969
 Alpha virt. eigenvalues --   -0.08616  -0.01900  -0.00643   0.00949   0.02015
 Alpha virt. eigenvalues --    0.02495   0.02844   0.03933   0.05064   0.05255
 Alpha virt. eigenvalues --    0.06177   0.06360   0.07001   0.07461   0.08309

 Mulliken charges:
               1
     1  Mg   0.424742
     2  C   -0.038855
     3  C   -0.061986
     4  C   -0.076325
     5  C   -0.063689
     6  N   -0.293608
     7  C    0.099517
     8  C    0.004708
     9  C   -0.000449
    10  C    0.134467
    11  C   -0.052151
    12  C   -0.027319
    13  C    0.001511
    14  C    0.460105
    15  O   -0.501935
    16  O   -0.283136
    17  N   -0.319208
    18  C    0.096598
    19  C    0.028893
    20  C   -0.043786
    21  C    0.156955
    22  C   -0.035995
    23  C    0.323354
    24  O   -0.510620
    25  C   -0.036432
    26  N   -0.249184
    27  C    0.150217
    28  C   -0.004206
    29  C    0.009151
    30  C    0.115222
    31  C   -0.056664
    32  C   -0.029174
    33  C   -0.051568
    34  N   -0.321684
    35  C    0.082719
    36  C    0.027003
    37  C   -0.036960
    38  C    0.107549
    39  C   -0.039920
    40  C    0.333873
    41  O   -0.550394
    42  C    0.055359
    43  C    0.496571
    44  O   -0.535889
    45  O   -0.255171
    46  C    0.067762
    47  C    0.102335
    48  C   -0.077607
    49  C   -0.019936
    50  C   -0.042894
    51  C   -0.029168
    52  C   -0.029157
    53  C   -0.033169
    54  C   -0.015370
    55  C   -0.052843
    56  C   -0.040017
    57  C   -0.036044
    58  C   -0.023176
    59  C    0.001438
    60  C   -0.059716
    61  C   -0.043769
    62  C   -0.041283
    63  C   -0.046228
    64  C   -0.017152
    65  C   -0.057999
    66  C   -0.063446
    67  H    0.014244
    68  H    0.033550
    69  H    0.024686
    70  H    0.026343
    71  H    0.034335
    72  H    0.022247
    73  H    0.018348
    74  H    0.030335
    75  H    0.030736
    76  H    0.052403
    77  H    0.032204
    78  H    0.039493
    79  H    0.028667
    80  H    0.032009
    81  H    0.037039
    82  H    0.036179
    83  H    0.046259
    84  H    0.030423
    85  H    0.035863
    86  H    0.023787
    87  H    0.019524
    88  H    0.019647
    89  H    0.027021
    90  H    0.021907
    91  H    0.008426
    92  H    0.023789
    93  H    0.020544
    94  H    0.021668
    95  H    0.043327
    96  H    0.027684
    97  H    0.039326
    98  H    0.055769
    99  H    0.024980
   100  H    0.071018
   101  H    0.031716
   102  H    0.064668
   103  H    0.035297
   104  H    0.038109
   105  H    0.034751
   106  H    0.024791
   107  H    0.022481
   108  H    0.033316
   109  H    0.016866
   110  H    0.016149
   111  H    0.027011
   112  H    0.019524
   113  H    0.014644
   114  H    0.006198
   115  H    0.016139
   116  H    0.013086
   117  H    0.027418
   118  H    0.007013
   119  H    0.019041
   120  H    0.022615
   121  H    0.015000
   122  H    0.011960
   123  H    0.020826
   124  H    0.024323
   125  H    0.023138
   126  H    0.022853
   127  H    0.014971
   128  H    0.012379
   129  H    0.013315
   130  H    0.021531
   131  H    0.008323
   132  H    0.035171
   133  H    0.023792
   134  H    0.026334
   135  H    0.012812
   136  H    0.018369
   137  H    0.020706
   138  H    0.020817
   139  H    0.022268
   140  H    0.011728
 Sum of Mulliken charges =  -0.00000

 Dipole moment (field-independent basis, Debye):
    X=             -4.1720    Y=              8.1519    Z=             -5.6053  Tot=             10.7367
 N-N= 4.284361231262D+03 E-N= 0.000000000000D+00  KE=-9.243660104920D+03
 Leave Link  601 at Sat Apr 30 02:31:39 2022, MaxMem=  6710886400 cpu:               0.8 elap:               0.0
 (Enter /sw/apps/gaussian-16.0/g16/l9999.exe)
 1\1\GINC-BP1-COMPUTE082\SP\RZINDO CIS\STO-3G\C55H74Mg1N4O6\OF15641\30-
 Apr-2022\0\\#p ZINDO=(nstates=5)\\step_551_chromophore_1 ZINDO\\0,1\Mg
 ,0,-1.714,16.88,27.596\C,0,-2.089,14.767,30.441\C,0,-1.971,19.573,29.8
 16\C,0,-2.371,18.809,25.06\C,0,-1.714,14.116,25.589\N,0,-1.957,17.137,
 29.914\C,0,-2.155,16.115,30.834\C,0,-2.39,16.749,32.26\C,0,-2.621,18.3
 14,31.998\C,0,-2.063,18.38,30.524\C,0,-4.121,18.748,32.16\C,0,-1.167,1
 6.542,33.166\C,0,-1.372,17.111,34.543\C,0,-0.663,16.278,35.66\O,0,0.29

 Normal termination of Gaussian 16 at Sat Apr 30 02:31:39 2022.
