 Gaussian 16, Revision A.03,
 Gaussian 16:  ES64L-G16RevA.03 25-Dec-2016

 ------------------------------
 #p blyp/Def2SVP td=(nstates=5)
 ------------------------------

 ---------------------------------------------------
 step_1601_chromophore_25 TDDFT with blyp functional
 ---------------------------------------------------
 Symbolic Z-matrix:
 Charge =  0 Multiplicity = 1

                         Standard orientation:
 ---------------------------------------------------------------------
 Center     Atomic      Atomic             Coordinates (Angstroms)
 Number     Number       Type             X           Y           Z
 ---------------------------------------------------------------------
      1         12           0        6.053936    0.398734    0.283704
      2          6           0        3.760081   -2.270066    0.232242
      3          6           0        3.491278    2.435502   -0.609431
      4          6           0        8.367129    2.827018   -0.528929
      5          6           0        8.721804   -1.844210    0.715884
      6          7           0        3.888525    0.039728   -0.117557
      7          6           0        3.086207   -1.046193    0.141042
      8          6           0        1.609794   -0.758024   -0.033150
      9          6           0        1.586129    0.804745   -0.346387
     10          6           0        3.086341    1.134434   -0.363719
     11          6           0        0.590668    1.246492   -1.406845
     12          6           0        0.770852   -1.265570    1.182508
     13          6           0       -0.352484   -2.293600    0.907456
     14          6           0       -1.747284   -1.920551    1.337959
     15          8           0       -2.074023   -1.808202    2.487124
     16          8           0       -2.530361   -1.653763    0.215278
     17          7           0        5.877653    2.368095   -0.255886
     18          6           0        4.720749    3.080467   -0.469107
     19          6           0        5.022098    4.511995   -0.608900
     20          6           0        6.457086    4.586271   -0.576083
     21          6           0        6.993077    3.215625   -0.482166
     22          6           0        3.928460    5.592597   -0.774935
     23          6           0        7.312491    5.819526   -0.518026
     24          8           0        8.503071    5.693396   -0.228835
     25          6           0        6.741788    7.176232   -0.820631
     26          7           0        8.275274    0.502056    0.035657
     27          6           0        8.912622    1.595900   -0.332758
     28          6           0       10.437360    1.437342   -0.093292
     29          6           0       10.532523   -0.037762    0.463223
     30          6           0        9.103689   -0.501648    0.472974
     31          6           0       11.072316    1.564235   -1.462971
     32          6           0       11.121804   -0.050062    1.901668
     33          6           0       10.226734    0.436248    3.044971
     34          7           0        6.246161   -1.603794    0.501656
     35          6           0        7.399029   -2.367504    0.676378
     36          6           0        7.030421   -3.763314    0.542963
     37          6           0        5.622595   -3.723024    0.443205
     38          6           0        5.204415   -2.413307    0.412804
     39          6           0        7.927357   -5.011333    0.501069
     40          6           0        4.477337   -4.620262    0.271507
     41          8           0        4.367565   -5.822009    0.259921
     42          6           0        3.197154   -3.608838    0.267907
     43          6           0        2.570723   -3.923766   -0.996921
     44          8           0        2.860000   -3.437249   -2.105699
     45          8           0        1.507864   -4.723860   -0.792266
     46          6           0        0.483924   -4.766378   -1.852177
     47          6           0       -3.799682   -1.053796    0.519777
     48          6           0       -4.703731   -1.138937   -0.702762
     49          6           0       -6.048471   -1.099166   -0.561708
     50          6           0       -6.838220   -0.860142    0.741025
     51          6           0       -6.961556   -1.363545   -1.756760
     52          6           0       -7.636363   -0.135105   -2.372931
     53          6           0       -9.150963    0.075830   -1.788599
     54          6           0      -10.214803    0.102515   -2.966038
     55          6           0      -10.343079    1.567367   -3.515383
     56          6           0      -11.535703   -0.603102   -2.583544
     57          6           0      -12.015432   -0.112728   -1.155465
     58          6           0      -13.525868    0.375691   -1.204899
     59          6           0      -14.404851    0.047684    0.101814
     60          6           0      -15.542958   -0.902242   -0.185836
     61          6           0      -14.808494    1.306081    0.900998
     62          6           0      -14.094420    1.288234    2.299468
     63          6           0      -13.240660    2.523351    2.688991
     64          6           0      -11.796298    2.038387    2.879221
     65          6           0      -11.500081    1.518727    4.331740
     66          6           0      -10.789818    3.054239    2.392870
     67          1           0        2.636811    3.092081   -0.785890
     68          1           0        9.109571    3.599173   -0.740755
     69          1           0        9.569118   -2.530876    0.654503
     70          1           0        1.280799   -1.299970   -0.920232
     71          1           0        1.224939    1.224701    0.593298
     72          1           0       -0.109293    1.920568   -0.911411
     73          1           0        0.079271    0.419548   -1.898940
     74          1           0        0.968227    1.811765   -2.260017
     75          1           0        0.361184   -0.397382    1.698818
     76          1           0        1.348049   -1.800722    1.937029
     77          1           0        0.020048   -3.066985    1.579600
     78          1           0       -0.414929   -2.554341   -0.149023
     79          1           0        2.963920    5.086200   -0.755522
     80          1           0        4.033184    5.972177   -1.790619
     81          1           0        3.966408    6.332021    0.025989
     82          1           0        6.232842    7.126548   -1.782704
     83          1           0        7.578676    7.874353   -0.835064
     84          1           0        6.094466    7.492324   -0.001668
     85          1           0       10.635993    2.230835    0.628292
     86          1           0       11.124216   -0.699657   -0.169337
     87          1           0       11.812632    2.363548   -1.427091
     88          1           0       10.302326    1.721205   -2.217535
     89          1           0       11.475568    0.573421   -1.675473
     90          1           0       11.972737    0.624242    1.806610
     91          1           0       11.588743   -0.991688    2.190994
     92          1           0        9.316803    0.942203    2.720549
     93          1           0       10.835295    1.089196    3.670038
     94          1           0       10.007872   -0.401951    3.706882
     95          1           0        7.493089   -5.968040    0.210028
     96          1           0        8.414476   -5.009580    1.476227
     97          1           0        8.784270   -4.805761   -0.140256
     98          1           0        2.436797   -3.699371    1.043920
     99          1           0        0.121687   -3.775319   -2.122424
    100          1           0       -0.334879   -5.408897   -1.527721
    101          1           0        0.969826   -5.268295   -2.689180
    102          1           0       -3.780207   -0.083192    1.014362
    103          1           0       -4.386742   -1.547501    1.293666
    104          1           0       -4.386180   -1.636379   -1.618105
    105          1           0       -6.312764   -0.843885    1.696537
    106          1           0       -7.420514   -1.769425    0.892467
    107          1           0       -7.478059    0.008939    0.593532
    108          1           0       -7.673796   -2.154934   -1.523051
    109          1           0       -6.307669   -1.723235   -2.551679
    110          1           0       -7.480017   -0.109899   -3.450947
    111          1           0       -7.096340    0.712755   -1.951497
    112          1           0       -9.261923    0.944379   -1.138844
    113          1           0       -9.315922   -0.704544   -1.046664
    114          1           0       -9.863994   -0.407355   -3.862713
    115          1           0      -10.027600    1.717784   -4.548476
    116          1           0       -9.881802    2.292875   -2.844300
    117          1           0      -11.362401    1.952655   -3.490354
    118          1           0      -11.459212   -1.690492   -2.559538
    119          1           0      -12.233893   -0.376015   -3.389240
    120          1           0      -11.410967    0.684977   -0.722376
    121          1           0      -11.847917   -0.939014   -0.464787
    122          1           0      -13.911144   -0.113519   -2.100063
    123          1           0      -13.465816    1.444227   -1.413413
    124          1           0      -13.709507   -0.558378    0.682858
    125          1           0      -15.290288   -1.958983   -0.112732
    126          1           0      -15.823877   -0.579235   -1.188526
    127          1           0      -16.364951   -0.642478    0.481328
    128          1           0      -15.893645    1.334133    1.002949
    129          1           0      -14.504851    2.236752    0.420871
    130          1           0      -13.506959    0.383030    2.451038
    131          1           0      -14.891237    1.263521    3.042083
    132          1           0      -13.591694    3.110558    3.537057
    133          1           0      -13.290059    3.195662    1.833394
    134          1           0      -11.621932    1.144920    2.279265
    135          1           0      -11.203676    0.470136    4.293517
    136          1           0      -12.417579    1.673301    4.899753
    137          1           0      -10.705917    2.167245    4.701088
    138          1           0       -9.777488    2.930719    2.777926
    139          1           0      -11.094732    4.083939    2.578038
    140          1           0      -10.669793    2.903397    1.320062
 ---------------------------------------------------------------------

 SCF Done:  E(RB-LYP) =  -3007.35536092     A.U. after   21 cycles

 Excitation energies and oscillator strengths:

 Excited State   1:      Singlet-A      1.8071 eV  686.08 nm  f=0.2411  <S**2>=0.000
     245 -> 248       -0.19792
     246 -> 247        0.67121
     246 <- 247       -0.13543
 This state for optimization and/or second-order correction.
 Total Energy, E(TD-HF/TD-DFT) =  -3007.28894967
 Copying the excited state density for this state as the 1-particle RhoCI density.

 Excited State   2:      Singlet-A      1.9595 eV  632.73 nm  f=0.0748  <S**2>=0.000
     243 -> 247       -0.11246
     244 -> 247        0.37357
     245 -> 247        0.53910
     246 -> 247       -0.11792
     246 -> 248        0.18392

 Excited State   3:      Singlet-A      2.0321 eV  610.14 nm  f=0.0250  <S**2>=0.000
     243 -> 247        0.16795
     244 -> 247        0.58706
     245 -> 247       -0.31975
     246 -> 248       -0.12122

 Excited State   4:      Singlet-A      2.1357 eV  580.52 nm  f=0.0116  <S**2>=0.000
     243 -> 247        0.67246
     245 -> 247        0.16160

 Excited State   5:      Singlet-A      2.4044 eV  515.66 nm  f=0.0001  <S**2>=0.000
     242 -> 247        0.70618

 The electronic state is 1-A.
 Alpha  occ. eigenvalues --  -46.26642 -18.82931 -18.81577 -18.77677 -18.76361
 Alpha  occ. eigenvalues --  -18.75554 -18.75371 -14.03051 -14.02334 -14.01077
 Alpha  occ. eigenvalues --  -14.00728 -10.04293 -10.02941 -10.00053  -9.99650
 Alpha  occ. eigenvalues --   -9.97946  -9.97838  -9.96392  -9.96227  -9.96214
 Alpha  occ. eigenvalues --   -9.95975  -9.95650  -9.95529  -9.95094  -9.94468
 Alpha  occ. eigenvalues --   -9.94364  -9.94348  -9.94206  -9.93936  -9.93835
 Alpha  occ. eigenvalues --   -9.93473  -9.93385  -9.93365  -9.93290  -9.93152
 Alpha  occ. eigenvalues --   -9.93012  -9.92981  -9.92847  -9.92831  -9.92800
 Alpha  occ. eigenvalues --   -9.92760  -9.92510  -9.92463  -9.92381  -9.92332
 Alpha  occ. eigenvalues --   -9.92259  -9.92150  -9.92115  -9.92030  -9.91957
 Alpha  occ. eigenvalues --   -9.91748  -9.91656  -9.91561  -9.91544  -9.91543
 Alpha  occ. eigenvalues --   -9.91527  -9.91457  -9.91310  -9.91253  -9.91058
 Alpha  occ. eigenvalues --   -9.91054  -9.90915  -9.90839  -9.90645  -9.90609
 Alpha  occ. eigenvalues --   -9.90507  -2.91319  -1.71734  -1.71219  -1.71024
 Alpha  occ. eigenvalues --   -0.98594  -0.97537  -0.92359  -0.91674  -0.91193
 Alpha  occ. eigenvalues --   -0.88261  -0.86582  -0.85920  -0.85218  -0.83771
 Alpha  occ. eigenvalues --   -0.75599  -0.73630  -0.73049  -0.72785  -0.72307
 Alpha  occ. eigenvalues --   -0.71759  -0.71623  -0.71083  -0.70677  -0.69843
 Alpha  occ. eigenvalues --   -0.69526  -0.69319  -0.67964  -0.67780  -0.67036
 Alpha  occ. eigenvalues --   -0.66213  -0.65886  -0.65420  -0.64989  -0.64585
 Alpha  occ. eigenvalues --   -0.63997  -0.62774  -0.62444  -0.61701  -0.60889
 Alpha  occ. eigenvalues --   -0.60749  -0.60230  -0.59639  -0.59489  -0.59212
 Alpha  occ. eigenvalues --   -0.58465  -0.57784  -0.56520  -0.55722  -0.54738
 Alpha  occ. eigenvalues --   -0.53802  -0.53739  -0.52741  -0.52385  -0.51701
 Alpha  occ. eigenvalues --   -0.51424  -0.51121  -0.50955  -0.50717  -0.50367
 Alpha  occ. eigenvalues --   -0.49854  -0.48665  -0.48350  -0.47879  -0.46248
 Alpha  occ. eigenvalues --   -0.46070  -0.45956  -0.45845  -0.44946  -0.44356
 Alpha  occ. eigenvalues --   -0.43989  -0.43422  -0.42830  -0.42633  -0.42354
 Alpha  occ. eigenvalues --   -0.42090  -0.41943  -0.41464  -0.41316  -0.41294
 Alpha  occ. eigenvalues --   -0.40922  -0.40832  -0.40283  -0.40193  -0.40069
 Alpha  occ. eigenvalues --   -0.39919  -0.39612  -0.39517  -0.39371  -0.39107
 Alpha  occ. eigenvalues --   -0.38789  -0.38652  -0.38431  -0.38248  -0.38169
 Alpha  occ. eigenvalues --   -0.38118  -0.37829  -0.37720  -0.37548  -0.37266
 Alpha  occ. eigenvalues --   -0.37111  -0.37022  -0.36880  -0.36605  -0.36518
 Alpha  occ. eigenvalues --   -0.36350  -0.36207  -0.36110  -0.35877  -0.35668
 Alpha  occ. eigenvalues --   -0.35447  -0.35320  -0.35142  -0.34792  -0.34762
 Alpha  occ. eigenvalues --   -0.34455  -0.34400  -0.34298  -0.34085  -0.33896
 Alpha  occ. eigenvalues --   -0.33784  -0.33543  -0.33427  -0.33346  -0.33182
 Alpha  occ. eigenvalues --   -0.33117  -0.32919  -0.32800  -0.32295  -0.32191
 Alpha  occ. eigenvalues --   -0.32064  -0.32011  -0.31955  -0.31737  -0.31685
 Alpha  occ. eigenvalues --   -0.31582  -0.31391  -0.31361  -0.31175  -0.31047
 Alpha  occ. eigenvalues --   -0.30797  -0.30567  -0.30153  -0.30022  -0.29774
 Alpha  occ. eigenvalues --   -0.29601  -0.29206  -0.29034  -0.29002  -0.28705
 Alpha  occ. eigenvalues --   -0.28671  -0.28308  -0.28189  -0.28167  -0.28003
 Alpha  occ. eigenvalues --   -0.27775  -0.27304  -0.27301  -0.26427  -0.26262
 Alpha  occ. eigenvalues --   -0.26167  -0.26073  -0.26024  -0.25740  -0.25219
 Alpha  occ. eigenvalues --   -0.24979  -0.24647  -0.24448  -0.23506  -0.23337
 Alpha  occ. eigenvalues --   -0.22785  -0.22536  -0.21827  -0.20928  -0.20475
 Alpha  occ. eigenvalues --   -0.20239  -0.20148  -0.19011  -0.18582  -0.16857
 Alpha  occ. eigenvalues --   -0.15723
 Alpha virt. eigenvalues --   -0.11312  -0.06910  -0.05873  -0.04628  -0.03542
 Alpha virt. eigenvalues --   -0.02384  -0.02104  -0.01892  -0.01406  -0.00049
 Alpha virt. eigenvalues --    0.00656   0.01552   0.01927   0.02540   0.02763

 Mulliken charges:
               1
     1  Mg   0.693008
     2  C    0.006028
     3  C   -0.059102
     4  C   -0.019415
     5  C   -0.068930
     6  N   -0.220537
     7  C   -0.066314
     8  C    0.002352
     9  C    0.037974
    10  C    0.026064
    11  C    0.144041
    12  C    0.101320
    13  C    0.139662
    14  C    0.052076
    15  O   -0.163420
    16  O   -0.269008
    17  N   -0.335110
    18  C    0.144587
    19  C   -0.154861
    20  C    0.029132
    21  C    0.127944
    22  C    0.186967
    23  C   -0.103403
    24  O   -0.179108
    25  C    0.154809
    26  N   -0.171128
    27  C   -0.029477
    28  C   -0.045142
    29  C    0.077413
    30  C   -0.018753
    31  C    0.163191
    32  C    0.060560
    33  C    0.080749
    34  N   -0.274986
    35  C    0.136434
    36  C   -0.195083
    37  C    0.075081
    38  C    0.103456
    39  C    0.196995
    40  C   -0.031961
    41  O   -0.104359
    42  C    0.036967
    43  C    0.087540
    44  O   -0.216922
    45  O   -0.257699
    46  C    0.224131
    47  C    0.303505
    48  C   -0.049534
    49  C   -0.186567
    50  C    0.134978
    51  C    0.122245
    52  C    0.099741
    53  C    0.056295
    54  C   -0.053001
    55  C    0.091826
    56  C    0.097545
    57  C    0.006346
    58  C    0.093500
    59  C   -0.085548
    60  C    0.123692
    61  C    0.141259
    62  C    0.049589
    63  C    0.118301
    64  C   -0.137050
    65  C    0.121893
    66  C    0.105928
    67  H   -0.079787
    68  H   -0.041106
    69  H   -0.051982
    70  H   -0.000952
    71  H   -0.024528
    72  H   -0.010818
    73  H   -0.002790
    74  H   -0.007885
    75  H   -0.019097
    76  H   -0.010381
    77  H    0.000023
    78  H   -0.007419
    79  H   -0.023878
    80  H    0.009909
    81  H    0.014934
    82  H    0.010369
    83  H   -0.008436
    84  H    0.007959
    85  H   -0.004772
    86  H   -0.030277
    87  H    0.006065
    88  H    0.000163
    89  H   -0.026027
    90  H   -0.028353
    91  H   -0.029640
    92  H    0.013423
    93  H   -0.015865
    94  H   -0.009450
    95  H    0.020524
    96  H   -0.009081
    97  H   -0.018304
    98  H   -0.007717
    99  H    0.023997
   100  H    0.013861
   101  H    0.016698
   102  H   -0.012773
   103  H   -0.008990
   104  H   -0.033761
   105  H   -0.014228
   106  H   -0.006575
   107  H    0.012818
   108  H   -0.019456
   109  H   -0.050465
   110  H   -0.012306
   111  H   -0.034711
   112  H   -0.016699
   113  H   -0.034561
   114  H   -0.039949
   115  H   -0.006892
   116  H   -0.024528
   117  H   -0.031314
   118  H   -0.028608
   119  H   -0.025849
   120  H   -0.012400
   121  H   -0.028610
   122  H   -0.033432
   123  H   -0.029046
   124  H   -0.033777
   125  H   -0.005909
   126  H   -0.019069
   127  H   -0.025574
   128  H   -0.035276
   129  H   -0.035466
   130  H   -0.019991
   131  H   -0.042249
   132  H   -0.027538
   133  H   -0.045897
   134  H   -0.033296
   135  H   -0.008229
   136  H   -0.019159
   137  H   -0.019946
   138  H   -0.029440
   139  H   -0.013909
   140  H   -0.021026
 Sum of Mulliken charges =  -0.00000

 Dipole moment (field-independent basis, Debye):
    X=             -2.9073    Y=              3.5312    Z=             -0.0556  Tot=              4.5744
 Quadrupole moment (field-independent basis, Debye-Ang):
   XX=           -379.4970   YY=           -421.6967   ZZ=           -411.7696
   XY=              0.1118   XZ=             14.6785   YZ=              0.5003

 Normal termination of Gaussian 16 at Wed May  4 10:57:20 2022.
