 Gaussian 16, Revision A.03,
 Gaussian 16:  ES64L-G16RevA.03 25-Dec-2016

 -----------------------------------
 #p cam-b3lyp/Def2SVP td=(nstates=5)
 -----------------------------------

 --------------------------------------------------------
 step_1601_chromophore_25 TDDFT with cam-b3lyp functional
 --------------------------------------------------------
 Symbolic Z-matrix:
 Charge =  0 Multiplicity = 1

                         Standard orientation:
 ---------------------------------------------------------------------
 Center     Atomic      Atomic             Coordinates (Angstroms)
 Number     Number       Type             X           Y           Z
 ---------------------------------------------------------------------
      1         12           0        6.053936    0.398734    0.283704
      2          6           0        3.760081   -2.270066    0.232242
      3          6           0        3.491278    2.435502   -0.609431
      4          6           0        8.367129    2.827018   -0.528929
      5          6           0        8.721804   -1.844210    0.715884
      6          7           0        3.888525    0.039728   -0.117557
      7          6           0        3.086207   -1.046193    0.141042
      8          6           0        1.609794   -0.758024   -0.033150
      9          6           0        1.586129    0.804745   -0.346387
     10          6           0        3.086341    1.134434   -0.363719
     11          6           0        0.590668    1.246492   -1.406845
     12          6           0        0.770852   -1.265570    1.182508
     13          6           0       -0.352484   -2.293600    0.907456
     14          6           0       -1.747284   -1.920551    1.337959
     15          8           0       -2.074023   -1.808202    2.487124
     16          8           0       -2.530361   -1.653763    0.215278
     17          7           0        5.877653    2.368095   -0.255886
     18          6           0        4.720749    3.080467   -0.469107
     19          6           0        5.022098    4.511995   -0.608900
     20          6           0        6.457086    4.586271   -0.576083
     21          6           0        6.993077    3.215625   -0.482166
     22          6           0        3.928460    5.592597   -0.774935
     23          6           0        7.312491    5.819526   -0.518026
     24          8           0        8.503071    5.693396   -0.228835
     25          6           0        6.741788    7.176232   -0.820631
     26          7           0        8.275274    0.502056    0.035657
     27          6           0        8.912622    1.595900   -0.332758
     28          6           0       10.437360    1.437342   -0.093292
     29          6           0       10.532523   -0.037762    0.463223
     30          6           0        9.103689   -0.501648    0.472974
     31          6           0       11.072316    1.564235   -1.462971
     32          6           0       11.121804   -0.050062    1.901668
     33          6           0       10.226734    0.436248    3.044971
     34          7           0        6.246161   -1.603794    0.501656
     35          6           0        7.399029   -2.367504    0.676378
     36          6           0        7.030421   -3.763314    0.542963
     37          6           0        5.622595   -3.723024    0.443205
     38          6           0        5.204415   -2.413307    0.412804
     39          6           0        7.927357   -5.011333    0.501069
     40          6           0        4.477337   -4.620262    0.271507
     41          8           0        4.367565   -5.822009    0.259921
     42          6           0        3.197154   -3.608838    0.267907
     43          6           0        2.570723   -3.923766   -0.996921
     44          8           0        2.860000   -3.437249   -2.105699
     45          8           0        1.507864   -4.723860   -0.792266
     46          6           0        0.483924   -4.766378   -1.852177
     47          6           0       -3.799682   -1.053796    0.519777
     48          6           0       -4.703731   -1.138937   -0.702762
     49          6           0       -6.048471   -1.099166   -0.561708
     50          6           0       -6.838220   -0.860142    0.741025
     51          6           0       -6.961556   -1.363545   -1.756760
     52          6           0       -7.636363   -0.135105   -2.372931
     53          6           0       -9.150963    0.075830   -1.788599
     54          6           0      -10.214803    0.102515   -2.966038
     55          6           0      -10.343079    1.567367   -3.515383
     56          6           0      -11.535703   -0.603102   -2.583544
     57          6           0      -12.015432   -0.112728   -1.155465
     58          6           0      -13.525868    0.375691   -1.204899
     59          6           0      -14.404851    0.047684    0.101814
     60          6           0      -15.542958   -0.902242   -0.185836
     61          6           0      -14.808494    1.306081    0.900998
     62          6           0      -14.094420    1.288234    2.299468
     63          6           0      -13.240660    2.523351    2.688991
     64          6           0      -11.796298    2.038387    2.879221
     65          6           0      -11.500081    1.518727    4.331740
     66          6           0      -10.789818    3.054239    2.392870
     67          1           0        2.636811    3.092081   -0.785890
     68          1           0        9.109571    3.599173   -0.740755
     69          1           0        9.569118   -2.530876    0.654503
     70          1           0        1.280799   -1.299970   -0.920232
     71          1           0        1.224939    1.224701    0.593298
     72          1           0       -0.109293    1.920568   -0.911411
     73          1           0        0.079271    0.419548   -1.898940
     74          1           0        0.968227    1.811765   -2.260017
     75          1           0        0.361184   -0.397382    1.698818
     76          1           0        1.348049   -1.800722    1.937029
     77          1           0        0.020048   -3.066985    1.579600
     78          1           0       -0.414929   -2.554341   -0.149023
     79          1           0        2.963920    5.086200   -0.755522
     80          1           0        4.033184    5.972177   -1.790619
     81          1           0        3.966408    6.332021    0.025989
     82          1           0        6.232842    7.126548   -1.782704
     83          1           0        7.578676    7.874353   -0.835064
     84          1           0        6.094466    7.492324   -0.001668
     85          1           0       10.635993    2.230835    0.628292
     86          1           0       11.124216   -0.699657   -0.169337
     87          1           0       11.812632    2.363548   -1.427091
     88          1           0       10.302326    1.721205   -2.217535
     89          1           0       11.475568    0.573421   -1.675473
     90          1           0       11.972737    0.624242    1.806610
     91          1           0       11.588743   -0.991688    2.190994
     92          1           0        9.316803    0.942203    2.720549
     93          1           0       10.835295    1.089196    3.670038
     94          1           0       10.007872   -0.401951    3.706882
     95          1           0        7.493089   -5.968040    0.210028
     96          1           0        8.414476   -5.009580    1.476227
     97          1           0        8.784270   -4.805761   -0.140256
     98          1           0        2.436797   -3.699371    1.043920
     99          1           0        0.121687   -3.775319   -2.122424
    100          1           0       -0.334879   -5.408897   -1.527721
    101          1           0        0.969826   -5.268295   -2.689180
    102          1           0       -3.780207   -0.083192    1.014362
    103          1           0       -4.386742   -1.547501    1.293666
    104          1           0       -4.386180   -1.636379   -1.618105
    105          1           0       -6.312764   -0.843885    1.696537
    106          1           0       -7.420514   -1.769425    0.892467
    107          1           0       -7.478059    0.008939    0.593532
    108          1           0       -7.673796   -2.154934   -1.523051
    109          1           0       -6.307669   -1.723235   -2.551679
    110          1           0       -7.480017   -0.109899   -3.450947
    111          1           0       -7.096340    0.712755   -1.951497
    112          1           0       -9.261923    0.944379   -1.138844
    113          1           0       -9.315922   -0.704544   -1.046664
    114          1           0       -9.863994   -0.407355   -3.862713
    115          1           0      -10.027600    1.717784   -4.548476
    116          1           0       -9.881802    2.292875   -2.844300
    117          1           0      -11.362401    1.952655   -3.490354
    118          1           0      -11.459212   -1.690492   -2.559538
    119          1           0      -12.233893   -0.376015   -3.389240
    120          1           0      -11.410967    0.684977   -0.722376
    121          1           0      -11.847917   -0.939014   -0.464787
    122          1           0      -13.911144   -0.113519   -2.100063
    123          1           0      -13.465816    1.444227   -1.413413
    124          1           0      -13.709507   -0.558378    0.682858
    125          1           0      -15.290288   -1.958983   -0.112732
    126          1           0      -15.823877   -0.579235   -1.188526
    127          1           0      -16.364951   -0.642478    0.481328
    128          1           0      -15.893645    1.334133    1.002949
    129          1           0      -14.504851    2.236752    0.420871
    130          1           0      -13.506959    0.383030    2.451038
    131          1           0      -14.891237    1.263521    3.042083
    132          1           0      -13.591694    3.110558    3.537057
    133          1           0      -13.290059    3.195662    1.833394
    134          1           0      -11.621932    1.144920    2.279265
    135          1           0      -11.203676    0.470136    4.293517
    136          1           0      -12.417579    1.673301    4.899753
    137          1           0      -10.705917    2.167245    4.701088
    138          1           0       -9.777488    2.930719    2.777926
    139          1           0      -11.094732    4.083939    2.578038
    140          1           0      -10.669793    2.903397    1.320062
 ---------------------------------------------------------------------

 SCF Done:  E(RCAM-B3LYP) =  -3007.15026194     A.U. after   19 cycles

 Excitation energies and oscillator strengths:

 Excited State   1:      Singlet-A      1.7286 eV  717.26 nm  f=0.3438  <S**2>=0.000
     245 -> 248        0.18932
     246 -> 247        0.68241
     245 <- 248        0.10793
 This state for optimization and/or second-order correction.
 Total Energy, E(TD-HF/TD-DFT) =  -3007.08673748
 Copying the excited state density for this state as the 1-particle RhoCI density.

 Excited State   2:      Singlet-A      2.1998 eV  563.63 nm  f=0.1330  <S**2>=0.000
     245 -> 247        0.64375
     246 -> 248       -0.27844

 Excited State   3:      Singlet-A      3.3888 eV  365.86 nm  f=0.0406  <S**2>=0.000
     241 -> 247       -0.11794
     242 -> 247        0.50783
     244 -> 247       -0.38360
     246 -> 248        0.23874

 Excited State   4:      Singlet-A      3.5016 eV  354.08 nm  f=0.2613  <S**2>=0.000
     241 -> 247       -0.10372
     244 -> 247        0.46983
     245 -> 247        0.16989
     246 -> 248        0.45187

 Excited State   5:      Singlet-A      3.5825 eV  346.08 nm  f=0.0945  <S**2>=0.000
     239 -> 247        0.29853
     239 -> 248        0.10844
     239 -> 249        0.18874
     239 -> 250        0.13674
     240 -> 247        0.35961
     240 -> 249        0.15532
     241 -> 247        0.14975
     242 -> 247       -0.22190
     244 -> 247       -0.20504
     245 -> 247        0.10392
     246 -> 248        0.14924

 The electronic state is 1-A.
 Alpha  occ. eigenvalues --  -46.88130 -19.25833 -19.24524 -19.20764 -19.19298
 Alpha  occ. eigenvalues --  -19.18877 -19.18571 -14.41915 -14.41124 -14.39664
 Alpha  occ. eigenvalues --  -14.38903 -10.39632 -10.38303 -10.35252 -10.35095
 Alpha  occ. eigenvalues --  -10.31963 -10.31874 -10.31086 -10.30993 -10.30498
 Alpha  occ. eigenvalues --  -10.30342 -10.30116 -10.29570 -10.29370 -10.29352
 Alpha  occ. eigenvalues --  -10.28496 -10.28422 -10.28199 -10.28029 -10.27863
 Alpha  occ. eigenvalues --  -10.27530 -10.27511 -10.27369 -10.27338 -10.27336
 Alpha  occ. eigenvalues --  -10.27172 -10.27040 -10.27025 -10.26888 -10.26559
 Alpha  occ. eigenvalues --  -10.26550 -10.26550 -10.26510 -10.26291 -10.26018
 Alpha  occ. eigenvalues --  -10.25943 -10.25937 -10.25920 -10.25888 -10.25885
 Alpha  occ. eigenvalues --  -10.25686 -10.25291 -10.25275 -10.25260 -10.25233
 Alpha  occ. eigenvalues --  -10.25216 -10.25041 -10.25019 -10.25000 -10.24721
 Alpha  occ. eigenvalues --  -10.24688 -10.24589 -10.24449 -10.24248 -10.24175
 Alpha  occ. eigenvalues --  -10.24175  -3.16713  -1.91603  -1.91168  -1.91022
 Alpha  occ. eigenvalues --   -1.17128  -1.16050  -1.10570  -1.09864  -1.09635
 Alpha  occ. eigenvalues --   -1.06147  -1.04125  -1.03489  -1.02778  -1.01445
 Alpha  occ. eigenvalues --   -0.92620  -0.90520  -0.89830  -0.89588  -0.88981
 Alpha  occ. eigenvalues --   -0.88466  -0.88253  -0.87679  -0.87258  -0.86754
 Alpha  occ. eigenvalues --   -0.85980  -0.85545  -0.84185  -0.83876  -0.83180
 Alpha  occ. eigenvalues --   -0.82319  -0.82180  -0.81332  -0.80827  -0.80463
 Alpha  occ. eigenvalues --   -0.79733  -0.78425  -0.78228  -0.77117  -0.76282
 Alpha  occ. eigenvalues --   -0.76132  -0.75616  -0.74840  -0.74786  -0.74481
 Alpha  occ. eigenvalues --   -0.73534  -0.72756  -0.71400  -0.70519  -0.69305
 Alpha  occ. eigenvalues --   -0.68440  -0.68354  -0.67170  -0.66752  -0.66050
 Alpha  occ. eigenvalues --   -0.65646  -0.65095  -0.64834  -0.64686  -0.64396
 Alpha  occ. eigenvalues --   -0.63922  -0.62576  -0.62167  -0.61458  -0.59763
 Alpha  occ. eigenvalues --   -0.59627  -0.59542  -0.59442  -0.58167  -0.57839
 Alpha  occ. eigenvalues --   -0.57448  -0.56866  -0.55962  -0.55655  -0.55589
 Alpha  occ. eigenvalues --   -0.55349  -0.55095  -0.54795  -0.54246  -0.54080
 Alpha  occ. eigenvalues --   -0.53915  -0.53621  -0.53170  -0.52987  -0.52916
 Alpha  occ. eigenvalues --   -0.52597  -0.52437  -0.52048  -0.51933  -0.51705
 Alpha  occ. eigenvalues --   -0.51272  -0.51040  -0.50881  -0.50725  -0.50671
 Alpha  occ. eigenvalues --   -0.50469  -0.50242  -0.50022  -0.49758  -0.49650
 Alpha  occ. eigenvalues --   -0.49410  -0.49253  -0.49217  -0.49043  -0.48840
 Alpha  occ. eigenvalues --   -0.48784  -0.48499  -0.48332  -0.48292  -0.47941
 Alpha  occ. eigenvalues --   -0.47738  -0.47294  -0.47156  -0.46803  -0.46602
 Alpha  occ. eigenvalues --   -0.46483  -0.46166  -0.46128  -0.45999  -0.45726
 Alpha  occ. eigenvalues --   -0.45498  -0.45295  -0.45132  -0.45045  -0.44944
 Alpha  occ. eigenvalues --   -0.44850  -0.44704  -0.44513  -0.44039  -0.43858
 Alpha  occ. eigenvalues --   -0.43767  -0.43550  -0.43505  -0.43401  -0.43289
 Alpha  occ. eigenvalues --   -0.43086  -0.42900  -0.42807  -0.42677  -0.42519
 Alpha  occ. eigenvalues --   -0.42265  -0.41856  -0.41634  -0.41262  -0.40988
 Alpha  occ. eigenvalues --   -0.40933  -0.40763  -0.40269  -0.40210  -0.40149
 Alpha  occ. eigenvalues --   -0.39701  -0.39240  -0.39130  -0.39047  -0.39001
 Alpha  occ. eigenvalues --   -0.38685  -0.38187  -0.38140  -0.37646  -0.37576
 Alpha  occ. eigenvalues --   -0.37123  -0.36858  -0.36508  -0.36371  -0.36308
 Alpha  occ. eigenvalues --   -0.35984  -0.35612  -0.35216  -0.34652  -0.33671
 Alpha  occ. eigenvalues --   -0.33634  -0.33386  -0.32846  -0.31436  -0.30827
 Alpha  occ. eigenvalues --   -0.30398  -0.29888  -0.29777  -0.29402  -0.23509
 Alpha  occ. eigenvalues --   -0.21086
 Alpha virt. eigenvalues --   -0.08396  -0.01653   0.00645   0.02405   0.02660
 Alpha virt. eigenvalues --    0.04047   0.05354   0.05691   0.06110   0.06463
 Alpha virt. eigenvalues --    0.07033   0.07924   0.08498   0.08715   0.09197

 Mulliken charges:
               1
     1  Mg   0.824944
     2  C   -0.007881
     3  C   -0.077692
     4  C   -0.037290
     5  C   -0.068296
     6  N   -0.288084
     7  C   -0.024302
     8  C   -0.045439
     9  C   -0.018672
    10  C    0.053105
    11  C    0.079290
    12  C    0.050567
    13  C    0.067969
    14  C    0.139617
    15  O   -0.203076
    16  O   -0.334568
    17  N   -0.423900
    18  C    0.157041
    19  C   -0.160401
    20  C   -0.035987
    21  C    0.152229
    22  C    0.134710
    23  C   -0.023194
    24  O   -0.218557
    25  C    0.071782
    26  N   -0.238495
    27  C   -0.004125
    28  C   -0.103905
    29  C    0.017570
    30  C   -0.007708
    31  C    0.103222
    32  C    0.011583
    33  C    0.015538
    34  N   -0.366808
    35  C    0.135525
    36  C   -0.187796
    37  C   -0.010147
    38  C    0.138085
    39  C    0.141808
    40  C    0.066090
    41  O   -0.144334
    42  C   -0.052053
    43  C    0.181078
    44  O   -0.252777
    45  O   -0.319908
    46  C    0.182798
    47  C    0.268137
    48  C   -0.068622
    49  C   -0.205012
    50  C    0.071353
    51  C    0.060386
    52  C    0.045594
    53  C    0.002884
    54  C   -0.106930
    55  C    0.033269
    56  C    0.049197
    57  C   -0.044100
    58  C    0.047344
    59  C   -0.142811
    60  C    0.066572
    61  C    0.086270
    62  C   -0.003556
    63  C    0.060164
    64  C   -0.192371
    65  C    0.062573
    66  C    0.047819
    67  H   -0.046806
    68  H   -0.000543
    69  H   -0.017714
    70  H    0.029551
    71  H    0.010888
    72  H    0.013998
    73  H    0.023256
    74  H    0.018692
    75  H    0.011966
    76  H    0.021186
    77  H    0.032701
    78  H    0.020688
    79  H    0.005141
    80  H    0.036629
    81  H    0.040580
    82  H    0.037366
    83  H    0.028446
    84  H    0.036152
    85  H    0.029137
    86  H    0.005433
    87  H    0.030093
    88  H    0.026676
    89  H    0.000256
    90  H   -0.000416
    91  H   -0.000396
    92  H    0.032619
    93  H    0.008954
    94  H    0.015408
    95  H    0.047504
    96  H    0.015798
    97  H    0.005735
    98  H    0.033342
    99  H    0.042833
   100  H    0.038508
   101  H    0.043513
   102  H    0.015305
   103  H    0.018725
   104  H    0.001173
   105  H    0.011971
   106  H    0.018598
   107  H    0.033803
   108  H    0.009437
   109  H   -0.017570
   110  H    0.015305
   111  H   -0.004200
   112  H    0.006977
   113  H   -0.008017
   114  H   -0.007130
   115  H    0.017366
   116  H   -0.000220
   117  H   -0.007246
   118  H    0.000781
   119  H    0.001610
   120  H    0.008563
   121  H   -0.001663
   122  H   -0.005394
   123  H   -0.002957
   124  H   -0.003211
   125  H    0.018010
   126  H    0.003749
   127  H   -0.000979
   128  H   -0.004980
   129  H   -0.007655
   130  H    0.005874
   131  H   -0.011830
   132  H    0.001697
   133  H   -0.016070
   134  H   -0.004450
   135  H    0.014987
   136  H    0.004507
   137  H    0.004569
   138  H   -0.003717
   139  H    0.009770
   140  H    0.000013
 Sum of Mulliken charges =  -0.00000

 Dipole moment (field-independent basis, Debye):
    X=             -3.1704    Y=              4.6733    Z=             -0.2473  Tot=              5.6527
 Quadrupole moment (field-independent basis, Debye-Ang):
   XX=           -379.2014   YY=           -416.7151   ZZ=           -412.0950
   XY=              6.0275   XZ=             14.2568   YZ=              0.0204

 Normal termination of Gaussian 16 at Wed May  4 09:56:22 2022.
