 Gaussian 16, Revision A.03,
 Gaussian 16:  ES64L-G16RevA.03 25-Dec-2016

 ---------------------------------
 #p PBE1PBE/Def2SVP td=(nstates=5)
 ---------------------------------

 ------------------------------------------------------
 step_1601_chromophore_25 TDDFT with PBE1PBE functional
 ------------------------------------------------------
 Symbolic Z-matrix:
 Charge =  0 Multiplicity = 1

                         Standard orientation:
 ---------------------------------------------------------------------
 Center     Atomic      Atomic             Coordinates (Angstroms)
 Number     Number       Type             X           Y           Z
 ---------------------------------------------------------------------
      1         12           0        6.053936    0.398734    0.283704
      2          6           0        3.760081   -2.270066    0.232242
      3          6           0        3.491278    2.435502   -0.609431
      4          6           0        8.367129    2.827018   -0.528929
      5          6           0        8.721804   -1.844210    0.715884
      6          7           0        3.888525    0.039728   -0.117557
      7          6           0        3.086207   -1.046193    0.141042
      8          6           0        1.609794   -0.758024   -0.033150
      9          6           0        1.586129    0.804745   -0.346387
     10          6           0        3.086341    1.134434   -0.363719
     11          6           0        0.590668    1.246492   -1.406845
     12          6           0        0.770852   -1.265570    1.182508
     13          6           0       -0.352484   -2.293600    0.907456
     14          6           0       -1.747284   -1.920551    1.337959
     15          8           0       -2.074023   -1.808202    2.487124
     16          8           0       -2.530361   -1.653763    0.215278
     17          7           0        5.877653    2.368095   -0.255886
     18          6           0        4.720749    3.080467   -0.469107
     19          6           0        5.022098    4.511995   -0.608900
     20          6           0        6.457086    4.586271   -0.576083
     21          6           0        6.993077    3.215625   -0.482166
     22          6           0        3.928460    5.592597   -0.774935
     23          6           0        7.312491    5.819526   -0.518026
     24          8           0        8.503071    5.693396   -0.228835
     25          6           0        6.741788    7.176232   -0.820631
     26          7           0        8.275274    0.502056    0.035657
     27          6           0        8.912622    1.595900   -0.332758
     28          6           0       10.437360    1.437342   -0.093292
     29          6           0       10.532523   -0.037762    0.463223
     30          6           0        9.103689   -0.501648    0.472974
     31          6           0       11.072316    1.564235   -1.462971
     32          6           0       11.121804   -0.050062    1.901668
     33          6           0       10.226734    0.436248    3.044971
     34          7           0        6.246161   -1.603794    0.501656
     35          6           0        7.399029   -2.367504    0.676378
     36          6           0        7.030421   -3.763314    0.542963
     37          6           0        5.622595   -3.723024    0.443205
     38          6           0        5.204415   -2.413307    0.412804
     39          6           0        7.927357   -5.011333    0.501069
     40          6           0        4.477337   -4.620262    0.271507
     41          8           0        4.367565   -5.822009    0.259921
     42          6           0        3.197154   -3.608838    0.267907
     43          6           0        2.570723   -3.923766   -0.996921
     44          8           0        2.860000   -3.437249   -2.105699
     45          8           0        1.507864   -4.723860   -0.792266
     46          6           0        0.483924   -4.766378   -1.852177
     47          6           0       -3.799682   -1.053796    0.519777
     48          6           0       -4.703731   -1.138937   -0.702762
     49          6           0       -6.048471   -1.099166   -0.561708
     50          6           0       -6.838220   -0.860142    0.741025
     51          6           0       -6.961556   -1.363545   -1.756760
     52          6           0       -7.636363   -0.135105   -2.372931
     53          6           0       -9.150963    0.075830   -1.788599
     54          6           0      -10.214803    0.102515   -2.966038
     55          6           0      -10.343079    1.567367   -3.515383
     56          6           0      -11.535703   -0.603102   -2.583544
     57          6           0      -12.015432   -0.112728   -1.155465
     58          6           0      -13.525868    0.375691   -1.204899
     59          6           0      -14.404851    0.047684    0.101814
     60          6           0      -15.542958   -0.902242   -0.185836
     61          6           0      -14.808494    1.306081    0.900998
     62          6           0      -14.094420    1.288234    2.299468
     63          6           0      -13.240660    2.523351    2.688991
     64          6           0      -11.796298    2.038387    2.879221
     65          6           0      -11.500081    1.518727    4.331740
     66          6           0      -10.789818    3.054239    2.392870
     67          1           0        2.636811    3.092081   -0.785890
     68          1           0        9.109571    3.599173   -0.740755
     69          1           0        9.569118   -2.530876    0.654503
     70          1           0        1.280799   -1.299970   -0.920232
     71          1           0        1.224939    1.224701    0.593298
     72          1           0       -0.109293    1.920568   -0.911411
     73          1           0        0.079271    0.419548   -1.898940
     74          1           0        0.968227    1.811765   -2.260017
     75          1           0        0.361184   -0.397382    1.698818
     76          1           0        1.348049   -1.800722    1.937029
     77          1           0        0.020048   -3.066985    1.579600
     78          1           0       -0.414929   -2.554341   -0.149023
     79          1           0        2.963920    5.086200   -0.755522
     80          1           0        4.033184    5.972177   -1.790619
     81          1           0        3.966408    6.332021    0.025989
     82          1           0        6.232842    7.126548   -1.782704
     83          1           0        7.578676    7.874353   -0.835064
     84          1           0        6.094466    7.492324   -0.001668
     85          1           0       10.635993    2.230835    0.628292
     86          1           0       11.124216   -0.699657   -0.169337
     87          1           0       11.812632    2.363548   -1.427091
     88          1           0       10.302326    1.721205   -2.217535
     89          1           0       11.475568    0.573421   -1.675473
     90          1           0       11.972737    0.624242    1.806610
     91          1           0       11.588743   -0.991688    2.190994
     92          1           0        9.316803    0.942203    2.720549
     93          1           0       10.835295    1.089196    3.670038
     94          1           0       10.007872   -0.401951    3.706882
     95          1           0        7.493089   -5.968040    0.210028
     96          1           0        8.414476   -5.009580    1.476227
     97          1           0        8.784270   -4.805761   -0.140256
     98          1           0        2.436797   -3.699371    1.043920
     99          1           0        0.121687   -3.775319   -2.122424
    100          1           0       -0.334879   -5.408897   -1.527721
    101          1           0        0.969826   -5.268295   -2.689180
    102          1           0       -3.780207   -0.083192    1.014362
    103          1           0       -4.386742   -1.547501    1.293666
    104          1           0       -4.386180   -1.636379   -1.618105
    105          1           0       -6.312764   -0.843885    1.696537
    106          1           0       -7.420514   -1.769425    0.892467
    107          1           0       -7.478059    0.008939    0.593532
    108          1           0       -7.673796   -2.154934   -1.523051
    109          1           0       -6.307669   -1.723235   -2.551679
    110          1           0       -7.480017   -0.109899   -3.450947
    111          1           0       -7.096340    0.712755   -1.951497
    112          1           0       -9.261923    0.944379   -1.138844
    113          1           0       -9.315922   -0.704544   -1.046664
    114          1           0       -9.863994   -0.407355   -3.862713
    115          1           0      -10.027600    1.717784   -4.548476
    116          1           0       -9.881802    2.292875   -2.844300
    117          1           0      -11.362401    1.952655   -3.490354
    118          1           0      -11.459212   -1.690492   -2.559538
    119          1           0      -12.233893   -0.376015   -3.389240
    120          1           0      -11.410967    0.684977   -0.722376
    121          1           0      -11.847917   -0.939014   -0.464787
    122          1           0      -13.911144   -0.113519   -2.100063
    123          1           0      -13.465816    1.444227   -1.413413
    124          1           0      -13.709507   -0.558378    0.682858
    125          1           0      -15.290288   -1.958983   -0.112732
    126          1           0      -15.823877   -0.579235   -1.188526
    127          1           0      -16.364951   -0.642478    0.481328
    128          1           0      -15.893645    1.334133    1.002949
    129          1           0      -14.504851    2.236752    0.420871
    130          1           0      -13.506959    0.383030    2.451038
    131          1           0      -14.891237    1.263521    3.042083
    132          1           0      -13.591694    3.110558    3.537057
    133          1           0      -13.290059    3.195662    1.833394
    134          1           0      -11.621932    1.144920    2.279265
    135          1           0      -11.203676    0.470136    4.293517
    136          1           0      -12.417579    1.673301    4.899753
    137          1           0      -10.705917    2.167245    4.701088
    138          1           0       -9.777488    2.930719    2.777926
    139          1           0      -11.094732    4.083939    2.578038
    140          1           0      -10.669793    2.903397    1.320062
 ---------------------------------------------------------------------

 SCF Done:  E(RPBE1PBE) =  -3005.33900964     A.U. after   15 cycles

 Excitation energies and oscillator strengths:

 Excited State   1:      Singlet-A      1.8731 eV  661.93 nm  f=0.3282  <S**2>=0.000
     245 -> 248        0.18430
     246 -> 247        0.68791
 This state for optimization and/or second-order correction.
 Total Energy, E(TD-HF/TD-DFT) =  -3005.27017518
 Copying the excited state density for this state as the 1-particle RhoCI density.

 Excited State   2:      Singlet-A      2.2068 eV  561.83 nm  f=0.1265  <S**2>=0.000
     245 -> 247        0.65347
     246 -> 248       -0.25476

 Excited State   3:      Singlet-A      3.0558 eV  405.73 nm  f=0.0002  <S**2>=0.000
     241 -> 247       -0.11867
     242 -> 247       -0.16863
     243 -> 247        0.65348

 Excited State   4:      Singlet-A      3.1131 eV  398.27 nm  f=0.0017  <S**2>=0.000
     240 -> 247        0.62314
     240 -> 249       -0.11677
     242 -> 247        0.16683
     243 -> 247        0.13628

 Excited State   5:      Singlet-A      3.1570 eV  392.73 nm  f=0.0048  <S**2>=0.000
     241 -> 247        0.64092
     242 -> 247       -0.14105
     246 -> 248       -0.18362

 The electronic state is 1-A.
 Alpha  occ. eigenvalues --  -46.91551 -19.26552 -19.25170 -19.21017 -19.19687
 Alpha  occ. eigenvalues --  -19.18926 -19.18855 -14.41467 -14.40620 -14.39271
 Alpha  occ. eigenvalues --  -14.38694 -10.36671 -10.35342 -10.32570 -10.32048
 Alpha  occ. eigenvalues --  -10.29387 -10.29110 -10.28631 -10.28522 -10.28383
 Alpha  occ. eigenvalues --  -10.28043 -10.27774 -10.27382 -10.27157 -10.26815
 Alpha  occ. eigenvalues --  -10.26354 -10.26182 -10.26076 -10.25543 -10.25510
 Alpha  occ. eigenvalues --  -10.25288 -10.25288 -10.25082 -10.25024 -10.24984
 Alpha  occ. eigenvalues --  -10.24868 -10.24744 -10.24736 -10.24703 -10.24091
 Alpha  occ. eigenvalues --  -10.24024 -10.23972 -10.23961 -10.23666 -10.23619
 Alpha  occ. eigenvalues --  -10.23605 -10.23589 -10.23545 -10.23483 -10.23458
 Alpha  occ. eigenvalues --  -10.23262 -10.23008 -10.22898 -10.22839 -10.22800
 Alpha  occ. eigenvalues --  -10.22751 -10.22629 -10.22579 -10.22489 -10.22280
 Alpha  occ. eigenvalues --  -10.22156 -10.22155 -10.22088 -10.21834 -10.21625
 Alpha  occ. eigenvalues --  -10.21558  -3.13712  -1.86543  -1.86085  -1.85945
 Alpha  occ. eigenvalues --   -1.11953  -1.10839  -1.05487  -1.04532  -1.04413
 Alpha  occ. eigenvalues --   -1.00962  -0.98870  -0.98170  -0.97443  -0.95958
 Alpha  occ. eigenvalues --   -0.87075  -0.84678  -0.84049  -0.83677  -0.83297
 Alpha  occ. eigenvalues --   -0.82579  -0.82545  -0.81991  -0.81379  -0.80805
 Alpha  occ. eigenvalues --   -0.80265  -0.80022  -0.78411  -0.78238  -0.77437
 Alpha  occ. eigenvalues --   -0.76456  -0.76260  -0.75619  -0.75122  -0.74700
 Alpha  occ. eigenvalues --   -0.73945  -0.72666  -0.72496  -0.71482  -0.70604
 Alpha  occ. eigenvalues --   -0.70328  -0.69698  -0.69215  -0.68931  -0.68655
 Alpha  occ. eigenvalues --   -0.67877  -0.67233  -0.65798  -0.64884  -0.63663
 Alpha  occ. eigenvalues --   -0.62859  -0.62539  -0.61643  -0.61026  -0.60257
 Alpha  occ. eigenvalues --   -0.60080  -0.59588  -0.59396  -0.59195  -0.58960
 Alpha  occ. eigenvalues --   -0.58039  -0.56773  -0.56432  -0.56089  -0.54302
 Alpha  occ. eigenvalues --   -0.54182  -0.53986  -0.53942  -0.52860  -0.52286
 Alpha  occ. eigenvalues --   -0.51971  -0.51405  -0.50431  -0.50244  -0.50154
 Alpha  occ. eigenvalues --   -0.49897  -0.49610  -0.49343  -0.48770  -0.48527
 Alpha  occ. eigenvalues --   -0.48408  -0.48067  -0.47577  -0.47509  -0.47298
 Alpha  occ. eigenvalues --   -0.47217  -0.46978  -0.46547  -0.46451  -0.46322
 Alpha  occ. eigenvalues --   -0.45899  -0.45551  -0.45423  -0.45305  -0.45123
 Alpha  occ. eigenvalues --   -0.45014  -0.44883  -0.44617  -0.44363  -0.44198
 Alpha  occ. eigenvalues --   -0.43968  -0.43865  -0.43750  -0.43670  -0.43513
 Alpha  occ. eigenvalues --   -0.43385  -0.43086  -0.42941  -0.42907  -0.42553
 Alpha  occ. eigenvalues --   -0.42330  -0.41877  -0.41752  -0.41515  -0.41269
 Alpha  occ. eigenvalues --   -0.41241  -0.40946  -0.40720  -0.40688  -0.40534
 Alpha  occ. eigenvalues --   -0.40279  -0.40066  -0.39881  -0.39702  -0.39655
 Alpha  occ. eigenvalues --   -0.39592  -0.39496  -0.39297  -0.38825  -0.38581
 Alpha  occ. eigenvalues --   -0.38477  -0.38319  -0.38230  -0.38132  -0.38068
 Alpha  occ. eigenvalues --   -0.37929  -0.37834  -0.37563  -0.37517  -0.37310
 Alpha  occ. eigenvalues --   -0.37132  -0.36690  -0.36505  -0.35995  -0.35832
 Alpha  occ. eigenvalues --   -0.35719  -0.35619  -0.35163  -0.35143  -0.34895
 Alpha  occ. eigenvalues --   -0.34498  -0.34141  -0.34048  -0.33987  -0.33890
 Alpha  occ. eigenvalues --   -0.33453  -0.33109  -0.32956  -0.32604  -0.32589
 Alpha  occ. eigenvalues --   -0.31941  -0.31689  -0.31618  -0.31374  -0.31300
 Alpha  occ. eigenvalues --   -0.30923  -0.30476  -0.30083  -0.29494  -0.28775
 Alpha  occ. eigenvalues --   -0.28659  -0.28540  -0.28110  -0.26768  -0.25721
 Alpha  occ. eigenvalues --   -0.25589  -0.25400  -0.25127  -0.25066  -0.20486
 Alpha  occ. eigenvalues --   -0.18678
 Alpha virt. eigenvalues --   -0.10876  -0.05193  -0.03568  -0.02023  -0.00464
 Alpha virt. eigenvalues --   -0.00113   0.00894   0.01113   0.01532   0.03000
 Alpha virt. eigenvalues --    0.03315   0.04522   0.04620   0.05433   0.05686

 Mulliken charges:
               1
     1  Mg   0.971904
     2  C   -0.003505
     3  C   -0.071875
     4  C   -0.023319
     5  C   -0.053781
     6  N   -0.388473
     7  C    0.051786
     8  C   -0.118478
     9  C   -0.095798
    10  C    0.087716
    11  C    0.020612
    12  C    0.008833
    13  C   -0.021530
    14  C    0.213515
    15  O   -0.237133
    16  O   -0.367159
    17  N   -0.534381
    18  C    0.177273
    19  C   -0.182654
    20  C   -0.086716
    21  C    0.180040
    22  C    0.072280
    23  C    0.027756
    24  O   -0.255401
    25  C   -0.001936
    26  N   -0.343620
    27  C    0.031916
    28  C   -0.187042
    29  C   -0.064321
    30  C    0.031691
    31  C    0.051244
    32  C   -0.043492
    33  C   -0.061681
    34  N   -0.502133
    35  C    0.154210
    36  C   -0.196623
    37  C   -0.057622
    38  C    0.186876
    39  C    0.085675
    40  C    0.156064
    41  O   -0.189076
    42  C   -0.177589
    43  C    0.282807
    44  O   -0.285909
    45  O   -0.354589
    46  C    0.126475
    47  C    0.228644
    48  C   -0.078653
    49  C   -0.248831
    50  C    0.007225
    51  C   -0.006035
    52  C   -0.013468
    53  C   -0.051904
    54  C   -0.193091
    55  C   -0.020840
    56  C   -0.005886
    57  C   -0.107925
    58  C   -0.003061
    59  C   -0.228292
    60  C    0.004134
    61  C    0.032135
    62  C   -0.064921
    63  C    0.003711
    64  C   -0.285951
    65  C    0.002764
    66  C   -0.017254
    67  H   -0.012432
    68  H    0.030211
    69  H    0.012810
    70  H    0.069700
    71  H    0.050167
    72  H    0.040686
    73  H    0.049222
    74  H    0.045489
    75  H    0.043506
    76  H    0.052141
    77  H    0.065286
    78  H    0.057939
    79  H    0.033210
    80  H    0.063528
    81  H    0.066737
    82  H    0.063474
    83  H    0.055105
    84  H    0.062596
    85  H    0.064034
    86  H    0.040672
    87  H    0.057227
    88  H    0.055336
    89  H    0.028019
    90  H    0.034627
    91  H    0.031789
    92  H    0.063161
    93  H    0.037835
    94  H    0.043693
    95  H    0.074039
    96  H    0.045567
    97  H    0.034851
    98  H    0.072039
    99  H    0.062492
   100  H    0.060325
   101  H    0.065896
   102  H    0.042621
   103  H    0.046656
   104  H    0.030417
   105  H    0.037569
   106  H    0.046202
   107  H    0.062658
   108  H    0.041865
   109  H    0.016387
   110  H    0.044796
   111  H    0.031127
   112  H    0.036273
   113  H    0.024676
   114  H    0.031027
   115  H    0.043832
   116  H    0.026541
   117  H    0.020468
   118  H    0.033569
   119  H    0.033166
   120  H    0.044108
   121  H    0.029561
   122  H    0.026745
   123  H    0.029171
   124  H    0.036531
   125  H    0.044995
   126  H    0.031823
   127  H    0.027462
   128  H    0.026772
   129  H    0.023925
   130  H    0.036203
   131  H    0.022247
   132  H    0.032828
   133  H    0.017887
   134  H    0.036177
   135  H    0.041430
   136  H    0.032330
   137  H    0.032402
   138  H    0.023944
   139  H    0.037589
   140  H    0.029713
 Sum of Mulliken charges =  -0.00000

 Dipole moment (field-independent basis, Debye):
    X=             -3.0703    Y=              4.2112    Z=             -0.1492  Tot=              5.2138
 Quadrupole moment (field-independent basis, Debye-Ang):
   XX=           -372.3384   YY=           -414.8279   ZZ=           -409.5181
   XY=              2.4632   XZ=             15.3904   YZ=              0.0960

 Normal termination of Gaussian 16 at Wed May  4 10:17:57 2022.
