 Gaussian 16, Revision A.03,
 Gaussian 16:  ES64L-G16RevA.03 25-Dec-2016

 --------------------------------
 #p wB97XD/Def2SVP td=(nstates=5)
 --------------------------------

 -----------------------------------------------------
 step_1601_chromophore_25 TDDFT with wB97XD functional
 -----------------------------------------------------
 Symbolic Z-matrix:
 Charge =  0 Multiplicity = 1

                         Standard orientation:
 ---------------------------------------------------------------------
 Center     Atomic      Atomic             Coordinates (Angstroms)
 Number     Number       Type             X           Y           Z
 ---------------------------------------------------------------------
      1         12           0        6.053936    0.398734    0.283704
      2          6           0        3.760081   -2.270066    0.232242
      3          6           0        3.491278    2.435502   -0.609431
      4          6           0        8.367129    2.827018   -0.528929
      5          6           0        8.721804   -1.844210    0.715884
      6          7           0        3.888525    0.039728   -0.117557
      7          6           0        3.086207   -1.046193    0.141042
      8          6           0        1.609794   -0.758024   -0.033150
      9          6           0        1.586129    0.804745   -0.346387
     10          6           0        3.086341    1.134434   -0.363719
     11          6           0        0.590668    1.246492   -1.406845
     12          6           0        0.770852   -1.265570    1.182508
     13          6           0       -0.352484   -2.293600    0.907456
     14          6           0       -1.747284   -1.920551    1.337959
     15          8           0       -2.074023   -1.808202    2.487124
     16          8           0       -2.530361   -1.653763    0.215278
     17          7           0        5.877653    2.368095   -0.255886
     18          6           0        4.720749    3.080467   -0.469107
     19          6           0        5.022098    4.511995   -0.608900
     20          6           0        6.457086    4.586271   -0.576083
     21          6           0        6.993077    3.215625   -0.482166
     22          6           0        3.928460    5.592597   -0.774935
     23          6           0        7.312491    5.819526   -0.518026
     24          8           0        8.503071    5.693396   -0.228835
     25          6           0        6.741788    7.176232   -0.820631
     26          7           0        8.275274    0.502056    0.035657
     27          6           0        8.912622    1.595900   -0.332758
     28          6           0       10.437360    1.437342   -0.093292
     29          6           0       10.532523   -0.037762    0.463223
     30          6           0        9.103689   -0.501648    0.472974
     31          6           0       11.072316    1.564235   -1.462971
     32          6           0       11.121804   -0.050062    1.901668
     33          6           0       10.226734    0.436248    3.044971
     34          7           0        6.246161   -1.603794    0.501656
     35          6           0        7.399029   -2.367504    0.676378
     36          6           0        7.030421   -3.763314    0.542963
     37          6           0        5.622595   -3.723024    0.443205
     38          6           0        5.204415   -2.413307    0.412804
     39          6           0        7.927357   -5.011333    0.501069
     40          6           0        4.477337   -4.620262    0.271507
     41          8           0        4.367565   -5.822009    0.259921
     42          6           0        3.197154   -3.608838    0.267907
     43          6           0        2.570723   -3.923766   -0.996921
     44          8           0        2.860000   -3.437249   -2.105699
     45          8           0        1.507864   -4.723860   -0.792266
     46          6           0        0.483924   -4.766378   -1.852177
     47          6           0       -3.799682   -1.053796    0.519777
     48          6           0       -4.703731   -1.138937   -0.702762
     49          6           0       -6.048471   -1.099166   -0.561708
     50          6           0       -6.838220   -0.860142    0.741025
     51          6           0       -6.961556   -1.363545   -1.756760
     52          6           0       -7.636363   -0.135105   -2.372931
     53          6           0       -9.150963    0.075830   -1.788599
     54          6           0      -10.214803    0.102515   -2.966038
     55          6           0      -10.343079    1.567367   -3.515383
     56          6           0      -11.535703   -0.603102   -2.583544
     57          6           0      -12.015432   -0.112728   -1.155465
     58          6           0      -13.525868    0.375691   -1.204899
     59          6           0      -14.404851    0.047684    0.101814
     60          6           0      -15.542958   -0.902242   -0.185836
     61          6           0      -14.808494    1.306081    0.900998
     62          6           0      -14.094420    1.288234    2.299468
     63          6           0      -13.240660    2.523351    2.688991
     64          6           0      -11.796298    2.038387    2.879221
     65          6           0      -11.500081    1.518727    4.331740
     66          6           0      -10.789818    3.054239    2.392870
     67          1           0        2.636811    3.092081   -0.785890
     68          1           0        9.109571    3.599173   -0.740755
     69          1           0        9.569118   -2.530876    0.654503
     70          1           0        1.280799   -1.299970   -0.920232
     71          1           0        1.224939    1.224701    0.593298
     72          1           0       -0.109293    1.920568   -0.911411
     73          1           0        0.079271    0.419548   -1.898940
     74          1           0        0.968227    1.811765   -2.260017
     75          1           0        0.361184   -0.397382    1.698818
     76          1           0        1.348049   -1.800722    1.937029
     77          1           0        0.020048   -3.066985    1.579600
     78          1           0       -0.414929   -2.554341   -0.149023
     79          1           0        2.963920    5.086200   -0.755522
     80          1           0        4.033184    5.972177   -1.790619
     81          1           0        3.966408    6.332021    0.025989
     82          1           0        6.232842    7.126548   -1.782704
     83          1           0        7.578676    7.874353   -0.835064
     84          1           0        6.094466    7.492324   -0.001668
     85          1           0       10.635993    2.230835    0.628292
     86          1           0       11.124216   -0.699657   -0.169337
     87          1           0       11.812632    2.363548   -1.427091
     88          1           0       10.302326    1.721205   -2.217535
     89          1           0       11.475568    0.573421   -1.675473
     90          1           0       11.972737    0.624242    1.806610
     91          1           0       11.588743   -0.991688    2.190994
     92          1           0        9.316803    0.942203    2.720549
     93          1           0       10.835295    1.089196    3.670038
     94          1           0       10.007872   -0.401951    3.706882
     95          1           0        7.493089   -5.968040    0.210028
     96          1           0        8.414476   -5.009580    1.476227
     97          1           0        8.784270   -4.805761   -0.140256
     98          1           0        2.436797   -3.699371    1.043920
     99          1           0        0.121687   -3.775319   -2.122424
    100          1           0       -0.334879   -5.408897   -1.527721
    101          1           0        0.969826   -5.268295   -2.689180
    102          1           0       -3.780207   -0.083192    1.014362
    103          1           0       -4.386742   -1.547501    1.293666
    104          1           0       -4.386180   -1.636379   -1.618105
    105          1           0       -6.312764   -0.843885    1.696537
    106          1           0       -7.420514   -1.769425    0.892467
    107          1           0       -7.478059    0.008939    0.593532
    108          1           0       -7.673796   -2.154934   -1.523051
    109          1           0       -6.307669   -1.723235   -2.551679
    110          1           0       -7.480017   -0.109899   -3.450947
    111          1           0       -7.096340    0.712755   -1.951497
    112          1           0       -9.261923    0.944379   -1.138844
    113          1           0       -9.315922   -0.704544   -1.046664
    114          1           0       -9.863994   -0.407355   -3.862713
    115          1           0      -10.027600    1.717784   -4.548476
    116          1           0       -9.881802    2.292875   -2.844300
    117          1           0      -11.362401    1.952655   -3.490354
    118          1           0      -11.459212   -1.690492   -2.559538
    119          1           0      -12.233893   -0.376015   -3.389240
    120          1           0      -11.410967    0.684977   -0.722376
    121          1           0      -11.847917   -0.939014   -0.464787
    122          1           0      -13.911144   -0.113519   -2.100063
    123          1           0      -13.465816    1.444227   -1.413413
    124          1           0      -13.709507   -0.558378    0.682858
    125          1           0      -15.290288   -1.958983   -0.112732
    126          1           0      -15.823877   -0.579235   -1.188526
    127          1           0      -16.364951   -0.642478    0.481328
    128          1           0      -15.893645    1.334133    1.002949
    129          1           0      -14.504851    2.236752    0.420871
    130          1           0      -13.506959    0.383030    2.451038
    131          1           0      -14.891237    1.263521    3.042083
    132          1           0      -13.591694    3.110558    3.537057
    133          1           0      -13.290059    3.195662    1.833394
    134          1           0      -11.621932    1.144920    2.279265
    135          1           0      -11.203676    0.470136    4.293517
    136          1           0      -12.417579    1.673301    4.899753
    137          1           0      -10.705917    2.167245    4.701088
    138          1           0       -9.777488    2.930719    2.777926
    139          1           0      -11.094732    4.083939    2.578038
    140          1           0      -10.669793    2.903397    1.320062
 ---------------------------------------------------------------------

 SCF Done:  E(RwB97XD) =  -3007.85027483     A.U. after   19 cycles

 Excitation energies and oscillator strengths:

 Excited State   1:      Singlet-A      1.6782 eV  738.80 nm  f=0.3427  <S**2>=0.000
     245 -> 248       -0.19404
     246 -> 247        0.68060
     245 <- 248       -0.11697
 This state for optimization and/or second-order correction.
 Total Energy, E(TD-HF/TD-DFT) =  -3007.78860292
 Copying the excited state density for this state as the 1-particle RhoCI density.

 Excited State   2:      Singlet-A      2.1458 eV  577.79 nm  f=0.1309  <S**2>=0.000
     245 -> 247        0.64180
     246 -> 248        0.27996

 Excited State   3:      Singlet-A      3.3901 eV  365.73 nm  f=0.0452  <S**2>=0.000
     241 -> 247       -0.21256
     242 -> 247        0.50723
     244 -> 247       -0.32183
     246 -> 248       -0.25518

 Excited State   4:      Singlet-A      3.5288 eV  351.35 nm  f=0.2876  <S**2>=0.000
     239 -> 247        0.10526
     244 -> 247        0.47322
     245 -> 247        0.17635
     246 -> 248       -0.45163

 Excited State   5:      Singlet-A      3.5882 eV  345.53 nm  f=0.0108  <S**2>=0.000
     239 -> 247        0.24307
     239 -> 249        0.18378
     239 -> 250        0.13026
     240 -> 247        0.45355
     240 -> 248       -0.12290
     240 -> 249        0.23698
     240 -> 250        0.14084
     241 -> 247        0.11778
     244 -> 247       -0.18054

 The electronic state is 1-A.
 Alpha  occ. eigenvalues --  -46.94476 -19.31105 -19.29706 -19.25711 -19.24292
 Alpha  occ. eigenvalues --  -19.23947 -19.23496 -14.46524 -14.45696 -14.44316
 Alpha  occ. eigenvalues --  -14.43469 -10.43460 -10.42112 -10.39238 -10.39091
 Alpha  occ. eigenvalues --  -10.35874 -10.35615 -10.35156 -10.35126 -10.34500
 Alpha  occ. eigenvalues --  -10.34450 -10.34082 -10.33607 -10.33596 -10.33332
 Alpha  occ. eigenvalues --  -10.32571 -10.32485 -10.32147 -10.32014 -10.31857
 Alpha  occ. eigenvalues --  -10.31674 -10.31610 -10.31455 -10.31353 -10.31275
 Alpha  occ. eigenvalues --  -10.31206 -10.31042 -10.31035 -10.30935 -10.30567
 Alpha  occ. eigenvalues --  -10.30438 -10.30423 -10.30407 -10.30299 -10.29979
 Alpha  occ. eigenvalues --  -10.29960 -10.29946 -10.29844 -10.29839 -10.29779
 Alpha  occ. eigenvalues --  -10.29630 -10.29279 -10.29200 -10.29161 -10.29155
 Alpha  occ. eigenvalues --  -10.29138 -10.28979 -10.28937 -10.28850 -10.28634
 Alpha  occ. eigenvalues --  -10.28522 -10.28507 -10.28250 -10.28162 -10.28050
 Alpha  occ. eigenvalues --  -10.27992  -3.20494  -1.94074  -1.93619  -1.93472
 Alpha  occ. eigenvalues --   -1.19324  -1.18194  -1.12768  -1.12112  -1.11865
 Alpha  occ. eigenvalues --   -1.08293  -1.06108  -1.05484  -1.04796  -1.03528
 Alpha  occ. eigenvalues --   -0.94564  -0.92347  -0.91676  -0.91341  -0.90878
 Alpha  occ. eigenvalues --   -0.90238  -0.90153  -0.89603  -0.89042  -0.88743
 Alpha  occ. eigenvalues --   -0.87898  -0.87450  -0.86059  -0.85774  -0.85082
 Alpha  occ. eigenvalues --   -0.84232  -0.84024  -0.83238  -0.82757  -0.82344
 Alpha  occ. eigenvalues --   -0.81595  -0.80371  -0.80164  -0.79027  -0.78197
 Alpha  occ. eigenvalues --   -0.78004  -0.77394  -0.76771  -0.76613  -0.76321
 Alpha  occ. eigenvalues --   -0.75463  -0.74737  -0.73363  -0.72468  -0.71199
 Alpha  occ. eigenvalues --   -0.70432  -0.70207  -0.69187  -0.68659  -0.67901
 Alpha  occ. eigenvalues --   -0.67621  -0.67062  -0.66801  -0.66642  -0.66388
 Alpha  occ. eigenvalues --   -0.65719  -0.64404  -0.64037  -0.63430  -0.61720
 Alpha  occ. eigenvalues --   -0.61604  -0.61536  -0.61390  -0.60157  -0.59761
 Alpha  occ. eigenvalues --   -0.59377  -0.58866  -0.57858  -0.57600  -0.57565
 Alpha  occ. eigenvalues --   -0.57293  -0.56995  -0.56813  -0.56150  -0.55937
 Alpha  occ. eigenvalues --   -0.55808  -0.55510  -0.55116  -0.54915  -0.54840
 Alpha  occ. eigenvalues --   -0.54534  -0.54406  -0.53913  -0.53819  -0.53601
 Alpha  occ. eigenvalues --   -0.53190  -0.52918  -0.52769  -0.52710  -0.52592
 Alpha  occ. eigenvalues --   -0.52348  -0.52120  -0.51934  -0.51677  -0.51603
 Alpha  occ. eigenvalues --   -0.51288  -0.51170  -0.51075  -0.50986  -0.50753
 Alpha  occ. eigenvalues --   -0.50705  -0.50408  -0.50233  -0.50185  -0.49900
 Alpha  occ. eigenvalues --   -0.49661  -0.49243  -0.49026  -0.48731  -0.48492
 Alpha  occ. eigenvalues --   -0.48415  -0.48076  -0.47976  -0.47951  -0.47620
 Alpha  occ. eigenvalues --   -0.47403  -0.47217  -0.47062  -0.46910  -0.46817
 Alpha  occ. eigenvalues --   -0.46768  -0.46602  -0.46420  -0.45995  -0.45812
 Alpha  occ. eigenvalues --   -0.45649  -0.45466  -0.45385  -0.45294  -0.45211
 Alpha  occ. eigenvalues --   -0.45037  -0.44797  -0.44670  -0.44601  -0.44490
 Alpha  occ. eigenvalues --   -0.44214  -0.43750  -0.43645  -0.43127  -0.42865
 Alpha  occ. eigenvalues --   -0.42848  -0.42669  -0.42176  -0.42110  -0.41991
 Alpha  occ. eigenvalues --   -0.41555  -0.41114  -0.41025  -0.40943  -0.40893
 Alpha  occ. eigenvalues --   -0.40524  -0.40066  -0.39996  -0.39665  -0.39514
 Alpha  occ. eigenvalues --   -0.38972  -0.38702  -0.38698  -0.38244  -0.38227
 Alpha  occ. eigenvalues --   -0.37957  -0.37456  -0.37053  -0.36578  -0.35588
 Alpha  occ. eigenvalues --   -0.35528  -0.35293  -0.35083  -0.33521  -0.32926
 Alpha  occ. eigenvalues --   -0.32409  -0.32082  -0.31815  -0.31530  -0.25425
 Alpha  occ. eigenvalues --   -0.22907
 Alpha virt. eigenvalues --   -0.06741   0.00279   0.02696   0.04511   0.05729
 Alpha virt. eigenvalues --    0.06345   0.07613   0.07921   0.08361   0.09684
 Alpha virt. eigenvalues --    0.10020   0.10774   0.11412   0.12094   0.12442

 Mulliken charges:
               1
     1  Mg   0.961684
     2  C   -0.006991
     3  C   -0.086985
     4  C   -0.046477
     5  C   -0.072051
     6  N   -0.355928
     7  C    0.017640
     8  C   -0.088499
     9  C   -0.068194
    10  C    0.076584
    11  C    0.028755
    12  C    0.015779
    13  C    0.004658
    14  C    0.202420
    15  O   -0.234399
    16  O   -0.365663
    17  N   -0.506850
    18  C    0.174745
    19  C   -0.176659
    20  C   -0.077440
    21  C    0.174279
    22  C    0.086778
    23  C    0.023211
    24  O   -0.248866
    25  C    0.008923
    26  N   -0.305776
    27  C    0.023813
    28  C   -0.162804
    29  C   -0.035619
    30  C    0.015312
    31  C    0.058828
    32  C   -0.031898
    33  C   -0.042300
    34  N   -0.461810
    35  C    0.144353
    36  C   -0.196497
    37  C   -0.055128
    38  C    0.167978
    39  C    0.096327
    40  C    0.138756
    41  O   -0.181448
    42  C   -0.130630
    43  C    0.253169
    44  O   -0.279965
    45  O   -0.351171
    46  C    0.140498
    47  C    0.243872
    48  C   -0.090358
    49  C   -0.231725
    50  C    0.020610
    51  C    0.014521
    52  C    0.000467
    53  C   -0.034745
    54  C   -0.160554
    55  C   -0.013521
    56  C    0.007990
    57  C   -0.088988
    58  C    0.013475
    59  C   -0.195601
    60  C    0.018612
    61  C    0.046484
    62  C   -0.046822
    63  C    0.016747
    64  C   -0.250729
    65  C    0.012853
    66  C   -0.003188
    67  H   -0.023646
    68  H    0.026722
    69  H    0.008517
    70  H    0.051596
    71  H    0.037774
    72  H    0.035974
    73  H    0.045390
    74  H    0.040114
    75  H    0.036122
    76  H    0.044715
    77  H    0.060133
    78  H    0.042405
    79  H    0.029750
    80  H    0.059333
    81  H    0.062906
    82  H    0.058644
    83  H    0.054811
    84  H    0.058085
    85  H    0.054630
    86  H    0.031544
    87  H    0.052858
    88  H    0.048178
    89  H    0.022249
    90  H    0.024353
    91  H    0.025510
    92  H    0.051973
    93  H    0.032355
    94  H    0.038075
    95  H    0.071856
    96  H    0.038468
    97  H    0.027338
    98  H    0.061437
    99  H    0.058277
   100  H    0.057778
   101  H    0.062778
   102  H    0.037909
   103  H    0.036811
   104  H    0.027854
   105  H    0.033776
   106  H    0.040150
   107  H    0.054950
   108  H    0.033223
   109  H    0.008600
   110  H    0.039206
   111  H    0.020452
   112  H    0.025902
   113  H    0.010469
   114  H    0.020150
   115  H    0.039739
   116  H    0.019918
   117  H    0.013540
   118  H    0.027043
   119  H    0.023738
   120  H    0.029726
   121  H    0.020739
   122  H    0.014906
   123  H    0.019951
   124  H    0.018130
   125  H    0.040957
   126  H    0.023880
   127  H    0.020468
   128  H    0.019469
   129  H    0.013264
   130  H    0.024281
   131  H    0.014946
   132  H    0.026355
   133  H    0.006328
   134  H    0.019714
   135  H    0.037008
   136  H    0.025598
   137  H    0.026085
   138  H    0.018191
   139  H    0.031379
   140  H    0.022356
 Sum of Mulliken charges =  -0.00000

 Dipole moment (field-independent basis, Debye):
    X=             -3.2008    Y=              4.8980    Z=             -0.2655  Tot=              5.8571
 Quadrupole moment (field-independent basis, Debye-Ang):
   XX=           -373.7897   YY=           -412.3869   ZZ=           -409.2549
   XY=              6.8436   XZ=             14.6249   YZ=             -0.0653

 Normal termination of Gaussian 16 at Wed May  4 10:45:22 2022.
