 Gaussian 16, Revision A.03,
 Gaussian 16:  ES64L-G16RevA.03 25-Dec-2016

 --------------------
 #p ZINDO=(nstates=5)
 --------------------

 ------------------------------
 step_1601_chromophore_25 ZINDO
 ------------------------------
 Symbolic Z-matrix:
 Charge =  0 Multiplicity = 1

                         Standard orientation:
 ---------------------------------------------------------------------
 Center     Atomic      Atomic             Coordinates (Angstroms)
 Number     Number       Type             X           Y           Z
 ---------------------------------------------------------------------
      1         12           0        6.053936    0.398734    0.283704
      2          6           0        3.760081   -2.270066    0.232242
      3          6           0        3.491278    2.435502   -0.609431
      4          6           0        8.367129    2.827018   -0.528929
      5          6           0        8.721804   -1.844210    0.715884
      6          7           0        3.888525    0.039728   -0.117557
      7          6           0        3.086207   -1.046193    0.141042
      8          6           0        1.609794   -0.758024   -0.033150
      9          6           0        1.586129    0.804745   -0.346387
     10          6           0        3.086341    1.134434   -0.363719
     11          6           0        0.590668    1.246492   -1.406845
     12          6           0        0.770852   -1.265570    1.182508
     13          6           0       -0.352484   -2.293600    0.907456
     14          6           0       -1.747284   -1.920551    1.337959
     15          8           0       -2.074023   -1.808202    2.487124
     16          8           0       -2.530361   -1.653763    0.215278
     17          7           0        5.877653    2.368095   -0.255886
     18          6           0        4.720749    3.080467   -0.469107
     19          6           0        5.022098    4.511995   -0.608900
     20          6           0        6.457086    4.586271   -0.576083
     21          6           0        6.993077    3.215625   -0.482166
     22          6           0        3.928460    5.592597   -0.774935
     23          6           0        7.312491    5.819526   -0.518026
     24          8           0        8.503071    5.693396   -0.228835
     25          6           0        6.741788    7.176232   -0.820631
     26          7           0        8.275274    0.502056    0.035657
     27          6           0        8.912622    1.595900   -0.332758
     28          6           0       10.437360    1.437342   -0.093292
     29          6           0       10.532523   -0.037762    0.463223
     30          6           0        9.103689   -0.501648    0.472974
     31          6           0       11.072316    1.564235   -1.462971
     32          6           0       11.121804   -0.050062    1.901668
     33          6           0       10.226734    0.436248    3.044971
     34          7           0        6.246161   -1.603794    0.501656
     35          6           0        7.399029   -2.367504    0.676378
     36          6           0        7.030421   -3.763314    0.542963
     37          6           0        5.622595   -3.723024    0.443205
     38          6           0        5.204415   -2.413307    0.412804
     39          6           0        7.927357   -5.011333    0.501069
     40          6           0        4.477337   -4.620262    0.271507
     41          8           0        4.367565   -5.822009    0.259921
     42          6           0        3.197154   -3.608838    0.267907
     43          6           0        2.570723   -3.923766   -0.996921
     44          8           0        2.860000   -3.437249   -2.105699
     45          8           0        1.507864   -4.723860   -0.792266
     46          6           0        0.483924   -4.766378   -1.852177
     47          6           0       -3.799682   -1.053796    0.519777
     48          6           0       -4.703731   -1.138937   -0.702762
     49          6           0       -6.048471   -1.099166   -0.561708
     50          6           0       -6.838220   -0.860142    0.741025
     51          6           0       -6.961556   -1.363545   -1.756760
     52          6           0       -7.636363   -0.135105   -2.372931
     53          6           0       -9.150963    0.075830   -1.788599
     54          6           0      -10.214803    0.102515   -2.966038
     55          6           0      -10.343079    1.567367   -3.515383
     56          6           0      -11.535703   -0.603102   -2.583544
     57          6           0      -12.015432   -0.112728   -1.155465
     58          6           0      -13.525868    0.375691   -1.204899
     59          6           0      -14.404851    0.047684    0.101814
     60          6           0      -15.542958   -0.902242   -0.185836
     61          6           0      -14.808494    1.306081    0.900998
     62          6           0      -14.094420    1.288234    2.299468
     63          6           0      -13.240660    2.523351    2.688991
     64          6           0      -11.796298    2.038387    2.879221
     65          6           0      -11.500081    1.518727    4.331740
     66          6           0      -10.789818    3.054239    2.392870
     67          1           0        2.636811    3.092081   -0.785890
     68          1           0        9.109571    3.599173   -0.740755
     69          1           0        9.569118   -2.530876    0.654503
     70          1           0        1.280799   -1.299970   -0.920232
     71          1           0        1.224939    1.224701    0.593298
     72          1           0       -0.109293    1.920568   -0.911411
     73          1           0        0.079271    0.419548   -1.898940
     74          1           0        0.968227    1.811765   -2.260017
     75          1           0        0.361184   -0.397382    1.698818
     76          1           0        1.348049   -1.800722    1.937029
     77          1           0        0.020048   -3.066985    1.579600
     78          1           0       -0.414929   -2.554341   -0.149023
     79          1           0        2.963920    5.086200   -0.755522
     80          1           0        4.033184    5.972177   -1.790619
     81          1           0        3.966408    6.332021    0.025989
     82          1           0        6.232842    7.126548   -1.782704
     83          1           0        7.578676    7.874353   -0.835064
     84          1           0        6.094466    7.492324   -0.001668
     85          1           0       10.635993    2.230835    0.628292
     86          1           0       11.124216   -0.699657   -0.169337
     87          1           0       11.812632    2.363548   -1.427091
     88          1           0       10.302326    1.721205   -2.217535
     89          1           0       11.475568    0.573421   -1.675473
     90          1           0       11.972737    0.624242    1.806610
     91          1           0       11.588743   -0.991688    2.190994
     92          1           0        9.316803    0.942203    2.720549
     93          1           0       10.835295    1.089196    3.670038
     94          1           0       10.007872   -0.401951    3.706882
     95          1           0        7.493089   -5.968040    0.210028
     96          1           0        8.414476   -5.009580    1.476227
     97          1           0        8.784270   -4.805761   -0.140256
     98          1           0        2.436797   -3.699371    1.043920
     99          1           0        0.121687   -3.775319   -2.122424
    100          1           0       -0.334879   -5.408897   -1.527721
    101          1           0        0.969826   -5.268295   -2.689180
    102          1           0       -3.780207   -0.083192    1.014362
    103          1           0       -4.386742   -1.547501    1.293666
    104          1           0       -4.386180   -1.636379   -1.618105
    105          1           0       -6.312764   -0.843885    1.696537
    106          1           0       -7.420514   -1.769425    0.892467
    107          1           0       -7.478059    0.008939    0.593532
    108          1           0       -7.673796   -2.154934   -1.523051
    109          1           0       -6.307669   -1.723235   -2.551679
    110          1           0       -7.480017   -0.109899   -3.450947
    111          1           0       -7.096340    0.712755   -1.951497
    112          1           0       -9.261923    0.944379   -1.138844
    113          1           0       -9.315922   -0.704544   -1.046664
    114          1           0       -9.863994   -0.407355   -3.862713
    115          1           0      -10.027600    1.717784   -4.548476
    116          1           0       -9.881802    2.292875   -2.844300
    117          1           0      -11.362401    1.952655   -3.490354
    118          1           0      -11.459212   -1.690492   -2.559538
    119          1           0      -12.233893   -0.376015   -3.389240
    120          1           0      -11.410967    0.684977   -0.722376
    121          1           0      -11.847917   -0.939014   -0.464787
    122          1           0      -13.911144   -0.113519   -2.100063
    123          1           0      -13.465816    1.444227   -1.413413
    124          1           0      -13.709507   -0.558378    0.682858
    125          1           0      -15.290288   -1.958983   -0.112732
    126          1           0      -15.823877   -0.579235   -1.188526
    127          1           0      -16.364951   -0.642478    0.481328
    128          1           0      -15.893645    1.334133    1.002949
    129          1           0      -14.504851    2.236752    0.420871
    130          1           0      -13.506959    0.383030    2.451038
    131          1           0      -14.891237    1.263521    3.042083
    132          1           0      -13.591694    3.110558    3.537057
    133          1           0      -13.290059    3.195662    1.833394
    134          1           0      -11.621932    1.144920    2.279265
    135          1           0      -11.203676    0.470136    4.293517
    136          1           0      -12.417579    1.673301    4.899753
    137          1           0      -10.705917    2.167245    4.701088
    138          1           0       -9.777488    2.930719    2.777926
    139          1           0      -11.094732    4.083939    2.578038
    140          1           0      -10.669793    2.903397    1.320062
 ---------------------------------------------------------------------

 SCF Done:  E(RZINDO/S) =  -474.295732824     A.U. after   20 cycles

 Excitation energies and oscillator strengths:

 Excited State   1:      Singlet-A      1.2757 eV  971.87 nm  f=0.5462  <S**2>=0.000
     175 ->178         0.18475
     176 ->177         0.66469
 This state for optimization and/or second-order correction.
 Total Energy, E(CIS/TDA) =  -474.248850471
 Copying the excited state density for this state as the 1-particle RhoCI density.

 Excited State   2:      Singlet-A      1.8907 eV  655.76 nm  f=0.0735  <S**2>=0.000
     175 ->177         0.56521
     176 ->178        -0.39375

 Excited State   3:      Singlet-A      2.8990 eV  427.69 nm  f=0.0611  <S**2>=0.000
     167 ->179        -0.11184
     168 ->177         0.30299
     168 ->178        -0.13894
     168 ->179        -0.36994
     168 ->180         0.26388
     168 ->186        -0.16636
     168 ->187        -0.12094
     176 ->178         0.14184
     176 ->179         0.14053

 Excited State   4:      Singlet-A      2.9896 eV  414.72 nm  f=1.0149  <S**2>=0.000
     171 ->177        -0.15848
     175 ->177         0.35669
     176 ->178         0.53349

 Excited State   5:      Singlet-A      3.0660 eV  404.38 nm  f=0.0500  <S**2>=0.000
     170 ->177         0.12288
     170 ->179         0.16004
     170 ->180         0.17650
     173 ->177         0.10559
     176 ->179         0.54422
     176 ->180         0.16386
     176 ->184        -0.10017

 The electronic state is 1-A.
 Alpha  occ. eigenvalues --   -1.84701  -1.81876  -1.78975  -1.73771  -1.73111
 Alpha  occ. eigenvalues --   -1.70211  -1.64162  -1.60373  -1.59522  -1.58150
 Alpha  occ. eigenvalues --   -1.55342  -1.52156  -1.49482  -1.49256  -1.46348
 Alpha  occ. eigenvalues --   -1.44938  -1.42094  -1.40255  -1.38524  -1.36750
 Alpha  occ. eigenvalues --   -1.36347  -1.32979  -1.32099  -1.31619  -1.29225
 Alpha  occ. eigenvalues --   -1.27417  -1.25016  -1.22566  -1.20000  -1.18065
 Alpha  occ. eigenvalues --   -1.17787  -1.16229  -1.16053  -1.14300  -1.12915
 Alpha  occ. eigenvalues --   -1.12427  -1.11350  -1.10863  -1.04597  -1.04234
 Alpha  occ. eigenvalues --   -1.02484  -1.01655  -0.99495  -0.97991  -0.97250
 Alpha  occ. eigenvalues --   -0.96909  -0.94593  -0.94316  -0.92795  -0.91771
 Alpha  occ. eigenvalues --   -0.90600  -0.89688  -0.88287  -0.87645  -0.86592
 Alpha  occ. eigenvalues --   -0.85215  -0.84830  -0.83940  -0.81098  -0.80319
 Alpha  occ. eigenvalues --   -0.79628  -0.77885  -0.77222  -0.76822  -0.76164
 Alpha  occ. eigenvalues --   -0.75646  -0.75571  -0.75409  -0.73738  -0.73019
 Alpha  occ. eigenvalues --   -0.72878  -0.72103  -0.71532  -0.71131  -0.70723
 Alpha  occ. eigenvalues --   -0.69848  -0.68778  -0.68550  -0.68389  -0.67871
 Alpha  occ. eigenvalues --   -0.67423  -0.66386  -0.66100  -0.65886  -0.65550
 Alpha  occ. eigenvalues --   -0.64962  -0.64597  -0.64174  -0.63483  -0.63335
 Alpha  occ. eigenvalues --   -0.63203  -0.62985  -0.62683  -0.62618  -0.62085
 Alpha  occ. eigenvalues --   -0.61257  -0.60990  -0.60711  -0.60509  -0.59716
 Alpha  occ. eigenvalues --   -0.59603  -0.59027  -0.58835  -0.58806  -0.58491
 Alpha  occ. eigenvalues --   -0.57969  -0.57633  -0.57396  -0.56913  -0.56436
 Alpha  occ. eigenvalues --   -0.56104  -0.55678  -0.55525  -0.55230  -0.54658
 Alpha  occ. eigenvalues --   -0.54206  -0.53940  -0.53625  -0.53458  -0.53361
 Alpha  occ. eigenvalues --   -0.52779  -0.52525  -0.52143  -0.51931  -0.51114
 Alpha  occ. eigenvalues --   -0.50878  -0.50536  -0.50334  -0.50174  -0.49960
 Alpha  occ. eigenvalues --   -0.49867  -0.49678  -0.49452  -0.49212  -0.49181
 Alpha  occ. eigenvalues --   -0.48775  -0.48567  -0.48370  -0.48246  -0.48068
 Alpha  occ. eigenvalues --   -0.47433  -0.47182  -0.46745  -0.46665  -0.46477
 Alpha  occ. eigenvalues --   -0.45967  -0.45918  -0.45638  -0.45238  -0.45123
 Alpha  occ. eigenvalues --   -0.44939  -0.44548  -0.44403  -0.44195  -0.44139
 Alpha  occ. eigenvalues --   -0.43662  -0.43118  -0.42843  -0.42799  -0.42218
 Alpha  occ. eigenvalues --   -0.41495  -0.41416  -0.40673  -0.38883  -0.38472
 Alpha  occ. eigenvalues --   -0.37656  -0.36588  -0.35798  -0.34347  -0.34227
 Alpha  occ. eigenvalues --   -0.33422  -0.32084  -0.32023  -0.31649  -0.26098
 Alpha  occ. eigenvalues --   -0.21726
 Alpha virt. eigenvalues --   -0.08300  -0.01826  -0.00480   0.01131   0.01994
 Alpha virt. eigenvalues --    0.02396   0.02982   0.03594   0.04181   0.04958
 Alpha virt. eigenvalues --    0.06447   0.06700   0.07502   0.08057   0.08274

 Mulliken charges:
               1
     1  Mg   0.421754
     2  C   -0.028024
     3  C   -0.084785
     4  C   -0.055820
     5  C   -0.066596
     6  N   -0.290478
     7  C    0.097663
     8  C    0.004199
     9  C    0.005764
    10  C    0.161647
    11  C   -0.043757
    12  C   -0.022375
    13  C   -0.006657
    14  C    0.468775
    15  O   -0.505556
    16  O   -0.268152
    17  N   -0.338351
    18  C    0.141688
    19  C    0.004160
    20  C   -0.031693
    21  C    0.136371
    22  C   -0.040208
    23  C    0.327899
    24  O   -0.525037
    25  C   -0.028138
    26  N   -0.271717
    27  C    0.161695
    28  C   -0.005549
    29  C    0.007909
    30  C    0.098603
    31  C   -0.048907
    32  C   -0.028731
    33  C   -0.052294
    34  N   -0.304654
    35  C    0.063266
    36  C    0.012681
    37  C   -0.064003
    38  C    0.114017
    39  C   -0.040439
    40  C    0.332165
    41  O   -0.509521
    42  C    0.053037
    43  C    0.498382
    44  O   -0.556976
    45  O   -0.272344
    46  C    0.075540
    47  C    0.097389
    48  C   -0.109057
    49  C    0.000916
    50  C   -0.049271
    51  C   -0.020432
    52  C   -0.039557
    53  C   -0.040528
    54  C   -0.008567
    55  C   -0.062181
    56  C   -0.031205
    57  C   -0.044391
    58  C   -0.048824
    59  C   -0.014239
    60  C   -0.058437
    61  C   -0.029327
    62  C   -0.043071
    63  C   -0.030268
    64  C   -0.013712
    65  C   -0.064080
    66  C   -0.054457
    67  H    0.014037
    68  H    0.048822
    69  H    0.031633
    70  H    0.039606
    71  H    0.027650
    72  H    0.018172
    73  H    0.026636
    74  H    0.021375
    75  H    0.025961
    76  H    0.027202
    77  H    0.047267
    78  H    0.039810
    79  H    0.024965
    80  H    0.035803
    81  H    0.039951
    82  H    0.038819
    83  H    0.037482
    84  H    0.042064
    85  H    0.046957
    86  H    0.032898
    87  H    0.027469
    88  H    0.027905
    89  H    0.022974
    90  H    0.005658
    91  H    0.019195
    92  H    0.033204
    93  H    0.013645
    94  H    0.019030
    95  H    0.046214
    96  H    0.025974
    97  H    0.019623
    98  H    0.058215
    99  H    0.044622
   100  H    0.032317
   101  H    0.047746
   102  H    0.049360
   103  H    0.045638
   104  H    0.042858
   105  H    0.027012
   106  H    0.024294
   107  H    0.033690
   108  H    0.028230
   109  H    0.009351
   110  H    0.034549
   111  H    0.012657
   112  H    0.025012
   113  H    0.017117
   114  H    0.014018
   115  H    0.023821
   116  H    0.017169
   117  H    0.010855
   118  H    0.019770
   119  H    0.018675
   120  H    0.022629
   121  H    0.016968
   122  H    0.020018
   123  H    0.020289
   124  H    0.015924
   125  H    0.027109
   126  H    0.019484
   127  H    0.016902
   128  H    0.022665
   129  H    0.022106
   130  H    0.028115
   131  H    0.006089
   132  H    0.027071
   133  H    0.011815
   134  H    0.015155
   135  H    0.024986
   136  H    0.021334
   137  H    0.022522
   138  H    0.012500
   139  H    0.019122
   140  H    0.009067
 Sum of Mulliken charges =  -0.00000

 Dipole moment (field-independent basis, Debye):
    X=             -4.5519    Y=              8.5964    Z=             -0.2142  Tot=              9.7295
 N-N= 4.262547443810D+03 E-N= 0.000000000000D+00  KE=-9.199694148133D+03
 Leave Link  601 at Wed May  4 10:57:27 2022, MaxMem=  6710886400 cpu:               0.8 elap:               0.1
 (Enter /sw/apps/gaussian-16.0/g16/l9999.exe)
 1\1\GINC-BP1-COMPUTE036\SP\RZINDO CIS\STO-3G\C55H74Mg1N4O6\OF15641\04-
 May-2022\0\\#p ZINDO=(nstates=5)\\step_1601_chromophore_25 ZINDO\\0,1\
 Mg,0,-3.276,34.102,26.55\C,0,-4.336,32.298,29.38\C,0,-1.976,36.404,28.
 677\C,0,-3.007,36.291,23.896\C,0,-5.072,31.94,24.444\N,0,-3.202,34.253
 ,28.775\C,0,-3.463,33.326,29.756\C,0,-3.01,33.764,31.133\C,0,-2.269,35
 .145,30.842\C,0,-2.488,35.295,29.329\C,0,-2.506,36.245,31.864\C,0,-2.1
 98,32.646,31.861\C,0,-2.729,32.136,33.222\C,0,-1.8,32.235,34.404\O,0,-

 Normal termination of Gaussian 16 at Wed May  4 10:57:27 2022.
