 Gaussian 16, Revision A.03,
 Gaussian 16:  ES64L-G16RevA.03 25-Dec-2016

 ------------------------------
 #p blyp/Def2SVP td=(nstates=5)
 ------------------------------

 -------------------------------------------------
 step_101_chromophore_9 TDDFT with blyp functional
 -------------------------------------------------
 Symbolic Z-matrix:
 Charge =  0 Multiplicity = 1

                         Standard orientation:
 ---------------------------------------------------------------------
 Center     Atomic      Atomic             Coordinates (Angstroms)
 Number     Number       Type             X           Y           Z
 ---------------------------------------------------------------------
      1         12           0       -5.102216    0.800763   -0.318646
      2          6           0       -4.110604   -2.619714   -0.103473
      3          6           0       -1.912133    1.590700   -0.778146
      4          6           0       -6.076348    3.943904    0.023566
      5          6           0       -8.132069   -0.178216    1.019591
      6          7           0       -3.268080   -0.380173   -0.403649
      7          6           0       -3.038342   -1.762263   -0.313113
      8          6           0       -1.549833   -2.153829   -0.571393
      9          6           0       -0.886260   -0.715429   -0.533410
     10          6           0       -2.075242    0.217078   -0.642926
     11          6           0        0.035178   -0.501711    0.685883
     12          6           0       -1.191396   -2.890625   -1.919639
     13          6           0        0.185216   -3.586614   -1.914816
     14          6           0        1.246258   -3.382876   -0.821955
     15          8           0        1.256676   -3.890082    0.286936
     16          8           0        2.223071   -2.464829   -1.196321
     17          7           0       -4.126088    2.552237   -0.482363
     18          6           0       -2.793715    2.674956   -0.751273
     19          6           0       -2.430460    4.058966   -0.801431
     20          6           0       -3.723195    4.788337   -0.677296
     21          6           0       -4.727348    3.742239   -0.316224
     22          6           0       -1.033489    4.563948   -1.086956
     23          6           0       -3.910410    6.380607   -0.895119
     24          8           0       -5.002047    6.901095   -0.677830
     25          6           0       -2.838469    7.304095   -1.367072
     26          7           0       -6.950139    1.728136    0.339367
     27          6           0       -7.051144    3.041733    0.324953
     28          6           0       -8.316662    3.573169    0.973631
     29          6           0       -9.071376    2.251440    1.221492
     30          6           0       -8.044120    1.217170    0.776955
     31          6           0       -8.070405    4.481798    2.173053
     32          6           0      -10.447663    2.178374    0.485568
     33          6           0      -10.402993    2.010127   -1.105150
     34          7           0       -6.029129   -1.015325    0.176051
     35          6           0       -7.343939   -1.220865    0.631065
     36          6           0       -7.635108   -2.658331    0.663418
     37          6           0       -6.373327   -3.252842    0.482975
     38          6           0       -5.461289   -2.234113    0.127626
     39          6           0       -8.905071   -3.266191    0.986638
     40          6           0       -5.639456   -4.498552    0.526475
     41          8           0       -5.996458   -5.644547    0.797047
     42          6           0       -4.168652   -4.144316    0.126348
     43          6           0       -3.368791   -4.594774    1.323945
     44          8           0       -3.317106   -4.013388    2.372636
     45          8           0       -2.574069   -5.631181    0.912362
     46          6           0       -1.546064   -6.015229    1.862539
     47          6           0        3.462703   -2.483285   -0.365503
     48          6           0        4.610686   -2.273586   -1.298514
     49          6           0        5.278258   -3.105493   -2.093192
     50          6           0        5.233217   -4.628494   -2.221769
     51          6           0        6.288778   -2.472052   -3.114950
     52          6           0        7.460629   -1.727710   -2.574051
     53          6           0        8.011795   -0.655185   -3.507515
     54          6           0        8.558736    0.548431   -2.752990
     55          6           0        8.512888    1.723061   -3.702942
     56          6           0       10.029763    0.189424   -2.371223
     57          6           0       10.403129    0.652524   -0.965482
     58          6           0       11.697595    1.489670   -0.779911
     59          6           0       11.516910    2.716780    0.249299
     60          6           0       12.234525    3.937616   -0.301359
     61          6           0       11.955188    2.376866    1.636714
     62          6           0       10.652587    1.864339    2.344688
     63          6           0       11.019792    0.713048    3.360959
     64          6           0       10.869508    1.121428    4.852038
     65          6           0       12.045611    0.524448    5.607391
     66          6           0        9.447113    0.632763    5.446994
     67          1           0       -0.854080    1.814263   -0.928903
     68          1           0       -6.409443    4.981564    0.097010
     69          1           0       -9.180638   -0.304611    1.296520
     70          1           0       -1.121286   -2.655774    0.296482
     71          1           0       -0.461658   -0.458114   -1.504341
     72          1           0        0.313314   -1.441563    1.163150
     73          1           0       -0.282688    0.262465    1.394660
     74          1           0        0.965613   -0.197165    0.205896
     75          1           0       -1.350694   -2.271721   -2.802915
     76          1           0       -1.953650   -3.657621   -2.053025
     77          1           0        0.671657   -3.614448   -2.890139
     78          1           0       -0.102587   -4.636736   -1.876260
     79          1           0       -0.399970    3.845223   -1.607823
     80          1           0       -0.555195    4.755865   -0.126263
     81          1           0       -1.179571    5.534036   -1.561134
     82          1           0       -2.503190    6.872957   -2.310511
     83          1           0       -2.131082    7.286348   -0.537343
     84          1           0       -3.155208    8.345541   -1.422555
     85          1           0       -8.973701    4.187539    0.358337
     86          1           0       -9.237289    1.980204    2.264264
     87          1           0       -8.423863    5.502350    2.024559
     88          1           0       -6.998200    4.458655    2.365214
     89          1           0       -8.610397    4.175038    3.069458
     90          1           0      -10.750596    3.217788    0.608187
     91          1           0      -11.173436    1.515133    0.957017
     92          1           0       -9.380128    2.215995   -1.421694
     93          1           0      -11.008962    2.771487   -1.594917
     94          1           0      -10.793691    1.021141   -1.344251
     95          1           0       -9.337642   -2.936598    1.931413
     96          1           0       -8.896188   -4.342112    0.809403
     97          1           0       -9.397111   -2.641708    0.240393
     98          1           0       -3.951265   -4.757486   -0.748536
     99          1           0       -2.000433   -6.444037    2.756107
    100          1           0       -1.200045   -5.023045    2.150019
    101          1           0       -0.738470   -6.574552    1.389316
    102          1           0        3.612157   -3.409691    0.189949
    103          1           0        3.519380   -1.639489    0.322497
    104          1           0        4.927362   -1.233729   -1.223553
    105          1           0        4.601501   -5.183427   -1.527989
    106          1           0        6.235598   -5.052136   -2.155310
    107          1           0        4.776007   -4.794331   -3.197870
    108          1           0        5.615270   -1.729915   -3.543267
    109          1           0        6.694106   -3.099979   -3.908346
    110          1           0        8.247018   -2.474963   -2.471974
    111          1           0        7.176440   -1.271954   -1.625735
    112          1           0        7.350434   -0.452621   -4.349820
    113          1           0        8.802529   -1.217180   -4.005929
    114          1           0        7.921012    0.761246   -1.894322
    115          1           0        9.115256    1.556331   -4.596109
    116          1           0        8.807433    2.644066   -3.199754
    117          1           0        7.507764    1.853097   -4.103967
    118          1           0       10.768333    0.563235   -3.080625
    119          1           0       10.026673   -0.900430   -2.362559
    120          1           0       10.504074   -0.282428   -0.414806
    121          1           0        9.549655    1.142778   -0.497099
    122          1           0       11.872820    1.841186   -1.796464
    123          1           0       12.633208    0.964227   -0.590168
    124          1           0       10.462367    2.994082    0.229105
    125          1           0       11.503044    4.726700   -0.472526
    126          1           0       12.698141    3.730900   -1.266448
    127          1           0       12.998028    4.321900    0.375368
    128          1           0       12.440531    3.134884    2.251993
    129          1           0       12.719880    1.601405    1.584381
    130          1           0        9.834374    1.535339    1.703675
    131          1           0       10.213427    2.701672    2.886961
    132          1           0       11.951072    0.203104    3.116811
    133          1           0       10.362840   -0.082786    3.008202
    134          1           0       10.944602    2.208411    4.826967
    135          1           0       11.759166    0.349249    6.644348
    136          1           0       12.855427    1.248599    5.522790
    137          1           0       12.313132   -0.407740    5.109031
    138          1           0        8.833361    0.314705    4.604390
    139          1           0        9.090407    1.491097    6.016012
    140          1           0        9.553919   -0.221989    6.114570
 ---------------------------------------------------------------------

 SCF Done:  E(RB-LYP) =  -3007.31953092     A.U. after   20 cycles

 Excitation energies and oscillator strengths:

 Excited State   1:      Singlet-A      1.8281 eV  678.22 nm  f=0.2937  <S**2>=0.000
     245 -> 248        0.18367
     246 -> 247        0.69062
     246 <- 247       -0.15162
 This state for optimization and/or second-order correction.
 Total Energy, E(TD-HF/TD-DFT) =  -3007.25234967
 Copying the excited state density for this state as the 1-particle RhoCI density.

 Excited State   2:      Singlet-A      1.9757 eV  627.54 nm  f=0.0039  <S**2>=0.000
     243 -> 247       -0.14163
     244 -> 247        0.66912
     245 -> 247       -0.16718

 Excited State   3:      Singlet-A      2.0036 eV  618.82 nm  f=0.0085  <S**2>=0.000
     243 -> 247        0.62769
     244 -> 247        0.19870
     245 -> 247        0.24297

 Excited State   4:      Singlet-A      2.0973 eV  591.16 nm  f=0.0576  <S**2>=0.000
     243 -> 247       -0.28918
     244 -> 247        0.10055
     245 -> 247        0.56796
     246 -> 248       -0.25202

 Excited State   5:      Singlet-A      2.5345 eV  489.19 nm  f=0.0011  <S**2>=0.000
     242 -> 247        0.69706

 The electronic state is 1-A.
 Alpha  occ. eigenvalues --  -46.26482 -18.82442 -18.80944 -18.77969 -18.76208
 Alpha  occ. eigenvalues --  -18.75297 -18.75141 -14.02777 -14.02560 -14.00684
 Alpha  occ. eigenvalues --  -14.00203 -10.05207 -10.02863 -10.00150  -9.98896
 Alpha  occ. eigenvalues --   -9.98090  -9.96472  -9.96225  -9.95669  -9.95531
 Alpha  occ. eigenvalues --   -9.95521  -9.95041  -9.95000  -9.94928  -9.94450
 Alpha  occ. eigenvalues --   -9.94403  -9.94306  -9.94228  -9.93963  -9.93504
 Alpha  occ. eigenvalues --   -9.93481  -9.93457  -9.93360  -9.93311  -9.93217
 Alpha  occ. eigenvalues --   -9.93093  -9.93086  -9.92966  -9.92882  -9.92879
 Alpha  occ. eigenvalues --   -9.92514  -9.92235  -9.92194  -9.92180  -9.92143
 Alpha  occ. eigenvalues --   -9.91951  -9.91949  -9.91871  -9.91815  -9.91744
 Alpha  occ. eigenvalues --   -9.91627  -9.91513  -9.91466  -9.91444  -9.91287
 Alpha  occ. eigenvalues --   -9.91272  -9.91106  -9.90997  -9.90985  -9.90955
 Alpha  occ. eigenvalues --   -9.90935  -9.90836  -9.90550  -9.90532  -9.90372
 Alpha  occ. eigenvalues --   -9.90071  -2.91226  -1.71652  -1.71115  -1.70931
 Alpha  occ. eigenvalues --   -0.97875  -0.97460  -0.91023  -0.90408  -0.90144
 Alpha  occ. eigenvalues --   -0.90018  -0.88976  -0.85652  -0.85218  -0.84386
 Alpha  occ. eigenvalues --   -0.74626  -0.74601  -0.73235  -0.72734  -0.72645
 Alpha  occ. eigenvalues --   -0.72383  -0.72113  -0.71068  -0.70698  -0.70675
 Alpha  occ. eigenvalues --   -0.69500  -0.69117  -0.68465  -0.67272  -0.66971
 Alpha  occ. eigenvalues --   -0.66532  -0.65876  -0.65615  -0.65034  -0.64614
 Alpha  occ. eigenvalues --   -0.64373  -0.62650  -0.61966  -0.61334  -0.60965
 Alpha  occ. eigenvalues --   -0.60320  -0.59825  -0.59789  -0.59500  -0.58880
 Alpha  occ. eigenvalues --   -0.58453  -0.57555  -0.56715  -0.56192  -0.55218
 Alpha  occ. eigenvalues --   -0.53492  -0.53073  -0.52365  -0.52120  -0.51595
 Alpha  occ. eigenvalues --   -0.51252  -0.51061  -0.50694  -0.50058  -0.49903
 Alpha  occ. eigenvalues --   -0.49670  -0.49556  -0.49372  -0.47589  -0.46721
 Alpha  occ. eigenvalues --   -0.46467  -0.45811  -0.45566  -0.44614  -0.43933
 Alpha  occ. eigenvalues --   -0.43681  -0.43351  -0.43244  -0.42731  -0.42596
 Alpha  occ. eigenvalues --   -0.42203  -0.41893  -0.41639  -0.41459  -0.41241
 Alpha  occ. eigenvalues --   -0.41132  -0.40443  -0.40400  -0.39953  -0.39919
 Alpha  occ. eigenvalues --   -0.39735  -0.39489  -0.39468  -0.39236  -0.39141
 Alpha  occ. eigenvalues --   -0.38963  -0.38843  -0.38450  -0.38255  -0.38178
 Alpha  occ. eigenvalues --   -0.38004  -0.38002  -0.37589  -0.37452  -0.37314
 Alpha  occ. eigenvalues --   -0.37248  -0.37154  -0.37016  -0.36909  -0.36693
 Alpha  occ. eigenvalues --   -0.36499  -0.36093  -0.35980  -0.35802  -0.35569
 Alpha  occ. eigenvalues --   -0.35498  -0.35460  -0.35247  -0.34586  -0.34512
 Alpha  occ. eigenvalues --   -0.34382  -0.34357  -0.34280  -0.33953  -0.33753
 Alpha  occ. eigenvalues --   -0.33629  -0.33492  -0.33362  -0.33315  -0.33183
 Alpha  occ. eigenvalues --   -0.32791  -0.32585  -0.32535  -0.32451  -0.32201
 Alpha  occ. eigenvalues --   -0.31993  -0.31918  -0.31663  -0.31595  -0.31291
 Alpha  occ. eigenvalues --   -0.31134  -0.31038  -0.30853  -0.30529  -0.30266
 Alpha  occ. eigenvalues --   -0.30220  -0.30048  -0.29928  -0.29863  -0.29813
 Alpha  occ. eigenvalues --   -0.29586  -0.29502  -0.29385  -0.29097  -0.28949
 Alpha  occ. eigenvalues --   -0.28576  -0.28526  -0.28153  -0.27964  -0.27879
 Alpha  occ. eigenvalues --   -0.27764  -0.27290  -0.27118  -0.26803  -0.26311
 Alpha  occ. eigenvalues --   -0.26214  -0.25796  -0.25744  -0.25596  -0.25242
 Alpha  occ. eigenvalues --   -0.24923  -0.24390  -0.24249  -0.23771  -0.23213
 Alpha  occ. eigenvalues --   -0.23150  -0.22776  -0.21965  -0.21386  -0.20913
 Alpha  occ. eigenvalues --   -0.19984  -0.19708  -0.18248  -0.18141  -0.17063
 Alpha  occ. eigenvalues --   -0.15251
 Alpha virt. eigenvalues --   -0.10952  -0.06519  -0.05521  -0.04567  -0.04007
 Alpha virt. eigenvalues --   -0.03127  -0.02035  -0.01238  -0.00958   0.00673
 Alpha virt. eigenvalues --    0.01446   0.01774   0.01902   0.02409   0.02739

 Mulliken charges:
               1
     1  Mg   0.702855
     2  C    0.055226
     3  C   -0.069037
     4  C   -0.071846
     5  C   -0.085640
     6  N   -0.227495
     7  C   -0.069667
     8  C    0.005253
     9  C   -0.007439
    10  C   -0.021058
    11  C    0.147714
    12  C    0.150111
    13  C    0.152010
    14  C    0.086059
    15  O   -0.190537
    16  O   -0.286703
    17  N   -0.307651
    18  C    0.170906
    19  C   -0.174321
    20  C   -0.010260
    21  C    0.110945
    22  C    0.199287
    23  C   -0.082004
    24  O   -0.172095
    25  C    0.166477
    26  N   -0.120733
    27  C    0.022965
    28  C    0.008657
    29  C    0.048238
    30  C   -0.086718
    31  C    0.126311
    32  C    0.065872
    33  C    0.056962
    34  N   -0.255349
    35  C    0.158364
    36  C   -0.160691
    37  C    0.114796
    38  C    0.033213
    39  C    0.170342
    40  C   -0.085214
    41  O   -0.142074
    42  C    0.053395
    43  C    0.105105
    44  O   -0.161344
    45  O   -0.271292
    46  C    0.228093
    47  C    0.335957
    48  C   -0.154552
    49  C   -0.074561
    50  C    0.137273
    51  C    0.090127
    52  C    0.081707
    53  C    0.076420
    54  C   -0.061974
    55  C    0.123020
    56  C    0.136168
    57  C    0.053962
    58  C    0.095856
    59  C   -0.084579
    60  C    0.120040
    61  C    0.148825
    62  C    0.032419
    63  C    0.071673
    64  C   -0.094153
    65  C    0.120780
    66  C    0.103240
    67  H   -0.083934
    68  H   -0.048380
    69  H   -0.071206
    70  H   -0.000970
    71  H   -0.022949
    72  H    0.011563
    73  H    0.006057
    74  H   -0.016174
    75  H   -0.020005
    76  H   -0.026783
    77  H   -0.015165
    78  H   -0.008769
    79  H    0.004186
    80  H   -0.004312
    81  H   -0.035398
    82  H    0.036446
    83  H    0.009874
    84  H   -0.008598
    85  H   -0.025960
    86  H   -0.026066
    87  H   -0.007616
    88  H    0.005362
    89  H   -0.019684
    90  H   -0.027215
    91  H   -0.012313
    92  H    0.004954
    93  H   -0.008176
    94  H    0.006292
    95  H    0.009235
    96  H    0.020722
    97  H    0.001226
    98  H   -0.005798
    99  H    0.010561
   100  H    0.005097
   101  H    0.021096
   102  H    0.004555
   103  H   -0.011549
   104  H   -0.037490
   105  H   -0.016061
   106  H    0.010651
   107  H    0.004391
   108  H   -0.016777
   109  H   -0.035113
   110  H   -0.029553
   111  H   -0.029183
   112  H   -0.045660
   113  H   -0.045233
   114  H   -0.031094
   115  H   -0.022401
   116  H   -0.021740
   117  H   -0.026394
   118  H   -0.028051
   119  H   -0.040699
   120  H   -0.038073
   121  H   -0.020799
   122  H   -0.044789
   123  H   -0.030991
   124  H   -0.036093
   125  H   -0.023599
   126  H   -0.028293
   127  H   -0.026123
   128  H   -0.032900
   129  H   -0.037534
   130  H   -0.027970
   131  H   -0.030239
   132  H   -0.041473
   133  H   -0.050812
   134  H   -0.029842
   135  H   -0.020306
   136  H   -0.014960
   137  H   -0.010574
   138  H   -0.011354
   139  H   -0.005026
   140  H   -0.015687
 Sum of Mulliken charges =  -0.00000

 Dipole moment (field-independent basis, Debye):
    X=              3.9955    Y=              1.8586    Z=             -3.6512  Tot=              5.7227
 Quadrupole moment (field-independent basis, Debye-Ang):
   XX=           -378.0455   YY=           -433.4398   ZZ=           -403.7364
   XY=            -25.3328   XZ=             -2.7611   YZ=             18.2444

 Normal termination of Gaussian 16 at Wed Apr 27 02:31:30 2022.
