 Gaussian 16, Revision A.03,
 Gaussian 16:  ES64L-G16RevA.03 25-Dec-2016

 -----------------------------------
 #p cam-b3lyp/Def2SVP td=(nstates=5)
 -----------------------------------

 ------------------------------------------------------
 step_101_chromophore_9 TDDFT with cam-b3lyp functional
 ------------------------------------------------------
 Symbolic Z-matrix:
 Charge =  0 Multiplicity = 1

                         Standard orientation:
 ---------------------------------------------------------------------
 Center     Atomic      Atomic             Coordinates (Angstroms)
 Number     Number       Type             X           Y           Z
 ---------------------------------------------------------------------
      1         12           0       -5.102216    0.800763   -0.318646
      2          6           0       -4.110604   -2.619714   -0.103473
      3          6           0       -1.912133    1.590700   -0.778146
      4          6           0       -6.076348    3.943904    0.023566
      5          6           0       -8.132069   -0.178216    1.019591
      6          7           0       -3.268080   -0.380173   -0.403649
      7          6           0       -3.038342   -1.762263   -0.313113
      8          6           0       -1.549833   -2.153829   -0.571393
      9          6           0       -0.886260   -0.715429   -0.533410
     10          6           0       -2.075242    0.217078   -0.642926
     11          6           0        0.035178   -0.501711    0.685883
     12          6           0       -1.191396   -2.890625   -1.919639
     13          6           0        0.185216   -3.586614   -1.914816
     14          6           0        1.246258   -3.382876   -0.821955
     15          8           0        1.256676   -3.890082    0.286936
     16          8           0        2.223071   -2.464829   -1.196321
     17          7           0       -4.126088    2.552237   -0.482363
     18          6           0       -2.793715    2.674956   -0.751273
     19          6           0       -2.430460    4.058966   -0.801431
     20          6           0       -3.723195    4.788337   -0.677296
     21          6           0       -4.727348    3.742239   -0.316224
     22          6           0       -1.033489    4.563948   -1.086956
     23          6           0       -3.910410    6.380607   -0.895119
     24          8           0       -5.002047    6.901095   -0.677830
     25          6           0       -2.838469    7.304095   -1.367072
     26          7           0       -6.950139    1.728136    0.339367
     27          6           0       -7.051144    3.041733    0.324953
     28          6           0       -8.316662    3.573169    0.973631
     29          6           0       -9.071376    2.251440    1.221492
     30          6           0       -8.044120    1.217170    0.776955
     31          6           0       -8.070405    4.481798    2.173053
     32          6           0      -10.447663    2.178374    0.485568
     33          6           0      -10.402993    2.010127   -1.105150
     34          7           0       -6.029129   -1.015325    0.176051
     35          6           0       -7.343939   -1.220865    0.631065
     36          6           0       -7.635108   -2.658331    0.663418
     37          6           0       -6.373327   -3.252842    0.482975
     38          6           0       -5.461289   -2.234113    0.127626
     39          6           0       -8.905071   -3.266191    0.986638
     40          6           0       -5.639456   -4.498552    0.526475
     41          8           0       -5.996458   -5.644547    0.797047
     42          6           0       -4.168652   -4.144316    0.126348
     43          6           0       -3.368791   -4.594774    1.323945
     44          8           0       -3.317106   -4.013388    2.372636
     45          8           0       -2.574069   -5.631181    0.912362
     46          6           0       -1.546064   -6.015229    1.862539
     47          6           0        3.462703   -2.483285   -0.365503
     48          6           0        4.610686   -2.273586   -1.298514
     49          6           0        5.278258   -3.105493   -2.093192
     50          6           0        5.233217   -4.628494   -2.221769
     51          6           0        6.288778   -2.472052   -3.114950
     52          6           0        7.460629   -1.727710   -2.574051
     53          6           0        8.011795   -0.655185   -3.507515
     54          6           0        8.558736    0.548431   -2.752990
     55          6           0        8.512888    1.723061   -3.702942
     56          6           0       10.029763    0.189424   -2.371223
     57          6           0       10.403129    0.652524   -0.965482
     58          6           0       11.697595    1.489670   -0.779911
     59          6           0       11.516910    2.716780    0.249299
     60          6           0       12.234525    3.937616   -0.301359
     61          6           0       11.955188    2.376866    1.636714
     62          6           0       10.652587    1.864339    2.344688
     63          6           0       11.019792    0.713048    3.360959
     64          6           0       10.869508    1.121428    4.852038
     65          6           0       12.045611    0.524448    5.607391
     66          6           0        9.447113    0.632763    5.446994
     67          1           0       -0.854080    1.814263   -0.928903
     68          1           0       -6.409443    4.981564    0.097010
     69          1           0       -9.180638   -0.304611    1.296520
     70          1           0       -1.121286   -2.655774    0.296482
     71          1           0       -0.461658   -0.458114   -1.504341
     72          1           0        0.313314   -1.441563    1.163150
     73          1           0       -0.282688    0.262465    1.394660
     74          1           0        0.965613   -0.197165    0.205896
     75          1           0       -1.350694   -2.271721   -2.802915
     76          1           0       -1.953650   -3.657621   -2.053025
     77          1           0        0.671657   -3.614448   -2.890139
     78          1           0       -0.102587   -4.636736   -1.876260
     79          1           0       -0.399970    3.845223   -1.607823
     80          1           0       -0.555195    4.755865   -0.126263
     81          1           0       -1.179571    5.534036   -1.561134
     82          1           0       -2.503190    6.872957   -2.310511
     83          1           0       -2.131082    7.286348   -0.537343
     84          1           0       -3.155208    8.345541   -1.422555
     85          1           0       -8.973701    4.187539    0.358337
     86          1           0       -9.237289    1.980204    2.264264
     87          1           0       -8.423863    5.502350    2.024559
     88          1           0       -6.998200    4.458655    2.365214
     89          1           0       -8.610397    4.175038    3.069458
     90          1           0      -10.750596    3.217788    0.608187
     91          1           0      -11.173436    1.515133    0.957017
     92          1           0       -9.380128    2.215995   -1.421694
     93          1           0      -11.008962    2.771487   -1.594917
     94          1           0      -10.793691    1.021141   -1.344251
     95          1           0       -9.337642   -2.936598    1.931413
     96          1           0       -8.896188   -4.342112    0.809403
     97          1           0       -9.397111   -2.641708    0.240393
     98          1           0       -3.951265   -4.757486   -0.748536
     99          1           0       -2.000433   -6.444037    2.756107
    100          1           0       -1.200045   -5.023045    2.150019
    101          1           0       -0.738470   -6.574552    1.389316
    102          1           0        3.612157   -3.409691    0.189949
    103          1           0        3.519380   -1.639489    0.322497
    104          1           0        4.927362   -1.233729   -1.223553
    105          1           0        4.601501   -5.183427   -1.527989
    106          1           0        6.235598   -5.052136   -2.155310
    107          1           0        4.776007   -4.794331   -3.197870
    108          1           0        5.615270   -1.729915   -3.543267
    109          1           0        6.694106   -3.099979   -3.908346
    110          1           0        8.247018   -2.474963   -2.471974
    111          1           0        7.176440   -1.271954   -1.625735
    112          1           0        7.350434   -0.452621   -4.349820
    113          1           0        8.802529   -1.217180   -4.005929
    114          1           0        7.921012    0.761246   -1.894322
    115          1           0        9.115256    1.556331   -4.596109
    116          1           0        8.807433    2.644066   -3.199754
    117          1           0        7.507764    1.853097   -4.103967
    118          1           0       10.768333    0.563235   -3.080625
    119          1           0       10.026673   -0.900430   -2.362559
    120          1           0       10.504074   -0.282428   -0.414806
    121          1           0        9.549655    1.142778   -0.497099
    122          1           0       11.872820    1.841186   -1.796464
    123          1           0       12.633208    0.964227   -0.590168
    124          1           0       10.462367    2.994082    0.229105
    125          1           0       11.503044    4.726700   -0.472526
    126          1           0       12.698141    3.730900   -1.266448
    127          1           0       12.998028    4.321900    0.375368
    128          1           0       12.440531    3.134884    2.251993
    129          1           0       12.719880    1.601405    1.584381
    130          1           0        9.834374    1.535339    1.703675
    131          1           0       10.213427    2.701672    2.886961
    132          1           0       11.951072    0.203104    3.116811
    133          1           0       10.362840   -0.082786    3.008202
    134          1           0       10.944602    2.208411    4.826967
    135          1           0       11.759166    0.349249    6.644348
    136          1           0       12.855427    1.248599    5.522790
    137          1           0       12.313132   -0.407740    5.109031
    138          1           0        8.833361    0.314705    4.604390
    139          1           0        9.090407    1.491097    6.016012
    140          1           0        9.553919   -0.221989    6.114570
 ---------------------------------------------------------------------

 SCF Done:  E(RCAM-B3LYP) =  -3007.12075870     A.U. after   19 cycles

 Excitation energies and oscillator strengths:

 Excited State   1:      Singlet-A      1.7290 eV  717.07 nm  f=0.3778  <S**2>=0.000
     245 -> 248        0.17574
     246 -> 247        0.68485
     245 <- 248        0.10555
 This state for optimization and/or second-order correction.
 Total Energy, E(TD-HF/TD-DFT) =  -3007.05721810
 Copying the excited state density for this state as the 1-particle RhoCI density.

 Excited State   2:      Singlet-A      2.3113 eV  536.42 nm  f=0.0779  <S**2>=0.000
     245 -> 247        0.61700
     246 -> 248       -0.32816

 Excited State   3:      Singlet-A      3.4089 eV  363.70 nm  f=0.0532  <S**2>=0.000
     243 -> 247        0.48869
     244 -> 247       -0.43550
     246 -> 248        0.20810

 Excited State   4:      Singlet-A      3.4639 eV  357.93 nm  f=0.2281  <S**2>=0.000
     243 -> 247        0.21742
     244 -> 247        0.46813
     245 -> 247        0.18058
     246 -> 248        0.42693

 Excited State   5:      Singlet-A      3.5208 eV  352.14 nm  f=0.0672  <S**2>=0.000
     241 -> 247        0.50539
     241 -> 249       -0.30127
     241 -> 252        0.10444
     243 -> 247       -0.18402
     244 -> 247       -0.15013
     246 -> 248        0.12920

 The electronic state is 1-A.
 Alpha  occ. eigenvalues --  -46.87983 -19.25288 -19.23883 -19.20988 -19.19358
 Alpha  occ. eigenvalues --  -19.18563 -19.18365 -14.41522 -14.41504 -14.39008
 Alpha  occ. eigenvalues --  -14.38730 -10.40580 -10.38318 -10.35252 -10.34438
 Alpha  occ. eigenvalues --  -10.32206 -10.31172 -10.30216 -10.30003 -10.29817
 Alpha  occ. eigenvalues --  -10.29789 -10.29520 -10.29162 -10.28970 -10.28530
 Alpha  occ. eigenvalues --  -10.28441 -10.28432 -10.28400 -10.28390 -10.28382
 Alpha  occ. eigenvalues --  -10.27820 -10.27752 -10.27420 -10.27356 -10.27201
 Alpha  occ. eigenvalues --  -10.27171 -10.26938 -10.26911 -10.26853 -10.26622
 Alpha  occ. eigenvalues --  -10.26421 -10.26149 -10.26013 -10.25923 -10.25854
 Alpha  occ. eigenvalues --  -10.25846 -10.25780 -10.25671 -10.25593 -10.25473
 Alpha  occ. eigenvalues --  -10.25357 -10.25216 -10.25213 -10.25146 -10.25060
 Alpha  occ. eigenvalues --  -10.24935 -10.24868 -10.24720 -10.24693 -10.24617
 Alpha  occ. eigenvalues --  -10.24555 -10.24516 -10.24464 -10.24100 -10.24042
 Alpha  occ. eigenvalues --  -10.23630  -3.16635  -1.91536  -1.91091  -1.90941
 Alpha  occ. eigenvalues --   -1.16333  -1.16097  -1.09291  -1.08968  -1.08076
 Alpha  occ. eigenvalues --   -1.07953  -1.06867  -1.03277  -1.02819  -1.01902
 Alpha  occ. eigenvalues --   -0.91844  -0.91498  -0.90015  -0.89492  -0.89344
 Alpha  occ. eigenvalues --   -0.89090  -0.88860  -0.87884  -0.87257  -0.87197
 Alpha  occ. eigenvalues --   -0.85889  -0.85469  -0.84748  -0.83543  -0.83057
 Alpha  occ. eigenvalues --   -0.82600  -0.81976  -0.81458  -0.81033  -0.80501
 Alpha  occ. eigenvalues --   -0.80164  -0.78371  -0.77503  -0.76835  -0.76304
 Alpha  occ. eigenvalues --   -0.75679  -0.75164  -0.75145  -0.74735  -0.74117
 Alpha  occ. eigenvalues --   -0.73507  -0.72602  -0.71618  -0.71036  -0.69929
 Alpha  occ. eigenvalues --   -0.68152  -0.67542  -0.66710  -0.66457  -0.65696
 Alpha  occ. eigenvalues --   -0.65462  -0.65330  -0.64758  -0.64043  -0.63696
 Alpha  occ. eigenvalues --   -0.63590  -0.63487  -0.63316  -0.61401  -0.60315
 Alpha  occ. eigenvalues --   -0.60110  -0.59250  -0.59090  -0.58047  -0.57758
 Alpha  occ. eigenvalues --   -0.57052  -0.56554  -0.56375  -0.55725  -0.55644
 Alpha  occ. eigenvalues --   -0.55318  -0.55117  -0.54700  -0.54457  -0.54335
 Alpha  occ. eigenvalues --   -0.54227  -0.53233  -0.53054  -0.52925  -0.52530
 Alpha  occ. eigenvalues --   -0.52307  -0.52104  -0.52008  -0.51885  -0.51723
 Alpha  occ. eigenvalues --   -0.51335  -0.51239  -0.51138  -0.50942  -0.50662
 Alpha  occ. eigenvalues --   -0.50656  -0.50172  -0.50018  -0.49768  -0.49686
 Alpha  occ. eigenvalues --   -0.49550  -0.49421  -0.49343  -0.49187  -0.48911
 Alpha  occ. eigenvalues --   -0.48622  -0.48490  -0.48337  -0.48091  -0.47869
 Alpha  occ. eigenvalues --   -0.47793  -0.47450  -0.47254  -0.46862  -0.46439
 Alpha  occ. eigenvalues --   -0.46268  -0.46226  -0.45947  -0.45773  -0.45449
 Alpha  occ. eigenvalues --   -0.45307  -0.45225  -0.45100  -0.44983  -0.44753
 Alpha  occ. eigenvalues --   -0.44651  -0.44451  -0.44268  -0.44037  -0.43921
 Alpha  occ. eigenvalues --   -0.43649  -0.43530  -0.43312  -0.43172  -0.42867
 Alpha  occ. eigenvalues --   -0.42640  -0.42559  -0.42461  -0.42038  -0.41985
 Alpha  occ. eigenvalues --   -0.41820  -0.41545  -0.41360  -0.41082  -0.40984
 Alpha  occ. eigenvalues --   -0.40671  -0.40588  -0.40573  -0.40422  -0.40108
 Alpha  occ. eigenvalues --   -0.39945  -0.39560  -0.39492  -0.38974  -0.38809
 Alpha  occ. eigenvalues --   -0.38623  -0.38122  -0.37923  -0.37652  -0.37306
 Alpha  occ. eigenvalues --   -0.37184  -0.36869  -0.36735  -0.36413  -0.35902
 Alpha  occ. eigenvalues --   -0.35849  -0.35503  -0.35191  -0.34803  -0.34345
 Alpha  occ. eigenvalues --   -0.34035  -0.33161  -0.32956  -0.30962  -0.30739
 Alpha  occ. eigenvalues --   -0.30477  -0.30276  -0.29372  -0.28823  -0.23921
 Alpha  occ. eigenvalues --   -0.20469
 Alpha virt. eigenvalues --   -0.07970  -0.01373   0.00906   0.02776   0.03115
 Alpha virt. eigenvalues --    0.03250   0.04455   0.05917   0.06617   0.07124
 Alpha virt. eigenvalues --    0.07909   0.08307   0.08844   0.08983   0.09166

 Mulliken charges:
               1
     1  Mg   0.837381
     2  C    0.018559
     3  C   -0.087890
     4  C   -0.083826
     5  C   -0.082026
     6  N   -0.299840
     7  C   -0.024807
     8  C   -0.043210
     9  C   -0.060789
    10  C    0.004190
    11  C    0.086342
    12  C    0.101801
    13  C    0.084764
    14  C    0.157295
    15  O   -0.230528
    16  O   -0.349041
    17  N   -0.399231
    18  C    0.181021
    19  C   -0.183472
    20  C   -0.068826
    21  C    0.130363
    22  C    0.141138
    23  C   -0.003971
    24  O   -0.213931
    25  C    0.078701
    26  N   -0.190848
    27  C    0.031320
    28  C   -0.045903
    29  C   -0.011656
    30  C   -0.064076
    31  C    0.064835
    32  C    0.011927
    33  C   -0.002050
    34  N   -0.343145
    35  C    0.159731
    36  C   -0.146350
    37  C    0.031708
    38  C    0.076925
    39  C    0.111939
    40  C    0.013608
    41  O   -0.179655
    42  C   -0.015689
    43  C    0.191240
    44  O   -0.197370
    45  O   -0.334541
    46  C    0.185310
    47  C    0.306246
    48  C   -0.177299
    49  C   -0.096501
    50  C    0.078552
    51  C    0.032185
    52  C    0.032613
    53  C    0.015998
    54  C   -0.121380
    55  C    0.065500
    56  C    0.081572
    57  C    0.003453
    58  C    0.047202
    59  C   -0.146699
    60  C    0.062507
    61  C    0.096374
    62  C   -0.019906
    63  C    0.014926
    64  C   -0.149838
    65  C    0.060695
    66  C    0.045165
    67  H   -0.049906
    68  H   -0.005351
    69  H   -0.037764
    70  H    0.031146
    71  H    0.012247
    72  H    0.033759
    73  H    0.033548
    74  H    0.007406
    75  H    0.010893
    76  H    0.003354
    77  H    0.020299
    78  H    0.023967
    79  H    0.029803
    80  H    0.023530
    81  H   -0.008600
    82  H    0.059593
    83  H    0.036080
    84  H    0.027723
    85  H    0.008986
    86  H    0.010701
    87  H    0.017384
    88  H    0.032077
    89  H    0.006044
    90  H    0.002144
    91  H    0.015121
    92  H    0.025401
    93  H    0.016811
    94  H    0.028283
    95  H    0.037619
    96  H    0.049250
    97  H    0.025274
    98  H    0.037683
    99  H    0.035097
   100  H    0.028681
   101  H    0.045078
   102  H    0.034807
   103  H    0.014888
   104  H   -0.006231
   105  H    0.008551
   106  H    0.033619
   107  H    0.027432
   108  H    0.013539
   109  H   -0.004854
   110  H   -0.002997
   111  H   -0.004093
   112  H   -0.014432
   113  H   -0.014458
   114  H   -0.000006
   115  H    0.001560
   116  H    0.002969
   117  H   -0.000926
   118  H    0.000143
   119  H   -0.010267
   120  H   -0.009970
   121  H    0.002352
   122  H   -0.016958
   123  H   -0.002548
   124  H   -0.003407
   125  H    0.000825
   126  H   -0.003113
   127  H   -0.001371
   128  H   -0.003167
   129  H   -0.010182
   130  H   -0.001383
   131  H   -0.002123
   132  H   -0.011936
   133  H   -0.021006
   134  H    0.000143
   135  H    0.004294
   136  H    0.008882
   137  H    0.011749
   138  H    0.011486
   139  H    0.018048
   140  H    0.007987
 Sum of Mulliken charges =  -0.00000

 Dipole moment (field-independent basis, Debye):
    X=              3.8934    Y=              1.7645    Z=             -3.7941  Tot=              5.7155
 Quadrupole moment (field-independent basis, Debye-Ang):
   XX=           -374.0812   YY=           -430.6445   ZZ=           -403.5629
   XY=            -24.2813   XZ=             -3.6418   YZ=             18.4481

 Normal termination of Gaussian 16 at Wed Apr 27 01:36:41 2022.
