 Gaussian 16, Revision A.03,
 Gaussian 16:  ES64L-G16RevA.03 25-Dec-2016

 ---------------------------------
 #p PBE1PBE/Def2SVP td=(nstates=5)
 ---------------------------------

 ----------------------------------------------------
 step_101_chromophore_9 TDDFT with PBE1PBE functional
 ----------------------------------------------------
 Symbolic Z-matrix:
 Charge =  0 Multiplicity = 1

                         Standard orientation:
 ---------------------------------------------------------------------
 Center     Atomic      Atomic             Coordinates (Angstroms)
 Number     Number       Type             X           Y           Z
 ---------------------------------------------------------------------
      1         12           0       -5.102216    0.800763   -0.318646
      2          6           0       -4.110604   -2.619714   -0.103473
      3          6           0       -1.912133    1.590700   -0.778146
      4          6           0       -6.076348    3.943904    0.023566
      5          6           0       -8.132069   -0.178216    1.019591
      6          7           0       -3.268080   -0.380173   -0.403649
      7          6           0       -3.038342   -1.762263   -0.313113
      8          6           0       -1.549833   -2.153829   -0.571393
      9          6           0       -0.886260   -0.715429   -0.533410
     10          6           0       -2.075242    0.217078   -0.642926
     11          6           0        0.035178   -0.501711    0.685883
     12          6           0       -1.191396   -2.890625   -1.919639
     13          6           0        0.185216   -3.586614   -1.914816
     14          6           0        1.246258   -3.382876   -0.821955
     15          8           0        1.256676   -3.890082    0.286936
     16          8           0        2.223071   -2.464829   -1.196321
     17          7           0       -4.126088    2.552237   -0.482363
     18          6           0       -2.793715    2.674956   -0.751273
     19          6           0       -2.430460    4.058966   -0.801431
     20          6           0       -3.723195    4.788337   -0.677296
     21          6           0       -4.727348    3.742239   -0.316224
     22          6           0       -1.033489    4.563948   -1.086956
     23          6           0       -3.910410    6.380607   -0.895119
     24          8           0       -5.002047    6.901095   -0.677830
     25          6           0       -2.838469    7.304095   -1.367072
     26          7           0       -6.950139    1.728136    0.339367
     27          6           0       -7.051144    3.041733    0.324953
     28          6           0       -8.316662    3.573169    0.973631
     29          6           0       -9.071376    2.251440    1.221492
     30          6           0       -8.044120    1.217170    0.776955
     31          6           0       -8.070405    4.481798    2.173053
     32          6           0      -10.447663    2.178374    0.485568
     33          6           0      -10.402993    2.010127   -1.105150
     34          7           0       -6.029129   -1.015325    0.176051
     35          6           0       -7.343939   -1.220865    0.631065
     36          6           0       -7.635108   -2.658331    0.663418
     37          6           0       -6.373327   -3.252842    0.482975
     38          6           0       -5.461289   -2.234113    0.127626
     39          6           0       -8.905071   -3.266191    0.986638
     40          6           0       -5.639456   -4.498552    0.526475
     41          8           0       -5.996458   -5.644547    0.797047
     42          6           0       -4.168652   -4.144316    0.126348
     43          6           0       -3.368791   -4.594774    1.323945
     44          8           0       -3.317106   -4.013388    2.372636
     45          8           0       -2.574069   -5.631181    0.912362
     46          6           0       -1.546064   -6.015229    1.862539
     47          6           0        3.462703   -2.483285   -0.365503
     48          6           0        4.610686   -2.273586   -1.298514
     49          6           0        5.278258   -3.105493   -2.093192
     50          6           0        5.233217   -4.628494   -2.221769
     51          6           0        6.288778   -2.472052   -3.114950
     52          6           0        7.460629   -1.727710   -2.574051
     53          6           0        8.011795   -0.655185   -3.507515
     54          6           0        8.558736    0.548431   -2.752990
     55          6           0        8.512888    1.723061   -3.702942
     56          6           0       10.029763    0.189424   -2.371223
     57          6           0       10.403129    0.652524   -0.965482
     58          6           0       11.697595    1.489670   -0.779911
     59          6           0       11.516910    2.716780    0.249299
     60          6           0       12.234525    3.937616   -0.301359
     61          6           0       11.955188    2.376866    1.636714
     62          6           0       10.652587    1.864339    2.344688
     63          6           0       11.019792    0.713048    3.360959
     64          6           0       10.869508    1.121428    4.852038
     65          6           0       12.045611    0.524448    5.607391
     66          6           0        9.447113    0.632763    5.446994
     67          1           0       -0.854080    1.814263   -0.928903
     68          1           0       -6.409443    4.981564    0.097010
     69          1           0       -9.180638   -0.304611    1.296520
     70          1           0       -1.121286   -2.655774    0.296482
     71          1           0       -0.461658   -0.458114   -1.504341
     72          1           0        0.313314   -1.441563    1.163150
     73          1           0       -0.282688    0.262465    1.394660
     74          1           0        0.965613   -0.197165    0.205896
     75          1           0       -1.350694   -2.271721   -2.802915
     76          1           0       -1.953650   -3.657621   -2.053025
     77          1           0        0.671657   -3.614448   -2.890139
     78          1           0       -0.102587   -4.636736   -1.876260
     79          1           0       -0.399970    3.845223   -1.607823
     80          1           0       -0.555195    4.755865   -0.126263
     81          1           0       -1.179571    5.534036   -1.561134
     82          1           0       -2.503190    6.872957   -2.310511
     83          1           0       -2.131082    7.286348   -0.537343
     84          1           0       -3.155208    8.345541   -1.422555
     85          1           0       -8.973701    4.187539    0.358337
     86          1           0       -9.237289    1.980204    2.264264
     87          1           0       -8.423863    5.502350    2.024559
     88          1           0       -6.998200    4.458655    2.365214
     89          1           0       -8.610397    4.175038    3.069458
     90          1           0      -10.750596    3.217788    0.608187
     91          1           0      -11.173436    1.515133    0.957017
     92          1           0       -9.380128    2.215995   -1.421694
     93          1           0      -11.008962    2.771487   -1.594917
     94          1           0      -10.793691    1.021141   -1.344251
     95          1           0       -9.337642   -2.936598    1.931413
     96          1           0       -8.896188   -4.342112    0.809403
     97          1           0       -9.397111   -2.641708    0.240393
     98          1           0       -3.951265   -4.757486   -0.748536
     99          1           0       -2.000433   -6.444037    2.756107
    100          1           0       -1.200045   -5.023045    2.150019
    101          1           0       -0.738470   -6.574552    1.389316
    102          1           0        3.612157   -3.409691    0.189949
    103          1           0        3.519380   -1.639489    0.322497
    104          1           0        4.927362   -1.233729   -1.223553
    105          1           0        4.601501   -5.183427   -1.527989
    106          1           0        6.235598   -5.052136   -2.155310
    107          1           0        4.776007   -4.794331   -3.197870
    108          1           0        5.615270   -1.729915   -3.543267
    109          1           0        6.694106   -3.099979   -3.908346
    110          1           0        8.247018   -2.474963   -2.471974
    111          1           0        7.176440   -1.271954   -1.625735
    112          1           0        7.350434   -0.452621   -4.349820
    113          1           0        8.802529   -1.217180   -4.005929
    114          1           0        7.921012    0.761246   -1.894322
    115          1           0        9.115256    1.556331   -4.596109
    116          1           0        8.807433    2.644066   -3.199754
    117          1           0        7.507764    1.853097   -4.103967
    118          1           0       10.768333    0.563235   -3.080625
    119          1           0       10.026673   -0.900430   -2.362559
    120          1           0       10.504074   -0.282428   -0.414806
    121          1           0        9.549655    1.142778   -0.497099
    122          1           0       11.872820    1.841186   -1.796464
    123          1           0       12.633208    0.964227   -0.590168
    124          1           0       10.462367    2.994082    0.229105
    125          1           0       11.503044    4.726700   -0.472526
    126          1           0       12.698141    3.730900   -1.266448
    127          1           0       12.998028    4.321900    0.375368
    128          1           0       12.440531    3.134884    2.251993
    129          1           0       12.719880    1.601405    1.584381
    130          1           0        9.834374    1.535339    1.703675
    131          1           0       10.213427    2.701672    2.886961
    132          1           0       11.951072    0.203104    3.116811
    133          1           0       10.362840   -0.082786    3.008202
    134          1           0       10.944602    2.208411    4.826967
    135          1           0       11.759166    0.349249    6.644348
    136          1           0       12.855427    1.248599    5.522790
    137          1           0       12.313132   -0.407740    5.109031
    138          1           0        8.833361    0.314705    4.604390
    139          1           0        9.090407    1.491097    6.016012
    140          1           0        9.553919   -0.221989    6.114570
 ---------------------------------------------------------------------

 SCF Done:  E(RPBE1PBE) =  -3005.31018560     A.U. after   15 cycles

 Excitation energies and oscillator strengths:

 Excited State   1:      Singlet-A      1.8797 eV  659.60 nm  f=0.3638  <S**2>=0.000
     245 -> 248        0.16889
     246 -> 247        0.69275
     246 <- 247       -0.10951
 This state for optimization and/or second-order correction.
 Total Energy, E(TD-HF/TD-DFT) =  -3005.24110800
 Copying the excited state density for this state as the 1-particle RhoCI density.

 Excited State   2:      Singlet-A      2.3111 eV  536.48 nm  f=0.0847  <S**2>=0.000
     245 -> 247        0.63389
     246 -> 248       -0.29369

 Excited State   3:      Singlet-A      3.0408 eV  407.73 nm  f=0.0008  <S**2>=0.000
     241 -> 247        0.17020
     242 -> 247        0.19973
     243 -> 247       -0.20863
     244 -> 247        0.60557

 Excited State   4:      Singlet-A      3.0528 eV  406.13 nm  f=0.0049  <S**2>=0.000
     241 -> 247        0.48527
     241 -> 249       -0.12447
     242 -> 247        0.27357
     242 -> 249       -0.10388
     243 -> 247       -0.21355
     244 -> 247       -0.32240

 Excited State   5:      Singlet-A      3.1446 eV  394.28 nm  f=0.0004  <S**2>=0.000
     242 -> 247        0.33597
     243 -> 247        0.58117
     246 -> 248        0.12812

 The electronic state is 1-A.
 Alpha  occ. eigenvalues --  -46.91394 -19.25977 -19.24511 -19.21244 -19.19522
 Alpha  occ. eigenvalues --  -19.18667 -19.18663 -14.41159 -14.40842 -14.38721
 Alpha  occ. eigenvalues --  -14.38331 -10.37621 -10.35283 -10.32520 -10.31478
 Alpha  occ. eigenvalues --  -10.29599 -10.28835 -10.27658 -10.27618 -10.27594
 Alpha  occ. eigenvalues --  -10.27395 -10.27091 -10.26946 -10.26788 -10.26261
 Alpha  occ. eigenvalues --  -10.26108 -10.26051 -10.25974 -10.25914 -10.25800
 Alpha  occ. eigenvalues --  -10.25704 -10.25672 -10.25215 -10.25052 -10.25019
 Alpha  occ. eigenvalues --  -10.24931 -10.24764 -10.24554 -10.24243 -10.24152
 Alpha  occ. eigenvalues --  -10.23793 -10.23590 -10.23579 -10.23571 -10.23443
 Alpha  occ. eigenvalues --  -10.23354 -10.23321 -10.23307 -10.23172 -10.22989
 Alpha  occ. eigenvalues --  -10.22952 -10.22932 -10.22758 -10.22732 -10.22636
 Alpha  occ. eigenvalues --  -10.22533 -10.22436 -10.22286 -10.22179 -10.22174
 Alpha  occ. eigenvalues --  -10.22122 -10.22023 -10.21920 -10.21648 -10.21475
 Alpha  occ. eigenvalues --  -10.21027  -3.13623  -1.86465  -1.85998  -1.85853
 Alpha  occ. eigenvalues --   -1.11114  -1.10819  -1.04110  -1.03588  -1.02862
 Alpha  occ. eigenvalues --   -1.02816  -1.01491  -0.97924  -0.97500  -0.96564
 Alpha  occ. eigenvalues --   -0.86118  -0.85654  -0.84164  -0.83662  -0.83643
 Alpha  occ. eigenvalues --   -0.83248  -0.83192  -0.82087  -0.81566  -0.81364
 Alpha  occ. eigenvalues --   -0.80182  -0.79732  -0.78992  -0.77801  -0.77303
 Alpha  occ. eigenvalues --   -0.76839  -0.76208  -0.75666  -0.75288  -0.74634
 Alpha  occ. eigenvalues --   -0.74531  -0.72638  -0.71831  -0.71176  -0.70507
 Alpha  occ. eigenvalues --   -0.70028  -0.69495  -0.69223  -0.68931  -0.68292
 Alpha  occ. eigenvalues --   -0.67841  -0.67015  -0.66007  -0.65401  -0.64244
 Alpha  occ. eigenvalues --   -0.62563  -0.61791  -0.61115  -0.60728  -0.60162
 Alpha  occ. eigenvalues --   -0.59902  -0.59638  -0.58887  -0.58604  -0.58155
 Alpha  occ. eigenvalues --   -0.58061  -0.57864  -0.57496  -0.55928  -0.54667
 Alpha  occ. eigenvalues --   -0.54638  -0.53882  -0.53606  -0.52628  -0.52069
 Alpha  occ. eigenvalues --   -0.51643  -0.51096  -0.50788  -0.50257  -0.50120
 Alpha  occ. eigenvalues --   -0.49877  -0.49573  -0.49299  -0.48917  -0.48820
 Alpha  occ. eigenvalues --   -0.48639  -0.47837  -0.47552  -0.47443  -0.47060
 Alpha  occ. eigenvalues --   -0.46848  -0.46617  -0.46570  -0.46396  -0.46285
 Alpha  occ. eigenvalues --   -0.45891  -0.45766  -0.45662  -0.45456  -0.45296
 Alpha  occ. eigenvalues --   -0.45193  -0.44691  -0.44584  -0.44332  -0.44253
 Alpha  occ. eigenvalues --   -0.44112  -0.44031  -0.43944  -0.43831  -0.43526
 Alpha  occ. eigenvalues --   -0.43219  -0.43132  -0.42969  -0.42633  -0.42518
 Alpha  occ. eigenvalues --   -0.42458  -0.42056  -0.41941  -0.41502  -0.41166
 Alpha  occ. eigenvalues --   -0.40953  -0.40786  -0.40637  -0.40532  -0.40151
 Alpha  occ. eigenvalues --   -0.39998  -0.39936  -0.39852  -0.39688  -0.39406
 Alpha  occ. eigenvalues --   -0.39327  -0.39222  -0.39059  -0.38889  -0.38690
 Alpha  occ. eigenvalues --   -0.38465  -0.38368  -0.38092  -0.37914  -0.37710
 Alpha  occ. eigenvalues --   -0.37474  -0.37332  -0.37203  -0.36889  -0.36736
 Alpha  occ. eigenvalues --   -0.36597  -0.36259  -0.36223  -0.35890  -0.35853
 Alpha  occ. eigenvalues --   -0.35520  -0.35417  -0.35331  -0.35252  -0.34928
 Alpha  occ. eigenvalues --   -0.34823  -0.34438  -0.34319  -0.33888  -0.33628
 Alpha  occ. eigenvalues --   -0.33423  -0.32910  -0.32731  -0.32622  -0.32324
 Alpha  occ. eigenvalues --   -0.32117  -0.31902  -0.31662  -0.31474  -0.30797
 Alpha  occ. eigenvalues --   -0.30704  -0.30367  -0.29990  -0.29752  -0.29575
 Alpha  occ. eigenvalues --   -0.28901  -0.28418  -0.28118  -0.26579  -0.26038
 Alpha  occ. eigenvalues --   -0.25265  -0.25189  -0.24892  -0.24478  -0.20804
 Alpha  occ. eigenvalues --   -0.18141
 Alpha virt. eigenvalues --   -0.10488  -0.04857  -0.03271  -0.01453  -0.01372
 Alpha virt. eigenvalues --   -0.00086   0.00232   0.01733   0.02018   0.03595
 Alpha virt. eigenvalues --    0.04179   0.04780   0.04937   0.05313   0.05657

 Mulliken charges:
               1
     1  Mg   0.986900
     2  C   -0.000077
     3  C   -0.083514
     4  C   -0.076267
     5  C   -0.070457
     6  N   -0.399990
     7  C    0.042566
     8  C   -0.112615
     9  C   -0.132225
    10  C    0.048395
    11  C    0.025911
    12  C    0.045859
    13  C    0.019350
    14  C    0.215478
    15  O   -0.263232
    16  O   -0.376266
    17  N   -0.524027
    18  C    0.206760
    19  C   -0.204243
    20  C   -0.109240
    21  C    0.165187
    22  C    0.073889
    23  C    0.046030
    24  O   -0.247694
    25  C   -0.001673
    26  N   -0.305085
    27  C    0.062231
    28  C   -0.118473
    29  C   -0.094860
    30  C   -0.007761
    31  C    0.008232
    32  C   -0.049872
    33  C   -0.074719
    34  N   -0.464647
    35  C    0.167894
    36  C   -0.163648
    37  C   -0.016291
    38  C    0.134001
    39  C    0.057955
    40  C    0.104535
    41  O   -0.226898
    42  C   -0.122007
    43  C    0.283870
    44  O   -0.232176
    45  O   -0.367759
    46  C    0.129826
    47  C    0.263186
    48  C   -0.193223
    49  C   -0.133587
    50  C    0.016027
    51  C   -0.030476
    52  C   -0.027876
    53  C   -0.040479
    54  C   -0.214381
    55  C    0.006543
    56  C    0.029274
    57  C   -0.055806
    58  C   -0.003198
    59  C   -0.242899
    60  C    0.006548
    61  C    0.048859
    62  C   -0.084295
    63  C   -0.034304
    64  C   -0.241236
    65  C   -0.003890
    66  C   -0.016480
    67  H   -0.015913
    68  H    0.026644
    69  H   -0.006487
    70  H    0.071476
    71  H    0.048560
    72  H    0.060857
    73  H    0.060631
    74  H    0.036505
    75  H    0.041395
    76  H    0.039195
    77  H    0.051011
    78  H    0.056216
    79  H    0.056454
    80  H    0.053658
    81  H    0.023947
    82  H    0.084808
    83  H    0.064321
    84  H    0.056273
    85  H    0.045740
    86  H    0.048182
    87  H    0.044371
    88  H    0.061134
    89  H    0.034381
    90  H    0.037312
    91  H    0.045565
    92  H    0.055189
    93  H    0.044337
    94  H    0.055803
    95  H    0.064211
    96  H    0.075660
    97  H    0.053702
    98  H    0.073776
    99  H    0.057958
   100  H    0.050552
   101  H    0.066276
   102  H    0.060900
   103  H    0.040476
   104  H    0.022503
   105  H    0.036293
   106  H    0.060677
   107  H    0.055722
   108  H    0.047655
   109  H    0.026334
   110  H    0.030572
   111  H    0.028201
   112  H    0.016181
   113  H    0.020304
   114  H    0.035415
   115  H    0.029256
   116  H    0.032405
   117  H    0.027835
   118  H    0.030478
   119  H    0.024428
   120  H    0.024390
   121  H    0.032295
   122  H    0.016544
   123  H    0.028073
   124  H    0.035249
   125  H    0.028338
   126  H    0.023852
   127  H    0.025981
   128  H    0.027953
   129  H    0.021803
   130  H    0.031422
   131  H    0.031150
   132  H    0.018852
   133  H    0.011628
   134  H    0.037302
   135  H    0.032508
   136  H    0.037619
   137  H    0.039422
   138  H    0.038669
   139  H    0.045290
   140  H    0.034866
 Sum of Mulliken charges =  -0.00000

 Dipole moment (field-independent basis, Debye):
    X=              4.0903    Y=              2.0414    Z=             -3.8556  Tot=              5.9803
 Quadrupole moment (field-independent basis, Debye-Ang):
   XX=           -370.1942   YY=           -427.5951   ZZ=           -400.9596
   XY=            -26.2238   XZ=             -4.5003   YZ=             18.8150

 Normal termination of Gaussian 16 at Wed Apr 27 01:54:48 2022.
