 Gaussian 16, Revision A.03,
 Gaussian 16:  ES64L-G16RevA.03 25-Dec-2016

 --------------------------------
 #p wB97XD/Def2SVP td=(nstates=5)
 --------------------------------

 ---------------------------------------------------
 step_101_chromophore_9 TDDFT with wB97XD functional
 ---------------------------------------------------
 Symbolic Z-matrix:
 Charge =  0 Multiplicity = 1

                         Standard orientation:
 ---------------------------------------------------------------------
 Center     Atomic      Atomic             Coordinates (Angstroms)
 Number     Number       Type             X           Y           Z
 ---------------------------------------------------------------------
      1         12           0       -5.102216    0.800763   -0.318646
      2          6           0       -4.110604   -2.619714   -0.103473
      3          6           0       -1.912133    1.590700   -0.778146
      4          6           0       -6.076348    3.943904    0.023566
      5          6           0       -8.132069   -0.178216    1.019591
      6          7           0       -3.268080   -0.380173   -0.403649
      7          6           0       -3.038342   -1.762263   -0.313113
      8          6           0       -1.549833   -2.153829   -0.571393
      9          6           0       -0.886260   -0.715429   -0.533410
     10          6           0       -2.075242    0.217078   -0.642926
     11          6           0        0.035178   -0.501711    0.685883
     12          6           0       -1.191396   -2.890625   -1.919639
     13          6           0        0.185216   -3.586614   -1.914816
     14          6           0        1.246258   -3.382876   -0.821955
     15          8           0        1.256676   -3.890082    0.286936
     16          8           0        2.223071   -2.464829   -1.196321
     17          7           0       -4.126088    2.552237   -0.482363
     18          6           0       -2.793715    2.674956   -0.751273
     19          6           0       -2.430460    4.058966   -0.801431
     20          6           0       -3.723195    4.788337   -0.677296
     21          6           0       -4.727348    3.742239   -0.316224
     22          6           0       -1.033489    4.563948   -1.086956
     23          6           0       -3.910410    6.380607   -0.895119
     24          8           0       -5.002047    6.901095   -0.677830
     25          6           0       -2.838469    7.304095   -1.367072
     26          7           0       -6.950139    1.728136    0.339367
     27          6           0       -7.051144    3.041733    0.324953
     28          6           0       -8.316662    3.573169    0.973631
     29          6           0       -9.071376    2.251440    1.221492
     30          6           0       -8.044120    1.217170    0.776955
     31          6           0       -8.070405    4.481798    2.173053
     32          6           0      -10.447663    2.178374    0.485568
     33          6           0      -10.402993    2.010127   -1.105150
     34          7           0       -6.029129   -1.015325    0.176051
     35          6           0       -7.343939   -1.220865    0.631065
     36          6           0       -7.635108   -2.658331    0.663418
     37          6           0       -6.373327   -3.252842    0.482975
     38          6           0       -5.461289   -2.234113    0.127626
     39          6           0       -8.905071   -3.266191    0.986638
     40          6           0       -5.639456   -4.498552    0.526475
     41          8           0       -5.996458   -5.644547    0.797047
     42          6           0       -4.168652   -4.144316    0.126348
     43          6           0       -3.368791   -4.594774    1.323945
     44          8           0       -3.317106   -4.013388    2.372636
     45          8           0       -2.574069   -5.631181    0.912362
     46          6           0       -1.546064   -6.015229    1.862539
     47          6           0        3.462703   -2.483285   -0.365503
     48          6           0        4.610686   -2.273586   -1.298514
     49          6           0        5.278258   -3.105493   -2.093192
     50          6           0        5.233217   -4.628494   -2.221769
     51          6           0        6.288778   -2.472052   -3.114950
     52          6           0        7.460629   -1.727710   -2.574051
     53          6           0        8.011795   -0.655185   -3.507515
     54          6           0        8.558736    0.548431   -2.752990
     55          6           0        8.512888    1.723061   -3.702942
     56          6           0       10.029763    0.189424   -2.371223
     57          6           0       10.403129    0.652524   -0.965482
     58          6           0       11.697595    1.489670   -0.779911
     59          6           0       11.516910    2.716780    0.249299
     60          6           0       12.234525    3.937616   -0.301359
     61          6           0       11.955188    2.376866    1.636714
     62          6           0       10.652587    1.864339    2.344688
     63          6           0       11.019792    0.713048    3.360959
     64          6           0       10.869508    1.121428    4.852038
     65          6           0       12.045611    0.524448    5.607391
     66          6           0        9.447113    0.632763    5.446994
     67          1           0       -0.854080    1.814263   -0.928903
     68          1           0       -6.409443    4.981564    0.097010
     69          1           0       -9.180638   -0.304611    1.296520
     70          1           0       -1.121286   -2.655774    0.296482
     71          1           0       -0.461658   -0.458114   -1.504341
     72          1           0        0.313314   -1.441563    1.163150
     73          1           0       -0.282688    0.262465    1.394660
     74          1           0        0.965613   -0.197165    0.205896
     75          1           0       -1.350694   -2.271721   -2.802915
     76          1           0       -1.953650   -3.657621   -2.053025
     77          1           0        0.671657   -3.614448   -2.890139
     78          1           0       -0.102587   -4.636736   -1.876260
     79          1           0       -0.399970    3.845223   -1.607823
     80          1           0       -0.555195    4.755865   -0.126263
     81          1           0       -1.179571    5.534036   -1.561134
     82          1           0       -2.503190    6.872957   -2.310511
     83          1           0       -2.131082    7.286348   -0.537343
     84          1           0       -3.155208    8.345541   -1.422555
     85          1           0       -8.973701    4.187539    0.358337
     86          1           0       -9.237289    1.980204    2.264264
     87          1           0       -8.423863    5.502350    2.024559
     88          1           0       -6.998200    4.458655    2.365214
     89          1           0       -8.610397    4.175038    3.069458
     90          1           0      -10.750596    3.217788    0.608187
     91          1           0      -11.173436    1.515133    0.957017
     92          1           0       -9.380128    2.215995   -1.421694
     93          1           0      -11.008962    2.771487   -1.594917
     94          1           0      -10.793691    1.021141   -1.344251
     95          1           0       -9.337642   -2.936598    1.931413
     96          1           0       -8.896188   -4.342112    0.809403
     97          1           0       -9.397111   -2.641708    0.240393
     98          1           0       -3.951265   -4.757486   -0.748536
     99          1           0       -2.000433   -6.444037    2.756107
    100          1           0       -1.200045   -5.023045    2.150019
    101          1           0       -0.738470   -6.574552    1.389316
    102          1           0        3.612157   -3.409691    0.189949
    103          1           0        3.519380   -1.639489    0.322497
    104          1           0        4.927362   -1.233729   -1.223553
    105          1           0        4.601501   -5.183427   -1.527989
    106          1           0        6.235598   -5.052136   -2.155310
    107          1           0        4.776007   -4.794331   -3.197870
    108          1           0        5.615270   -1.729915   -3.543267
    109          1           0        6.694106   -3.099979   -3.908346
    110          1           0        8.247018   -2.474963   -2.471974
    111          1           0        7.176440   -1.271954   -1.625735
    112          1           0        7.350434   -0.452621   -4.349820
    113          1           0        8.802529   -1.217180   -4.005929
    114          1           0        7.921012    0.761246   -1.894322
    115          1           0        9.115256    1.556331   -4.596109
    116          1           0        8.807433    2.644066   -3.199754
    117          1           0        7.507764    1.853097   -4.103967
    118          1           0       10.768333    0.563235   -3.080625
    119          1           0       10.026673   -0.900430   -2.362559
    120          1           0       10.504074   -0.282428   -0.414806
    121          1           0        9.549655    1.142778   -0.497099
    122          1           0       11.872820    1.841186   -1.796464
    123          1           0       12.633208    0.964227   -0.590168
    124          1           0       10.462367    2.994082    0.229105
    125          1           0       11.503044    4.726700   -0.472526
    126          1           0       12.698141    3.730900   -1.266448
    127          1           0       12.998028    4.321900    0.375368
    128          1           0       12.440531    3.134884    2.251993
    129          1           0       12.719880    1.601405    1.584381
    130          1           0        9.834374    1.535339    1.703675
    131          1           0       10.213427    2.701672    2.886961
    132          1           0       11.951072    0.203104    3.116811
    133          1           0       10.362840   -0.082786    3.008202
    134          1           0       10.944602    2.208411    4.826967
    135          1           0       11.759166    0.349249    6.644348
    136          1           0       12.855427    1.248599    5.522790
    137          1           0       12.313132   -0.407740    5.109031
    138          1           0        8.833361    0.314705    4.604390
    139          1           0        9.090407    1.491097    6.016012
    140          1           0        9.553919   -0.221989    6.114570
 ---------------------------------------------------------------------

 SCF Done:  E(RwB97XD) =  -3007.81936528     A.U. after   19 cycles

 Excitation energies and oscillator strengths:

 Excited State   1:      Singlet-A      1.6745 eV  740.44 nm  f=0.3764  <S**2>=0.000
     245 -> 248        0.18112
     246 -> 247        0.68268
     245 <- 248        0.11466
 This state for optimization and/or second-order correction.
 Total Energy, E(TD-HF/TD-DFT) =  -3007.75782944
 Copying the excited state density for this state as the 1-particle RhoCI density.

 Excited State   2:      Singlet-A      2.2562 eV  549.53 nm  f=0.0764  <S**2>=0.000
     245 -> 247        0.61591
     246 -> 248       -0.32890

 Excited State   3:      Singlet-A      3.4194 eV  362.59 nm  f=0.0913  <S**2>=0.000
     243 -> 247        0.54214
     244 -> 247       -0.29963
     245 -> 247        0.10822
     246 -> 248        0.28147

 Excited State   4:      Singlet-A      3.4915 eV  355.10 nm  f=0.2406  <S**2>=0.000
     244 -> 247        0.51505
     244 -> 249        0.10007
     245 -> 247        0.17912
     246 -> 248        0.40623

 Excited State   5:      Singlet-A      3.5430 eV  349.94 nm  f=0.0245  <S**2>=0.000
     241 -> 247        0.51505
     241 -> 249       -0.33455
     241 -> 250       -0.15058
     243 -> 247       -0.14839
     244 -> 247       -0.18336

 The electronic state is 1-A.
 Alpha  occ. eigenvalues --  -46.94320 -19.30500 -19.29128 -19.25893 -19.24295
 Alpha  occ. eigenvalues --  -19.23658 -19.23350 -14.46112 -14.46062 -14.43574
 Alpha  occ. eigenvalues --  -14.43356 -10.44399 -10.42169 -10.39201 -10.38495
 Alpha  occ. eigenvalues --  -10.36092 -10.35255 -10.33986 -10.33931 -10.33795
 Alpha  occ. eigenvalues --  -10.33758 -10.33595 -10.33113 -10.32944 -10.32570
 Alpha  occ. eigenvalues --  -10.32566 -10.32520 -10.32416 -10.32350 -10.32333
 Alpha  occ. eigenvalues --  -10.31911 -10.31863 -10.31460 -10.31428 -10.31287
 Alpha  occ. eigenvalues --  -10.31224 -10.30962 -10.30864 -10.30673 -10.30514
 Alpha  occ. eigenvalues --  -10.30258 -10.30202 -10.29922 -10.29837 -10.29788
 Alpha  occ. eigenvalues --  -10.29772 -10.29752 -10.29610 -10.29514 -10.29389
 Alpha  occ. eigenvalues --  -10.29331 -10.29184 -10.29094 -10.29064 -10.28983
 Alpha  occ. eigenvalues --  -10.28954 -10.28875 -10.28623 -10.28537 -10.28530
 Alpha  occ. eigenvalues --  -10.28495 -10.28378 -10.28342 -10.27965 -10.27896
 Alpha  occ. eigenvalues --  -10.27436  -3.20395  -1.93989  -1.93521  -1.93373
 Alpha  occ. eigenvalues --   -1.18471  -1.18269  -1.11470  -1.11236  -1.10286
 Alpha  occ. eigenvalues --   -1.10140  -1.08867  -1.05286  -1.04846  -1.03921
 Alpha  occ. eigenvalues --   -0.93837  -0.93283  -0.91808  -0.91300  -0.91199
 Alpha  occ. eigenvalues --   -0.90883  -0.90784  -0.89857  -0.89118  -0.89011
 Alpha  occ. eigenvalues --   -0.87763  -0.87336  -0.86606  -0.85476  -0.84925
 Alpha  occ. eigenvalues --   -0.84464  -0.83859  -0.83313  -0.82978  -0.82293
 Alpha  occ. eigenvalues --   -0.82124  -0.80300  -0.79409  -0.78742  -0.78151
 Alpha  occ. eigenvalues --   -0.77622  -0.77110  -0.76924  -0.76574  -0.75937
 Alpha  occ. eigenvalues --   -0.75420  -0.74584  -0.73554  -0.72975  -0.71841
 Alpha  occ. eigenvalues --   -0.70150  -0.69407  -0.68638  -0.68335  -0.67628
 Alpha  occ. eigenvalues --   -0.67391  -0.67249  -0.66557  -0.66031  -0.65600
 Alpha  occ. eigenvalues --   -0.65490  -0.65481  -0.65127  -0.63402  -0.62192
 Alpha  occ. eigenvalues --   -0.62074  -0.61238  -0.61053  -0.60042  -0.59709
 Alpha  occ. eigenvalues --   -0.59047  -0.58484  -0.58255  -0.57675  -0.57542
 Alpha  occ. eigenvalues --   -0.57281  -0.57024  -0.56671  -0.56367  -0.56256
 Alpha  occ. eigenvalues --   -0.56080  -0.55164  -0.54953  -0.54854  -0.54409
 Alpha  occ. eigenvalues --   -0.54200  -0.54001  -0.53902  -0.53759  -0.53662
 Alpha  occ. eigenvalues --   -0.53214  -0.53157  -0.53047  -0.52896  -0.52574
 Alpha  occ. eigenvalues --   -0.52531  -0.52029  -0.51928  -0.51677  -0.51606
 Alpha  occ. eigenvalues --   -0.51417  -0.51304  -0.51231  -0.51079  -0.50859
 Alpha  occ. eigenvalues --   -0.50559  -0.50376  -0.50246  -0.49936  -0.49805
 Alpha  occ. eigenvalues --   -0.49686  -0.49307  -0.49167  -0.48816  -0.48376
 Alpha  occ. eigenvalues --   -0.48222  -0.48044  -0.47819  -0.47708  -0.47329
 Alpha  occ. eigenvalues --   -0.47196  -0.47119  -0.47002  -0.46861  -0.46606
 Alpha  occ. eigenvalues --   -0.46588  -0.46352  -0.46177  -0.45969  -0.45829
 Alpha  occ. eigenvalues --   -0.45573  -0.45425  -0.45233  -0.45056  -0.44774
 Alpha  occ. eigenvalues --   -0.44528  -0.44466  -0.44347  -0.43985  -0.43910
 Alpha  occ. eigenvalues --   -0.43811  -0.43393  -0.43344  -0.42952  -0.42901
 Alpha  occ. eigenvalues --   -0.42572  -0.42480  -0.42432  -0.42350  -0.41977
 Alpha  occ. eigenvalues --   -0.41862  -0.41389  -0.41377  -0.40859  -0.40670
 Alpha  occ. eigenvalues --   -0.40468  -0.39956  -0.39761  -0.39542  -0.39288
 Alpha  occ. eigenvalues --   -0.39131  -0.38852  -0.38588  -0.38404  -0.37869
 Alpha  occ. eigenvalues --   -0.37724  -0.37357  -0.37085  -0.36643  -0.36354
 Alpha  occ. eigenvalues --   -0.36001  -0.35194  -0.34984  -0.33170  -0.32769
 Alpha  occ. eigenvalues --   -0.32493  -0.32190  -0.31576  -0.30954  -0.25842
 Alpha  occ. eigenvalues --   -0.22278
 Alpha virt. eigenvalues --   -0.06311   0.00554   0.02953   0.05160   0.05372
 Alpha virt. eigenvalues --    0.06102   0.06711   0.08405   0.08787   0.09950
 Alpha virt. eigenvalues --    0.10877   0.11565   0.11793   0.12031   0.12402

 Mulliken charges:
               1
     1  Mg   0.976235
     2  C   -0.002178
     3  C   -0.099255
     4  C   -0.088537
     5  C   -0.083606
     6  N   -0.370155
     7  C    0.014332
     8  C   -0.081581
     9  C   -0.107387
    10  C    0.031927
    11  C    0.037960
    12  C    0.058187
    13  C    0.030580
    14  C    0.201654
    15  O   -0.258812
    16  O   -0.374440
    17  N   -0.487206
    18  C    0.197877
    19  C   -0.199871
    20  C   -0.105707
    21  C    0.152855
    22  C    0.091460
    23  C    0.041855
    24  O   -0.244546
    25  C    0.011869
    26  N   -0.263581
    27  C    0.045330
    28  C   -0.095331
    29  C   -0.064703
    30  C   -0.033195
    31  C    0.017607
    32  C   -0.036907
    33  C   -0.055692
    34  N   -0.429683
    35  C    0.165475
    36  C   -0.153378
    37  C   -0.015322
    38  C    0.118328
    39  C    0.065693
    40  C    0.088603
    41  O   -0.216032
    42  C   -0.082466
    43  C    0.259211
    44  O   -0.226959
    45  O   -0.366527
    46  C    0.144995
    47  C    0.276710
    48  C   -0.199167
    49  C   -0.124164
    50  C    0.029844
    51  C   -0.011337
    52  C   -0.011064
    53  C   -0.020858
    54  C   -0.183484
    55  C    0.018279
    56  C    0.043800
    57  C   -0.036667
    58  C    0.010771
    59  C   -0.204313
    60  C    0.017537
    61  C    0.057437
    62  C   -0.064360
    63  C   -0.020730
    64  C   -0.212173
    65  C    0.010331
    66  C   -0.003899
    67  H   -0.025500
    68  H    0.021213
    69  H   -0.013209
    70  H    0.053460
    71  H    0.036883
    72  H    0.053551
    73  H    0.056768
    74  H    0.029178
    75  H    0.035790
    76  H    0.028830
    77  H    0.047337
    78  H    0.050622
    79  H    0.051769
    80  H    0.048080
    81  H    0.014214
    82  H    0.079198
    83  H    0.057744
    84  H    0.055207
    85  H    0.034672
    86  H    0.038555
    87  H    0.039787
    88  H    0.053475
    89  H    0.028649
    90  H    0.026523
    91  H    0.040149
    92  H    0.044503
    93  H    0.039827
    94  H    0.050011
    95  H    0.061533
    96  H    0.074754
    97  H    0.045549
    98  H    0.068392
    99  H    0.054150
   100  H    0.045594
   101  H    0.064607
   102  H    0.055462
   103  H    0.037472
   104  H    0.018402
   105  H    0.031147
   106  H    0.055329
   107  H    0.049048
   108  H    0.036781
   109  H    0.020501
   110  H    0.021716
   111  H    0.014677
   112  H    0.007708
   113  H    0.009175
   114  H    0.024551
   115  H    0.022298
   116  H    0.026309
   117  H    0.021282
   118  H    0.022061
   119  H    0.012824
   120  H    0.015748
   121  H    0.017469
   122  H    0.002898
   123  H    0.021388
   124  H    0.020623
   125  H    0.023122
   126  H    0.017585
   127  H    0.020019
   128  H    0.021231
   129  H    0.010591
   130  H    0.020130
   131  H    0.021572
   132  H    0.008443
   133  H    0.002409
   134  H    0.025147
   135  H    0.026707
   136  H    0.031627
   137  H    0.032039
   138  H    0.032040
   139  H    0.040034
   140  H    0.029100
 Sum of Mulliken charges =  -0.00000

 Dipole moment (field-independent basis, Debye):
    X=              3.8918    Y=              1.7331    Z=             -3.8230  Tot=              5.7241
 Quadrupole moment (field-independent basis, Debye-Ang):
   XX=           -368.4845   YY=           -426.4340   ZZ=           -400.4963
   XY=            -24.0108   XZ=             -4.2244   YZ=             18.5142

 Normal termination of Gaussian 16 at Wed Apr 27 02:19:20 2022.
