 Gaussian 16, Revision A.03,
 Gaussian 16:  ES64L-G16RevA.03 25-Dec-2016

 --------------------
 #p ZINDO=(nstates=5)
 --------------------

 ----------------------------
 step_101_chromophore_9 ZINDO
 ----------------------------
 Symbolic Z-matrix:
 Charge =  0 Multiplicity = 1

                         Standard orientation:
 ---------------------------------------------------------------------
 Center     Atomic      Atomic             Coordinates (Angstroms)
 Number     Number       Type             X           Y           Z
 ---------------------------------------------------------------------
      1         12           0       -5.102216    0.800763   -0.318646
      2          6           0       -4.110604   -2.619714   -0.103473
      3          6           0       -1.912133    1.590700   -0.778146
      4          6           0       -6.076348    3.943904    0.023566
      5          6           0       -8.132069   -0.178216    1.019591
      6          7           0       -3.268080   -0.380173   -0.403649
      7          6           0       -3.038342   -1.762263   -0.313113
      8          6           0       -1.549833   -2.153829   -0.571393
      9          6           0       -0.886260   -0.715429   -0.533410
     10          6           0       -2.075242    0.217078   -0.642926
     11          6           0        0.035178   -0.501711    0.685883
     12          6           0       -1.191396   -2.890625   -1.919639
     13          6           0        0.185216   -3.586614   -1.914816
     14          6           0        1.246258   -3.382876   -0.821955
     15          8           0        1.256676   -3.890082    0.286936
     16          8           0        2.223071   -2.464829   -1.196321
     17          7           0       -4.126088    2.552237   -0.482363
     18          6           0       -2.793715    2.674956   -0.751273
     19          6           0       -2.430460    4.058966   -0.801431
     20          6           0       -3.723195    4.788337   -0.677296
     21          6           0       -4.727348    3.742239   -0.316224
     22          6           0       -1.033489    4.563948   -1.086956
     23          6           0       -3.910410    6.380607   -0.895119
     24          8           0       -5.002047    6.901095   -0.677830
     25          6           0       -2.838469    7.304095   -1.367072
     26          7           0       -6.950139    1.728136    0.339367
     27          6           0       -7.051144    3.041733    0.324953
     28          6           0       -8.316662    3.573169    0.973631
     29          6           0       -9.071376    2.251440    1.221492
     30          6           0       -8.044120    1.217170    0.776955
     31          6           0       -8.070405    4.481798    2.173053
     32          6           0      -10.447663    2.178374    0.485568
     33          6           0      -10.402993    2.010127   -1.105150
     34          7           0       -6.029129   -1.015325    0.176051
     35          6           0       -7.343939   -1.220865    0.631065
     36          6           0       -7.635108   -2.658331    0.663418
     37          6           0       -6.373327   -3.252842    0.482975
     38          6           0       -5.461289   -2.234113    0.127626
     39          6           0       -8.905071   -3.266191    0.986638
     40          6           0       -5.639456   -4.498552    0.526475
     41          8           0       -5.996458   -5.644547    0.797047
     42          6           0       -4.168652   -4.144316    0.126348
     43          6           0       -3.368791   -4.594774    1.323945
     44          8           0       -3.317106   -4.013388    2.372636
     45          8           0       -2.574069   -5.631181    0.912362
     46          6           0       -1.546064   -6.015229    1.862539
     47          6           0        3.462703   -2.483285   -0.365503
     48          6           0        4.610686   -2.273586   -1.298514
     49          6           0        5.278258   -3.105493   -2.093192
     50          6           0        5.233217   -4.628494   -2.221769
     51          6           0        6.288778   -2.472052   -3.114950
     52          6           0        7.460629   -1.727710   -2.574051
     53          6           0        8.011795   -0.655185   -3.507515
     54          6           0        8.558736    0.548431   -2.752990
     55          6           0        8.512888    1.723061   -3.702942
     56          6           0       10.029763    0.189424   -2.371223
     57          6           0       10.403129    0.652524   -0.965482
     58          6           0       11.697595    1.489670   -0.779911
     59          6           0       11.516910    2.716780    0.249299
     60          6           0       12.234525    3.937616   -0.301359
     61          6           0       11.955188    2.376866    1.636714
     62          6           0       10.652587    1.864339    2.344688
     63          6           0       11.019792    0.713048    3.360959
     64          6           0       10.869508    1.121428    4.852038
     65          6           0       12.045611    0.524448    5.607391
     66          6           0        9.447113    0.632763    5.446994
     67          1           0       -0.854080    1.814263   -0.928903
     68          1           0       -6.409443    4.981564    0.097010
     69          1           0       -9.180638   -0.304611    1.296520
     70          1           0       -1.121286   -2.655774    0.296482
     71          1           0       -0.461658   -0.458114   -1.504341
     72          1           0        0.313314   -1.441563    1.163150
     73          1           0       -0.282688    0.262465    1.394660
     74          1           0        0.965613   -0.197165    0.205896
     75          1           0       -1.350694   -2.271721   -2.802915
     76          1           0       -1.953650   -3.657621   -2.053025
     77          1           0        0.671657   -3.614448   -2.890139
     78          1           0       -0.102587   -4.636736   -1.876260
     79          1           0       -0.399970    3.845223   -1.607823
     80          1           0       -0.555195    4.755865   -0.126263
     81          1           0       -1.179571    5.534036   -1.561134
     82          1           0       -2.503190    6.872957   -2.310511
     83          1           0       -2.131082    7.286348   -0.537343
     84          1           0       -3.155208    8.345541   -1.422555
     85          1           0       -8.973701    4.187539    0.358337
     86          1           0       -9.237289    1.980204    2.264264
     87          1           0       -8.423863    5.502350    2.024559
     88          1           0       -6.998200    4.458655    2.365214
     89          1           0       -8.610397    4.175038    3.069458
     90          1           0      -10.750596    3.217788    0.608187
     91          1           0      -11.173436    1.515133    0.957017
     92          1           0       -9.380128    2.215995   -1.421694
     93          1           0      -11.008962    2.771487   -1.594917
     94          1           0      -10.793691    1.021141   -1.344251
     95          1           0       -9.337642   -2.936598    1.931413
     96          1           0       -8.896188   -4.342112    0.809403
     97          1           0       -9.397111   -2.641708    0.240393
     98          1           0       -3.951265   -4.757486   -0.748536
     99          1           0       -2.000433   -6.444037    2.756107
    100          1           0       -1.200045   -5.023045    2.150019
    101          1           0       -0.738470   -6.574552    1.389316
    102          1           0        3.612157   -3.409691    0.189949
    103          1           0        3.519380   -1.639489    0.322497
    104          1           0        4.927362   -1.233729   -1.223553
    105          1           0        4.601501   -5.183427   -1.527989
    106          1           0        6.235598   -5.052136   -2.155310
    107          1           0        4.776007   -4.794331   -3.197870
    108          1           0        5.615270   -1.729915   -3.543267
    109          1           0        6.694106   -3.099979   -3.908346
    110          1           0        8.247018   -2.474963   -2.471974
    111          1           0        7.176440   -1.271954   -1.625735
    112          1           0        7.350434   -0.452621   -4.349820
    113          1           0        8.802529   -1.217180   -4.005929
    114          1           0        7.921012    0.761246   -1.894322
    115          1           0        9.115256    1.556331   -4.596109
    116          1           0        8.807433    2.644066   -3.199754
    117          1           0        7.507764    1.853097   -4.103967
    118          1           0       10.768333    0.563235   -3.080625
    119          1           0       10.026673   -0.900430   -2.362559
    120          1           0       10.504074   -0.282428   -0.414806
    121          1           0        9.549655    1.142778   -0.497099
    122          1           0       11.872820    1.841186   -1.796464
    123          1           0       12.633208    0.964227   -0.590168
    124          1           0       10.462367    2.994082    0.229105
    125          1           0       11.503044    4.726700   -0.472526
    126          1           0       12.698141    3.730900   -1.266448
    127          1           0       12.998028    4.321900    0.375368
    128          1           0       12.440531    3.134884    2.251993
    129          1           0       12.719880    1.601405    1.584381
    130          1           0        9.834374    1.535339    1.703675
    131          1           0       10.213427    2.701672    2.886961
    132          1           0       11.951072    0.203104    3.116811
    133          1           0       10.362840   -0.082786    3.008202
    134          1           0       10.944602    2.208411    4.826967
    135          1           0       11.759166    0.349249    6.644348
    136          1           0       12.855427    1.248599    5.522790
    137          1           0       12.313132   -0.407740    5.109031
    138          1           0        8.833361    0.314705    4.604390
    139          1           0        9.090407    1.491097    6.016012
    140          1           0        9.553919   -0.221989    6.114570
 ---------------------------------------------------------------------

 SCF Done:  E(RZINDO/S) =  -474.502366758     A.U. after   19 cycles

 Excitation energies and oscillator strengths:

 Excited State   1:      Singlet-A      1.2760 eV  971.66 nm  f=0.5850  <S**2>=0.000
     175 ->178        -0.18591
     176 ->177         0.66312
 This state for optimization and/or second-order correction.
 Total Energy, E(CIS/TDA) =  -474.455474454
 Copying the excited state density for this state as the 1-particle RhoCI density.

 Excited State   2:      Singlet-A      1.9720 eV  628.72 nm  f=0.0116  <S**2>=0.000
     175 ->177         0.50602
     176 ->178         0.46772

 Excited State   3:      Singlet-A      2.9721 eV  417.15 nm  f=0.0261  <S**2>=0.000
     168 ->177         0.18735
     168 ->179        -0.25490
     168 ->186        -0.11872
     169 ->177         0.10301
     169 ->179        -0.13338
     171 ->177         0.10937
     176 ->179         0.50703

 Excited State   4:      Singlet-A      2.9932 eV  414.22 nm  f=0.3615  <S**2>=0.000
     168 ->177        -0.21763
     168 ->179         0.27794
     168 ->181        -0.10902
     168 ->186         0.11613
     175 ->177        -0.24240
     176 ->178         0.28463
     176 ->179         0.36735

 Excited State   5:      Singlet-A      3.0297 eV  409.24 nm  f=0.8523  <S**2>=0.000
     168 ->177         0.13470
     168 ->179        -0.18150
     171 ->177         0.12290
     175 ->177        -0.37091
     176 ->178         0.40949
     176 ->179        -0.19178
     176 ->181        -0.14773

 The electronic state is 1-A.
 Alpha  occ. eigenvalues --   -1.86720  -1.83070  -1.79917  -1.73989  -1.72700
 Alpha  occ. eigenvalues --   -1.70014  -1.67193  -1.62486  -1.58987  -1.57373
 Alpha  occ. eigenvalues --   -1.54749  -1.52130  -1.48975  -1.48279  -1.47026
 Alpha  occ. eigenvalues --   -1.44890  -1.43303  -1.42234  -1.38053  -1.37702
 Alpha  occ. eigenvalues --   -1.37056  -1.35256  -1.32379  -1.31582  -1.29939
 Alpha  occ. eigenvalues --   -1.28970  -1.25595  -1.23068  -1.21227  -1.18369
 Alpha  occ. eigenvalues --   -1.17500  -1.15702  -1.15273  -1.14481  -1.13041
 Alpha  occ. eigenvalues --   -1.11486  -1.10158  -1.08657  -1.04782  -1.03495
 Alpha  occ. eigenvalues --   -1.02501  -1.00289  -0.99068  -0.98325  -0.97705
 Alpha  occ. eigenvalues --   -0.97073  -0.94526  -0.93873  -0.92997  -0.91726
 Alpha  occ. eigenvalues --   -0.91294  -0.90183  -0.90031  -0.88423  -0.86820
 Alpha  occ. eigenvalues --   -0.84717  -0.83928  -0.83461  -0.81359  -0.80126
 Alpha  occ. eigenvalues --   -0.79638  -0.78549  -0.77596  -0.76472  -0.76227
 Alpha  occ. eigenvalues --   -0.75237  -0.74724  -0.74524  -0.74100  -0.73677
 Alpha  occ. eigenvalues --   -0.72576  -0.71838  -0.71242  -0.70798  -0.69944
 Alpha  occ. eigenvalues --   -0.69686  -0.69123  -0.68883  -0.68280  -0.67979
 Alpha  occ. eigenvalues --   -0.66814  -0.66738  -0.66336  -0.66183  -0.65844
 Alpha  occ. eigenvalues --   -0.65647  -0.64590  -0.64199  -0.63964  -0.63713
 Alpha  occ. eigenvalues --   -0.63219  -0.62871  -0.62574  -0.62186  -0.61853
 Alpha  occ. eigenvalues --   -0.61607  -0.61471  -0.60956  -0.60631  -0.60171
 Alpha  occ. eigenvalues --   -0.60041  -0.59842  -0.59637  -0.58995  -0.58209
 Alpha  occ. eigenvalues --   -0.57784  -0.57634  -0.57235  -0.57147  -0.56844
 Alpha  occ. eigenvalues --   -0.56292  -0.55923  -0.55596  -0.55521  -0.54233
 Alpha  occ. eigenvalues --   -0.53602  -0.53270  -0.52888  -0.52728  -0.52511
 Alpha  occ. eigenvalues --   -0.52105  -0.51444  -0.51314  -0.51197  -0.50918
 Alpha  occ. eigenvalues --   -0.50784  -0.50414  -0.50204  -0.49967  -0.49835
 Alpha  occ. eigenvalues --   -0.49473  -0.49348  -0.49178  -0.48759  -0.48711
 Alpha  occ. eigenvalues --   -0.48472  -0.48203  -0.47905  -0.47582  -0.47361
 Alpha  occ. eigenvalues --   -0.47307  -0.47032  -0.46880  -0.46801  -0.46399
 Alpha  occ. eigenvalues --   -0.46115  -0.45886  -0.45811  -0.45415  -0.44639
 Alpha  occ. eigenvalues --   -0.44395  -0.44322  -0.44150  -0.43642  -0.42994
 Alpha  occ. eigenvalues --   -0.42911  -0.42591  -0.42519  -0.42470  -0.41599
 Alpha  occ. eigenvalues --   -0.41554  -0.41353  -0.40493  -0.39754  -0.38710
 Alpha  occ. eigenvalues --   -0.38031  -0.36869  -0.35362  -0.34582  -0.34194
 Alpha  occ. eigenvalues --   -0.33011  -0.32647  -0.32301  -0.30955  -0.26488
 Alpha  occ. eigenvalues --   -0.21189
 Alpha virt. eigenvalues --   -0.07792  -0.01749  -0.00342   0.01201   0.02168
 Alpha virt. eigenvalues --    0.02569   0.03154   0.03483   0.04660   0.05324
 Alpha virt. eigenvalues --    0.06551   0.07168   0.07578   0.07906   0.08191

 Mulliken charges:
               1
     1  Mg   0.424613
     2  C   -0.062224
     3  C   -0.088426
     4  C   -0.042532
     5  C   -0.067814
     6  N   -0.301645
     7  C    0.140345
     8  C   -0.001984
     9  C   -0.003839
    10  C    0.120493
    11  C   -0.047907
    12  C   -0.006669
    13  C    0.003333
    14  C    0.475339
    15  O   -0.509544
    16  O   -0.273851
    17  N   -0.306196
    18  C    0.099940
    19  C   -0.030736
    20  C   -0.079178
    21  C    0.118193
    22  C   -0.046495
    23  C    0.318899
    24  O   -0.534392
    25  C   -0.021112
    26  N   -0.227978
    27  C    0.104821
    28  C    0.001758
    29  C    0.006670
    30  C    0.145698
    31  C   -0.051698
    32  C   -0.041276
    33  C   -0.060212
    34  N   -0.340695
    35  C    0.107560
    36  C    0.076641
    37  C   -0.058884
    38  C    0.144230
    39  C   -0.040398
    40  C    0.335805
    41  O   -0.526662
    42  C    0.050272
    43  C    0.497089
    44  O   -0.512500
    45  O   -0.274822
    46  C    0.066297
    47  C    0.106076
    48  C   -0.086410
    49  C    0.002266
    50  C   -0.040079
    51  C   -0.031985
    52  C   -0.030337
    53  C   -0.037976
    54  C   -0.004667
    55  C   -0.053681
    56  C   -0.033820
    57  C   -0.039903
    58  C   -0.042549
    59  C   -0.005204
    60  C   -0.062213
    61  C   -0.025946
    62  C   -0.046974
    63  C   -0.051014
    64  C   -0.016644
    65  C   -0.054841
    66  C   -0.062566
    67  H    0.010375
    68  H    0.041956
    69  H    0.011417
    70  H    0.052306
    71  H    0.029760
    72  H    0.033453
    73  H    0.036008
    74  H    0.011422
    75  H    0.030782
    76  H    0.015787
    77  H    0.033852
    78  H    0.031091
    79  H    0.032765
    80  H    0.027020
    81  H    0.028762
    82  H    0.044528
    83  H    0.038876
    84  H    0.040995
    85  H    0.033018
    86  H    0.031337
    87  H    0.022961
    88  H    0.029027
    89  H    0.012803
    90  H    0.015093
    91  H    0.028033
    92  H    0.028465
    93  H    0.020745
    94  H    0.025245
    95  H    0.043983
    96  H    0.048333
    97  H    0.039520
    98  H    0.053264
    99  H    0.050236
   100  H    0.041329
   101  H    0.043675
   102  H    0.054363
   103  H    0.041931
   104  H    0.022609
   105  H    0.021104
   106  H    0.031855
   107  H    0.026644
   108  H    0.016645
   109  H    0.023471
   110  H    0.016545
   111  H    0.020999
   112  H    0.017659
   113  H    0.009255
   114  H    0.030386
   115  H    0.018523
   116  H    0.013469
   117  H    0.009429
   118  H    0.028334
   119  H    0.017951
   120  H    0.008647
   121  H    0.022489
   122  H    0.010975
   123  H    0.027447
   124  H    0.021649
   125  H    0.012663
   126  H    0.015903
   127  H    0.017192
   128  H    0.023981
   129  H    0.016750
   130  H    0.025362
   131  H    0.014442
   132  H    0.020236
   133  H    0.006709
   134  H    0.025723
   135  H    0.017778
   136  H    0.017588
   137  H    0.023508
   138  H    0.025977
   139  H    0.023054
   140  H    0.022677
 Sum of Mulliken charges =  -0.00000

 Dipole moment (field-independent basis, Debye):
    X=              3.2261    Y=              0.4049    Z=             -5.5387  Tot=              6.4225
 N-N= 4.350971273562D+03 E-N= 0.000000000000D+00  KE=-9.376959833243D+03
 Leave Link  601 at Wed Apr 27 02:31:37 2022, MaxMem=  6710886400 cpu:               0.8 elap:               0.1
 (Enter /sw/apps/gaussian-16.0/g16/l9999.exe)
 1\1\GINC-BP1-COMPUTE155\SP\RZINDO CIS\STO-3G\C55H74Mg1N4O6\OF15641\27-
 Apr-2022\0\\#p ZINDO=(nstates=5)\\step_101_chromophore_9 ZINDO\\0,1\Mg
 ,0,35.275,1.477,29.052\C,0,32.907,2.28,31.597\C,0,37.58,1.208,31.424\C
 ,0,37.459,1.265,26.576\C,0,32.96,2.654,26.775\N,0,35.226,1.737,31.219\
 C,0,34.18,2.049,32.102\C,0,34.607,1.991,33.602\C,0,36.178,1.881,33.427
 \C,0,36.339,1.526,31.963\C,0,36.934,3.137,33.909\C,0,34.067,0.804,34.4
 9\C,0,34.197,1.039,36.009\C,0,35.008,2.185,36.634\O,0,34.667,3.352,36.

 Normal termination of Gaussian 16 at Wed Apr 27 02:31:37 2022.
