 Gaussian 16, Revision A.03,
 Gaussian 16:  ES64L-G16RevA.03 25-Dec-2016

 ------------------------------
 #p blyp/Def2SVP td=(nstates=5)
 ------------------------------

 ---------------------------------------------------
 step_1801_chromophore_23 TDDFT with blyp functional
 ---------------------------------------------------
 Symbolic Z-matrix:
 Charge =  0 Multiplicity = 1

                         Standard orientation:
 ---------------------------------------------------------------------
 Center     Atomic      Atomic             Coordinates (Angstroms)
 Number     Number       Type             X           Y           Z
 ---------------------------------------------------------------------
      1         12           0        4.778364    0.219546   -0.369855
      2          6           0        3.019499   -2.717181   -0.002443
      3          6           0        2.779358    1.095313   -2.936929
      4          6           0        5.658089    3.581217    0.148544
      5          6           0        6.191746   -0.491040    2.834606
      6          7           0        2.759808   -0.536905   -1.118383
      7          6           0        2.354793   -1.853148   -0.915469
      8          6           0        1.432784   -2.236268   -1.991447
      9          6           0        1.733130   -1.223503   -3.121263
     10          6           0        2.392358   -0.093463   -2.378751
     11          6           0        2.473982   -1.653550   -4.416448
     12          6           0       -0.086041   -2.351034   -1.517033
     13          6           0       -0.861189   -3.597655   -1.739771
     14          6           0       -2.252052   -3.325974   -2.415442
     15          8           0       -2.435686   -3.204474   -3.652757
     16          8           0       -3.226576   -3.512145   -1.451004
     17          7           0        4.489243    2.030818   -1.425374
     18          6           0        3.623028    2.173396   -2.469966
     19          6           0        3.832244    3.539815   -3.107980
     20          6           0        4.723830    4.195925   -2.216869
     21          6           0        4.976473    3.302817   -1.089973
     22          6           0        3.079550    4.139800   -4.270923
     23          6           0        5.248461    5.580218   -2.466368
     24          8           0        4.988219    6.262204   -3.435464
     25          6           0        6.326762    6.301788   -1.616951
     26          7           0        5.758859    1.435200    1.235931
     27          6           0        6.016602    2.747371    1.229774
     28          6           0        6.665884    3.215789    2.504699
     29          6           0        6.833597    1.911702    3.279243
     30          6           0        6.215681    0.856580    2.419587
     31          6           0        7.943776    4.048074    2.494622
     32          6           0        6.141005    1.976254    4.671468
     33          6           0        6.889497    1.519977    5.935704
     34          7           0        4.954482   -1.417853    1.001797
     35          6           0        5.642352   -1.621163    2.158323
     36          6           0        5.406350   -3.006177    2.666326
     37          6           0        4.411145   -3.464255    1.821018
     38          6           0        4.102955   -2.453218    0.863593
     39          6           0        5.906149   -3.682270    3.926180
     40          6           0        3.554305   -4.592814    1.563196
     41          8           0        3.443695   -5.700496    2.102465
     42          6           0        2.675566   -4.171018    0.300845
     43          6           0        3.068101   -5.080266   -0.737696
     44          8           0        4.047355   -4.935241   -1.513623
     45          8           0        1.971334   -5.946492   -0.921937
     46          6           0        1.970583   -6.762579   -2.210395
     47          6           0       -4.557814   -3.373643   -1.960224
     48          6           0       -5.343317   -2.538734   -0.972321
     49          6           0       -5.821471   -1.277397   -1.062761
     50          6           0       -5.506170   -0.350392   -2.127496
     51          6           0       -6.738888   -0.723103    0.054215
     52          6           0       -8.243486   -0.839678   -0.283786
     53          6           0       -9.112731   -1.865542    0.397613
     54          6           0      -10.181458   -1.022446    1.135561
     55          6           0      -11.582933   -1.593687    0.854853
     56          6           0       -9.793101   -0.907234    2.718750
     57          6           0      -10.187097    0.577060    3.205684
     58          6           0       -8.968977    1.191198    3.909063
     59          6           0       -7.816718    1.618381    2.898961
     60          6           0       -6.389412    1.596105    3.510221
     61          6           0       -8.177710    3.044622    2.302616
     62          6           0       -7.714442    3.143025    0.843084
     63          6           0       -7.440289    4.605109    0.381469
     64          6           0       -7.629239    4.707498   -1.150454
     65          6           0       -6.352034    4.240939   -1.819288
     66          6           0       -8.086427    6.184982   -1.472708
     67          1           0        2.473514    1.378262   -3.946952
     68          1           0        5.744398    4.664141    0.259772
     69          1           0        6.694148   -0.638302    3.793646
     70          1           0        1.769611   -3.197879   -2.378701
     71          1           0        0.794866   -0.953096   -3.604848
     72          1           0        2.131913   -2.637811   -4.735614
     73          1           0        3.523205   -1.784878   -4.152035
     74          1           0        2.368984   -0.898262   -5.195340
     75          1           0       -0.653718   -1.463390   -1.795071
     76          1           0        0.110976   -2.254962   -0.449263
     77          1           0       -0.911118   -4.117391   -0.782997
     78          1           0       -0.198935   -4.289360   -2.258624
     79          1           0        2.348925    4.835343   -3.856439
     80          1           0        2.439209    3.433468   -4.799016
     81          1           0        3.748881    4.615187   -4.986561
     82          1           0        7.166339    5.665608   -1.337647
     83          1           0        5.902705    6.645935   -0.673549
     84          1           0        6.685528    7.138678   -2.215919
     85          1           0        5.841675    3.664178    3.059033
     86          1           0        7.862324    1.605314    3.466282
     87          1           0        7.587155    5.074487    2.585608
     88          1           0        8.597291    3.993932    1.624610
     89          1           0        8.383811    3.895716    3.479746
     90          1           0        5.247821    1.398739    4.433406
     91          1           0        5.720363    2.932078    4.983864
     92          1           0        7.018964    2.419784    6.538187
     93          1           0        7.855047    1.075617    5.693484
     94          1           0        6.409779    0.728077    6.509598
     95          1           0        6.755848   -3.072717    4.234751
     96          1           0        6.262027   -4.694551    3.737349
     97          1           0        5.153701   -3.678678    4.715698
     98          1           0        1.629360   -4.260680    0.593377
     99          1           0        1.489476   -6.223824   -3.026782
    100          1           0        1.441280   -7.708360   -2.094027
    101          1           0        2.996432   -6.846425   -2.569931
    102          1           0       -4.933279   -4.386098   -2.108503
    103          1           0       -4.772598   -2.916911   -2.925826
    104          1           0       -5.704637   -3.074296   -0.095023
    105          1           0       -6.152707   -0.494978   -2.994088
    106          1           0       -4.486704   -0.358068   -2.513480
    107          1           0       -5.771612    0.680987   -1.897511
    108          1           0       -6.495851    0.339333    0.068842
    109          1           0       -6.656105   -1.195527    1.032606
    110          1           0       -8.230262   -1.222875   -1.304369
    111          1           0       -8.638109    0.174988   -0.229294
    112          1           0       -8.595494   -2.462950    1.148921
    113          1           0       -9.628747   -2.472149   -0.346545
    114          1           0      -10.390107   -0.013210    0.780735
    115          1           0      -12.316848   -1.362307    1.626531
    116          1           0      -11.514116   -2.681640    0.864272
    117          1           0      -11.966152   -1.247072   -0.104076
    118          1           0       -8.746203   -1.164442    2.873120
    119          1           0      -10.507720   -1.605389    3.154777
    120          1           0      -10.956206    0.606459    3.977583
    121          1           0      -10.526143    1.278335    2.442434
    122          1           0       -8.663338    0.472040    4.668685
    123          1           0       -9.201602    2.122654    4.425934
    124          1           0       -7.839884    0.881986    2.095614
    125          1           0       -6.352115    2.393961    4.252023
    126          1           0       -5.561811    1.792586    2.828605
    127          1           0       -6.059597    0.665309    3.972406
    128          1           0       -7.840924    3.924311    2.850479
    129          1           0       -9.267246    3.070081    2.344213
    130          1           0       -8.378769    2.521902    0.241242
    131          1           0       -6.734989    2.664274    0.826809
    132          1           0       -6.499390    4.945630    0.814207
    133          1           0       -8.244036    5.203373    0.810134
    134          1           0       -8.436804    4.066205   -1.504494
    135          1           0       -5.497247    4.767405   -1.392490
    136          1           0       -6.151167    4.687030   -2.792996
    137          1           0       -6.184640    3.167435   -1.901280
    138          1           0       -7.347229    6.608567   -2.152411
    139          1           0       -8.109429    6.872577   -0.626348
    140          1           0       -9.095623    6.027152   -1.853480
 ---------------------------------------------------------------------

 SCF Done:  E(RB-LYP) =  -3007.31905693     A.U. after   21 cycles

 Excitation energies and oscillator strengths:

 Excited State   1:      Singlet-A      1.6976 eV  730.33 nm  f=0.0058  <S**2>=0.000
     244 -> 247        0.68810
     245 -> 247       -0.13577
 This state for optimization and/or second-order correction.
 Total Energy, E(TD-HF/TD-DFT) =  -3007.25666990
 Copying the excited state density for this state as the 1-particle RhoCI density.

 Excited State   2:      Singlet-A      1.7599 eV  704.51 nm  f=0.2980  <S**2>=0.000
     245 -> 248       -0.20345
     246 -> 247        0.68311
     246 <- 247       -0.15300

 Excited State   3:      Singlet-A      1.9007 eV  652.32 nm  f=0.0516  <S**2>=0.000
     243 -> 247        0.20931
     244 -> 247        0.13545
     245 -> 247        0.61510
     246 -> 248        0.22128

 Excited State   4:      Singlet-A      2.0827 eV  595.30 nm  f=0.0084  <S**2>=0.000
     243 -> 247        0.66965
     245 -> 247       -0.17040
     246 -> 248       -0.12852

 Excited State   5:      Singlet-A      2.3264 eV  532.95 nm  f=0.0005  <S**2>=0.000
     242 -> 247        0.70152

 The electronic state is 1-A.
 Alpha  occ. eigenvalues --  -46.29513 -18.83162 -18.82239 -18.77592 -18.77299
 Alpha  occ. eigenvalues --  -18.76254 -18.75127 -14.03389 -14.03159 -14.01588
 Alpha  occ. eigenvalues --  -14.01524 -10.05052 -10.04266 -10.00048  -9.99576
 Alpha  occ. eigenvalues --   -9.97899  -9.97515  -9.96828  -9.96769  -9.96664
 Alpha  occ. eigenvalues --   -9.96585  -9.96452  -9.96445  -9.96407  -9.95160
 Alpha  occ. eigenvalues --   -9.94545  -9.94272  -9.94122  -9.93816  -9.93752
 Alpha  occ. eigenvalues --   -9.93664  -9.93571  -9.93374  -9.93337  -9.93235
 Alpha  occ. eigenvalues --   -9.93190  -9.93101  -9.93081  -9.93014  -9.92959
 Alpha  occ. eigenvalues --   -9.92917  -9.92902  -9.92606  -9.92560  -9.92340
 Alpha  occ. eigenvalues --   -9.92258  -9.92251  -9.92240  -9.92226  -9.91999
 Alpha  occ. eigenvalues --   -9.91926  -9.91817  -9.91693  -9.91388  -9.91376
 Alpha  occ. eigenvalues --   -9.91315  -9.91222  -9.91180  -9.91137  -9.91099
 Alpha  occ. eigenvalues --   -9.91030  -9.90993  -9.90899  -9.90886  -9.90817
 Alpha  occ. eigenvalues --   -9.90735  -2.93764  -1.74127  -1.73688  -1.73480
 Alpha  occ. eigenvalues --   -0.98034  -0.95566  -0.91976  -0.90932  -0.89507
 Alpha  occ. eigenvalues --   -0.88496  -0.86978  -0.86258  -0.85539  -0.84474
 Alpha  occ. eigenvalues --   -0.75815  -0.74038  -0.73326  -0.72906  -0.72689
 Alpha  occ. eigenvalues --   -0.72045  -0.71606  -0.71129  -0.70805  -0.70136
 Alpha  occ. eigenvalues --   -0.69640  -0.69401  -0.68092  -0.67844  -0.67614
 Alpha  occ. eigenvalues --   -0.66574  -0.65903  -0.65321  -0.64759  -0.64051
 Alpha  occ. eigenvalues --   -0.64003  -0.62790  -0.62489  -0.61783  -0.60889
 Alpha  occ. eigenvalues --   -0.60682  -0.60590  -0.60190  -0.59446  -0.58714
 Alpha  occ. eigenvalues --   -0.58429  -0.57900  -0.57200  -0.55376  -0.54956
 Alpha  occ. eigenvalues --   -0.54510  -0.53702  -0.52939  -0.51936  -0.51782
 Alpha  occ. eigenvalues --   -0.51315  -0.51191  -0.51038  -0.50733  -0.50339
 Alpha  occ. eigenvalues --   -0.49980  -0.49683  -0.48434  -0.48159  -0.46709
 Alpha  occ. eigenvalues --   -0.46437  -0.46100  -0.45824  -0.45615  -0.44977
 Alpha  occ. eigenvalues --   -0.44457  -0.44119  -0.43411  -0.43356  -0.42607
 Alpha  occ. eigenvalues --   -0.42208  -0.41706  -0.41621  -0.41499  -0.41315
 Alpha  occ. eigenvalues --   -0.40902  -0.40812  -0.40695  -0.40366  -0.40178
 Alpha  occ. eigenvalues --   -0.39815  -0.39798  -0.39227  -0.39204  -0.38851
 Alpha  occ. eigenvalues --   -0.38687  -0.38542  -0.38405  -0.38309  -0.38123
 Alpha  occ. eigenvalues --   -0.38013  -0.37680  -0.37597  -0.37363  -0.37342
 Alpha  occ. eigenvalues --   -0.37146  -0.36932  -0.36902  -0.36814  -0.36668
 Alpha  occ. eigenvalues --   -0.36350  -0.35911  -0.35790  -0.35763  -0.35615
 Alpha  occ. eigenvalues --   -0.35326  -0.35276  -0.35057  -0.34984  -0.34818
 Alpha  occ. eigenvalues --   -0.34576  -0.34525  -0.34295  -0.34109  -0.34071
 Alpha  occ. eigenvalues --   -0.33974  -0.33813  -0.33606  -0.33347  -0.33181
 Alpha  occ. eigenvalues --   -0.33100  -0.33001  -0.32733  -0.32559  -0.32486
 Alpha  occ. eigenvalues --   -0.32194  -0.32071  -0.31896  -0.31679  -0.31533
 Alpha  occ. eigenvalues --   -0.31435  -0.31157  -0.30907  -0.30668  -0.30615
 Alpha  occ. eigenvalues --   -0.30444  -0.30315  -0.30260  -0.29809  -0.29770
 Alpha  occ. eigenvalues --   -0.29696  -0.29559  -0.29361  -0.29084  -0.29021
 Alpha  occ. eigenvalues --   -0.28423  -0.28323  -0.28196  -0.27909  -0.27757
 Alpha  occ. eigenvalues --   -0.27564  -0.27479  -0.27231  -0.27191  -0.26842
 Alpha  occ. eigenvalues --   -0.26718  -0.25932  -0.25848  -0.25461  -0.25357
 Alpha  occ. eigenvalues --   -0.24994  -0.24921  -0.24080  -0.23548  -0.23400
 Alpha  occ. eigenvalues --   -0.23128  -0.22402  -0.22338  -0.22033  -0.21234
 Alpha  occ. eigenvalues --   -0.20439  -0.20345  -0.19241  -0.17994  -0.17302
 Alpha  occ. eigenvalues --   -0.15902
 Alpha virt. eigenvalues --   -0.11801  -0.07311  -0.06749  -0.04993  -0.04546
 Alpha virt. eigenvalues --   -0.04341  -0.04015  -0.02854  -0.02264   0.00040
 Alpha virt. eigenvalues --    0.00881   0.01535   0.01949   0.02512   0.02617

 Mulliken charges:
               1
     1  Mg   0.691369
     2  C    0.036302
     3  C   -0.043192
     4  C   -0.044894
     5  C   -0.050533
     6  N   -0.243789
     7  C   -0.042655
     8  C   -0.010640
     9  C    0.005345
    10  C    0.069049
    11  C    0.123641
    12  C    0.113590
    13  C    0.178735
    14  C    0.110642
    15  O   -0.219010
    16  O   -0.245997
    17  N   -0.291675
    18  C    0.070515
    19  C   -0.129700
    20  C    0.072182
    21  C    0.084647
    22  C    0.188411
    23  C   -0.095004
    24  O   -0.164837
    25  C    0.101658
    26  N   -0.196521
    27  C   -0.028249
    28  C    0.122487
    29  C   -0.037956
    30  C    0.015682
    31  C    0.178409
    32  C    0.053181
    33  C    0.073589
    34  N   -0.239296
    35  C    0.097740
    36  C   -0.203336
    37  C    0.141941
    38  C    0.057052
    39  C    0.171190
    40  C   -0.068550
    41  O   -0.139891
    42  C    0.032669
    43  C    0.186249
    44  O   -0.216691
    45  O   -0.306828
    46  C    0.197343
    47  C    0.327042
    48  C   -0.093645
    49  C   -0.154316
    50  C    0.166254
    51  C    0.134993
    52  C    0.045741
    53  C    0.153654
    54  C   -0.141025
    55  C    0.094494
    56  C    0.112108
    57  C    0.078381
    58  C    0.057017
    59  C   -0.067640
    60  C    0.106223
    61  C    0.096703
    62  C    0.004384
    63  C    0.114763
    64  C   -0.089437
    65  C    0.106321
    66  C    0.112512
    67  H   -0.059772
    68  H   -0.077230
    69  H   -0.066972
    70  H   -0.024813
    71  H   -0.032345
    72  H   -0.001903
    73  H   -0.013804
    74  H    0.006863
    75  H   -0.010701
    76  H   -0.029360
    77  H   -0.009702
    78  H   -0.022968
    79  H    0.009636
    80  H   -0.033115
    81  H    0.021527
    82  H   -0.006139
    83  H    0.011411
    84  H   -0.002497
    85  H   -0.032322
    86  H   -0.024050
    87  H   -0.022490
    88  H    0.011068
    89  H   -0.013439
    90  H   -0.021484
    91  H   -0.020856
    92  H   -0.002334
    93  H   -0.013559
    94  H   -0.002825
    95  H   -0.017282
    96  H    0.016494
    97  H    0.018582
    98  H    0.001894
    99  H    0.011305
   100  H    0.030587
   101  H    0.025556
   102  H   -0.017733
   103  H   -0.009070
   104  H   -0.051187
   105  H   -0.005372
   106  H    0.012540
   107  H   -0.038131
   108  H   -0.029233
   109  H   -0.022598
   110  H   -0.034537
   111  H   -0.009490
   112  H   -0.024897
   113  H   -0.034023
   114  H   -0.024875
   115  H   -0.026082
   116  H   -0.023652
   117  H   -0.010916
   118  H   -0.002211
   119  H   -0.029642
   120  H   -0.031099
   121  H   -0.025115
   122  H   -0.036181
   123  H   -0.039539
   124  H   -0.034596
   125  H   -0.021997
   126  H   -0.023234
   127  H   -0.019900
   128  H   -0.033798
   129  H   -0.042575
   130  H   -0.016332
   131  H   -0.009239
   132  H   -0.019791
   133  H   -0.040343
   134  H   -0.035828
   135  H   -0.037020
   136  H   -0.037505
   137  H    0.004256
   138  H   -0.023246
   139  H   -0.012570
   140  H   -0.005098
 Sum of Mulliken charges =  -0.00000

 Dipole moment (field-independent basis, Debye):
    X=             -1.0647    Y=              1.8159    Z=              2.2291  Tot=              3.0660
 Quadrupole moment (field-independent basis, Debye-Ang):
   XX=           -373.2964   YY=           -437.5339   ZZ=           -405.0577
   XY=              9.9759   XZ=             22.0043   YZ=             29.6437

 Normal termination of Gaussian 16 at Fri Apr 29 02:25:34 2022.
