 Gaussian 16, Revision A.03,
 Gaussian 16:  ES64L-G16RevA.03 25-Dec-2016

 -----------------------------------
 #p cam-b3lyp/Def2SVP td=(nstates=5)
 -----------------------------------

 --------------------------------------------------------
 step_1801_chromophore_23 TDDFT with cam-b3lyp functional
 --------------------------------------------------------
 Symbolic Z-matrix:
 Charge =  0 Multiplicity = 1

                         Standard orientation:
 ---------------------------------------------------------------------
 Center     Atomic      Atomic             Coordinates (Angstroms)
 Number     Number       Type             X           Y           Z
 ---------------------------------------------------------------------
      1         12           0        4.778364    0.219546   -0.369855
      2          6           0        3.019499   -2.717181   -0.002443
      3          6           0        2.779358    1.095313   -2.936929
      4          6           0        5.658089    3.581217    0.148544
      5          6           0        6.191746   -0.491040    2.834606
      6          7           0        2.759808   -0.536905   -1.118383
      7          6           0        2.354793   -1.853148   -0.915469
      8          6           0        1.432784   -2.236268   -1.991447
      9          6           0        1.733130   -1.223503   -3.121263
     10          6           0        2.392358   -0.093463   -2.378751
     11          6           0        2.473982   -1.653550   -4.416448
     12          6           0       -0.086041   -2.351034   -1.517033
     13          6           0       -0.861189   -3.597655   -1.739771
     14          6           0       -2.252052   -3.325974   -2.415442
     15          8           0       -2.435686   -3.204474   -3.652757
     16          8           0       -3.226576   -3.512145   -1.451004
     17          7           0        4.489243    2.030818   -1.425374
     18          6           0        3.623028    2.173396   -2.469966
     19          6           0        3.832244    3.539815   -3.107980
     20          6           0        4.723830    4.195925   -2.216869
     21          6           0        4.976473    3.302817   -1.089973
     22          6           0        3.079550    4.139800   -4.270923
     23          6           0        5.248461    5.580218   -2.466368
     24          8           0        4.988219    6.262204   -3.435464
     25          6           0        6.326762    6.301788   -1.616951
     26          7           0        5.758859    1.435200    1.235931
     27          6           0        6.016602    2.747371    1.229774
     28          6           0        6.665884    3.215789    2.504699
     29          6           0        6.833597    1.911702    3.279243
     30          6           0        6.215681    0.856580    2.419587
     31          6           0        7.943776    4.048074    2.494622
     32          6           0        6.141005    1.976254    4.671468
     33          6           0        6.889497    1.519977    5.935704
     34          7           0        4.954482   -1.417853    1.001797
     35          6           0        5.642352   -1.621163    2.158323
     36          6           0        5.406350   -3.006177    2.666326
     37          6           0        4.411145   -3.464255    1.821018
     38          6           0        4.102955   -2.453218    0.863593
     39          6           0        5.906149   -3.682270    3.926180
     40          6           0        3.554305   -4.592814    1.563196
     41          8           0        3.443695   -5.700496    2.102465
     42          6           0        2.675566   -4.171018    0.300845
     43          6           0        3.068101   -5.080266   -0.737696
     44          8           0        4.047355   -4.935241   -1.513623
     45          8           0        1.971334   -5.946492   -0.921937
     46          6           0        1.970583   -6.762579   -2.210395
     47          6           0       -4.557814   -3.373643   -1.960224
     48          6           0       -5.343317   -2.538734   -0.972321
     49          6           0       -5.821471   -1.277397   -1.062761
     50          6           0       -5.506170   -0.350392   -2.127496
     51          6           0       -6.738888   -0.723103    0.054215
     52          6           0       -8.243486   -0.839678   -0.283786
     53          6           0       -9.112731   -1.865542    0.397613
     54          6           0      -10.181458   -1.022446    1.135561
     55          6           0      -11.582933   -1.593687    0.854853
     56          6           0       -9.793101   -0.907234    2.718750
     57          6           0      -10.187097    0.577060    3.205684
     58          6           0       -8.968977    1.191198    3.909063
     59          6           0       -7.816718    1.618381    2.898961
     60          6           0       -6.389412    1.596105    3.510221
     61          6           0       -8.177710    3.044622    2.302616
     62          6           0       -7.714442    3.143025    0.843084
     63          6           0       -7.440289    4.605109    0.381469
     64          6           0       -7.629239    4.707498   -1.150454
     65          6           0       -6.352034    4.240939   -1.819288
     66          6           0       -8.086427    6.184982   -1.472708
     67          1           0        2.473514    1.378262   -3.946952
     68          1           0        5.744398    4.664141    0.259772
     69          1           0        6.694148   -0.638302    3.793646
     70          1           0        1.769611   -3.197879   -2.378701
     71          1           0        0.794866   -0.953096   -3.604848
     72          1           0        2.131913   -2.637811   -4.735614
     73          1           0        3.523205   -1.784878   -4.152035
     74          1           0        2.368984   -0.898262   -5.195340
     75          1           0       -0.653718   -1.463390   -1.795071
     76          1           0        0.110976   -2.254962   -0.449263
     77          1           0       -0.911118   -4.117391   -0.782997
     78          1           0       -0.198935   -4.289360   -2.258624
     79          1           0        2.348925    4.835343   -3.856439
     80          1           0        2.439209    3.433468   -4.799016
     81          1           0        3.748881    4.615187   -4.986561
     82          1           0        7.166339    5.665608   -1.337647
     83          1           0        5.902705    6.645935   -0.673549
     84          1           0        6.685528    7.138678   -2.215919
     85          1           0        5.841675    3.664178    3.059033
     86          1           0        7.862324    1.605314    3.466282
     87          1           0        7.587155    5.074487    2.585608
     88          1           0        8.597291    3.993932    1.624610
     89          1           0        8.383811    3.895716    3.479746
     90          1           0        5.247821    1.398739    4.433406
     91          1           0        5.720363    2.932078    4.983864
     92          1           0        7.018964    2.419784    6.538187
     93          1           0        7.855047    1.075617    5.693484
     94          1           0        6.409779    0.728077    6.509598
     95          1           0        6.755848   -3.072717    4.234751
     96          1           0        6.262027   -4.694551    3.737349
     97          1           0        5.153701   -3.678678    4.715698
     98          1           0        1.629360   -4.260680    0.593377
     99          1           0        1.489476   -6.223824   -3.026782
    100          1           0        1.441280   -7.708360   -2.094027
    101          1           0        2.996432   -6.846425   -2.569931
    102          1           0       -4.933279   -4.386098   -2.108503
    103          1           0       -4.772598   -2.916911   -2.925826
    104          1           0       -5.704637   -3.074296   -0.095023
    105          1           0       -6.152707   -0.494978   -2.994088
    106          1           0       -4.486704   -0.358068   -2.513480
    107          1           0       -5.771612    0.680987   -1.897511
    108          1           0       -6.495851    0.339333    0.068842
    109          1           0       -6.656105   -1.195527    1.032606
    110          1           0       -8.230262   -1.222875   -1.304369
    111          1           0       -8.638109    0.174988   -0.229294
    112          1           0       -8.595494   -2.462950    1.148921
    113          1           0       -9.628747   -2.472149   -0.346545
    114          1           0      -10.390107   -0.013210    0.780735
    115          1           0      -12.316848   -1.362307    1.626531
    116          1           0      -11.514116   -2.681640    0.864272
    117          1           0      -11.966152   -1.247072   -0.104076
    118          1           0       -8.746203   -1.164442    2.873120
    119          1           0      -10.507720   -1.605389    3.154777
    120          1           0      -10.956206    0.606459    3.977583
    121          1           0      -10.526143    1.278335    2.442434
    122          1           0       -8.663338    0.472040    4.668685
    123          1           0       -9.201602    2.122654    4.425934
    124          1           0       -7.839884    0.881986    2.095614
    125          1           0       -6.352115    2.393961    4.252023
    126          1           0       -5.561811    1.792586    2.828605
    127          1           0       -6.059597    0.665309    3.972406
    128          1           0       -7.840924    3.924311    2.850479
    129          1           0       -9.267246    3.070081    2.344213
    130          1           0       -8.378769    2.521902    0.241242
    131          1           0       -6.734989    2.664274    0.826809
    132          1           0       -6.499390    4.945630    0.814207
    133          1           0       -8.244036    5.203373    0.810134
    134          1           0       -8.436804    4.066205   -1.504494
    135          1           0       -5.497247    4.767405   -1.392490
    136          1           0       -6.151167    4.687030   -2.792996
    137          1           0       -6.184640    3.167435   -1.901280
    138          1           0       -7.347229    6.608567   -2.152411
    139          1           0       -8.109429    6.872577   -0.626348
    140          1           0       -9.095623    6.027152   -1.853480
 ---------------------------------------------------------------------

 SCF Done:  E(RCAM-B3LYP) =  -3007.09771435     A.U. after   19 cycles

 Excitation energies and oscillator strengths:

 Excited State   1:      Singlet-A      1.6492 eV  751.77 nm  f=0.3777  <S**2>=0.000
     245 -> 248       -0.18726
     246 -> 247        0.68434
     245 <- 248       -0.11120
 This state for optimization and/or second-order correction.
 Total Energy, E(TD-HF/TD-DFT) =  -3007.03710657
 Copying the excited state density for this state as the 1-particle RhoCI density.

 Excited State   2:      Singlet-A      2.1519 eV  576.16 nm  f=0.0758  <S**2>=0.000
     245 -> 247        0.63272
     246 -> 248        0.30440

 Excited State   3:      Singlet-A      3.3101 eV  374.56 nm  f=0.1443  <S**2>=0.000
     243 -> 247       -0.24139
     244 -> 247        0.48677
     245 -> 247        0.13528
     246 -> 248       -0.38558

 Excited State   4:      Singlet-A      3.4051 eV  364.11 nm  f=0.3662  <S**2>=0.000
     240 -> 247       -0.13914
     241 -> 247       -0.20581
     243 -> 247       -0.15652
     244 -> 247        0.35039
     245 -> 247       -0.22716
     246 -> 248        0.43757

 Excited State   5:      Singlet-A      3.4702 eV  357.28 nm  f=0.0019  <S**2>=0.000
     241 -> 247        0.12573
     241 -> 249       -0.10335
     242 -> 247        0.54004
     242 -> 248       -0.10938
     242 -> 249       -0.20709
     242 -> 251        0.24491
     244 -> 247        0.10207

 The electronic state is 1-A.
 Alpha  occ. eigenvalues --  -46.91223 -19.26006 -19.25281 -19.20575 -19.20468
 Alpha  occ. eigenvalues --  -19.19360 -19.18483 -14.42321 -14.41949 -14.40152
 Alpha  occ. eigenvalues --  -14.39954 -10.40522 -10.39938 -10.35400 -10.34858
 Alpha  occ. eigenvalues --  -10.32107 -10.31506 -10.31344 -10.31312 -10.31257
 Alpha  occ. eigenvalues --  -10.31117 -10.31107 -10.30661 -10.30537 -10.29430
 Alpha  occ. eigenvalues --  -10.29357 -10.28661 -10.28292 -10.27944 -10.27758
 Alpha  occ. eigenvalues --  -10.27711 -10.27505 -10.27494 -10.27485 -10.27453
 Alpha  occ. eigenvalues --  -10.27340 -10.27183 -10.27041 -10.26984 -10.26970
 Alpha  occ. eigenvalues --  -10.26735 -10.26567 -10.26310 -10.26219 -10.26188
 Alpha  occ. eigenvalues --  -10.26025 -10.25980 -10.25944 -10.25939 -10.25636
 Alpha  occ. eigenvalues --  -10.25570 -10.25549 -10.25495 -10.25366 -10.25333
 Alpha  occ. eigenvalues --  -10.25092 -10.24968 -10.24792 -10.24785 -10.24755
 Alpha  occ. eigenvalues --  -10.24671 -10.24626 -10.24566 -10.24467 -10.24405
 Alpha  occ. eigenvalues --  -10.24289  -3.19356  -1.94205  -1.93831  -1.93655
 Alpha  occ. eigenvalues --   -1.16399  -1.14120  -1.10550  -1.09233  -1.07386
 Alpha  occ. eigenvalues --   -1.06425  -1.04609  -1.03886  -1.03191  -1.02113
 Alpha  occ. eigenvalues --   -0.92919  -0.90891  -0.90015  -0.89676  -0.89453
 Alpha  occ. eigenvalues --   -0.88707  -0.88274  -0.87708  -0.87358  -0.86600
 Alpha  occ. eigenvalues --   -0.86384  -0.85844  -0.84332  -0.83996  -0.83828
 Alpha  occ. eigenvalues --   -0.82581  -0.81917  -0.81152  -0.80588  -0.80141
 Alpha  occ. eigenvalues --   -0.79823  -0.78431  -0.78023  -0.77540  -0.76311
 Alpha  occ. eigenvalues --   -0.76011  -0.75944  -0.75492  -0.74702  -0.73813
 Alpha  occ. eigenvalues --   -0.73512  -0.72888  -0.72136  -0.70175  -0.69520
 Alpha  occ. eigenvalues --   -0.69130  -0.68248  -0.67614  -0.66028  -0.65984
 Alpha  occ. eigenvalues --   -0.65467  -0.65347  -0.65105  -0.64693  -0.64274
 Alpha  occ. eigenvalues --   -0.63980  -0.63647  -0.62275  -0.61913  -0.60248
 Alpha  occ. eigenvalues --   -0.60012  -0.59736  -0.59178  -0.59081  -0.58581
 Alpha  occ. eigenvalues --   -0.57770  -0.57498  -0.56520  -0.56499  -0.55734
 Alpha  occ. eigenvalues --   -0.55519  -0.54791  -0.54521  -0.54406  -0.54137
 Alpha  occ. eigenvalues --   -0.53871  -0.53644  -0.53471  -0.52923  -0.52911
 Alpha  occ. eigenvalues --   -0.52542  -0.52342  -0.51835  -0.51607  -0.51592
 Alpha  occ. eigenvalues --   -0.51482  -0.51393  -0.50727  -0.50703  -0.50500
 Alpha  occ. eigenvalues --   -0.50440  -0.49913  -0.49879  -0.49705  -0.49604
 Alpha  occ. eigenvalues --   -0.49510  -0.49355  -0.49129  -0.48948  -0.48767
 Alpha  occ. eigenvalues --   -0.48757  -0.48697  -0.48258  -0.47748  -0.47649
 Alpha  occ. eigenvalues --   -0.47349  -0.47224  -0.47163  -0.46831  -0.46748
 Alpha  occ. eigenvalues --   -0.46358  -0.46269  -0.46206  -0.46081  -0.45852
 Alpha  occ. eigenvalues --   -0.45718  -0.45615  -0.45557  -0.45109  -0.44937
 Alpha  occ. eigenvalues --   -0.44910  -0.44727  -0.44682  -0.44422  -0.44155
 Alpha  occ. eigenvalues --   -0.43929  -0.43855  -0.43641  -0.43271  -0.43102
 Alpha  occ. eigenvalues --   -0.43060  -0.42481  -0.42193  -0.42168  -0.42073
 Alpha  occ. eigenvalues --   -0.41824  -0.41633  -0.41594  -0.41343  -0.40998
 Alpha  occ. eigenvalues --   -0.40926  -0.40790  -0.40558  -0.40290  -0.40115
 Alpha  occ. eigenvalues --   -0.39395  -0.39257  -0.39093  -0.38772  -0.38628
 Alpha  occ. eigenvalues --   -0.38554  -0.38339  -0.38284  -0.38133  -0.37987
 Alpha  occ. eigenvalues --   -0.37463  -0.36710  -0.36672  -0.36535  -0.36431
 Alpha  occ. eigenvalues --   -0.36144  -0.35601  -0.34989  -0.34759  -0.34335
 Alpha  occ. eigenvalues --   -0.33703  -0.33378  -0.32965  -0.31336  -0.30993
 Alpha  occ. eigenvalues --   -0.30568  -0.30428  -0.29965  -0.29928  -0.24167
 Alpha  occ. eigenvalues --   -0.21091
 Alpha virt. eigenvalues --   -0.08892  -0.02273  -0.00249   0.00615   0.01997
 Alpha virt. eigenvalues --    0.03268   0.03538   0.04468   0.05096   0.06862
 Alpha virt. eigenvalues --    0.07692   0.07755   0.08432   0.08745   0.08936

 Mulliken charges:
               1
     1  Mg   0.819016
     2  C    0.005152
     3  C   -0.062893
     4  C   -0.062429
     5  C   -0.057777
     6  N   -0.310289
     7  C    0.007892
     8  C   -0.069231
     9  C   -0.050686
    10  C    0.089474
    11  C    0.072107
    12  C    0.063750
    13  C    0.113310
    14  C    0.186926
    15  O   -0.261025
    16  O   -0.309130
    17  N   -0.374626
    18  C    0.083327
    19  C   -0.132130
    20  C   -0.005140
    21  C    0.113202
    22  C    0.132081
    23  C   -0.019396
    24  O   -0.203628
    25  C    0.026556
    26  N   -0.265833
    27  C    0.002273
    28  C    0.055712
    29  C   -0.092618
    30  C    0.033844
    31  C    0.114760
    32  C   -0.005189
    33  C    0.011126
    34  N   -0.326343
    35  C    0.103581
    36  C   -0.196648
    37  C    0.062443
    38  C    0.093316
    39  C    0.123870
    40  C    0.025934
    41  O   -0.179887
    42  C   -0.047172
    43  C    0.275823
    44  O   -0.253587
    45  O   -0.371800
    46  C    0.163197
    47  C    0.288430
    48  C   -0.111475
    49  C   -0.173629
    50  C    0.100391
    51  C    0.080539
    52  C   -0.003803
    53  C    0.093282
    54  C   -0.189166
    55  C    0.037019
    56  C    0.057970
    57  C    0.028805
    58  C    0.004569
    59  C   -0.119834
    60  C    0.053611
    61  C    0.045265
    62  C   -0.036806
    63  C    0.056144
    64  C   -0.150383
    65  C    0.049269
    66  C    0.053416
    67  H   -0.027377
    68  H   -0.042561
    69  H   -0.032381
    70  H    0.007225
    71  H    0.004508
    72  H    0.021915
    73  H    0.010339
    74  H    0.029495
    75  H    0.019433
    76  H    0.004734
    77  H    0.026487
    78  H    0.007723
    79  H    0.037155
    80  H   -0.005076
    81  H    0.050202
    82  H    0.022415
    83  H    0.036440
    84  H    0.032903
    85  H    0.006069
    86  H    0.010269
    87  H    0.002310
    88  H    0.036084
    89  H    0.012093
    90  H    0.011156
    91  H    0.007389
    92  H    0.020616
    93  H    0.007823
    94  H    0.021356
    95  H    0.005788
    96  H    0.042659
    97  H    0.043780
    98  H    0.045038
    99  H    0.029351
   100  H    0.053779
   101  H    0.052522
   102  H    0.012175
   103  H    0.023856
   104  H   -0.018486
   105  H    0.020344
   106  H    0.036769
   107  H   -0.014929
   108  H   -0.003589
   109  H    0.004107
   110  H   -0.004873
   111  H    0.012863
   112  H    0.002658
   113  H   -0.001626
   114  H    0.003791
   115  H   -0.001313
   116  H   -0.000491
   117  H    0.013065
   118  H    0.020537
   119  H    0.000530
   120  H   -0.001360
   121  H   -0.001040
   122  H   -0.006719
   123  H   -0.010035
   124  H   -0.013310
   125  H    0.000515
   126  H    0.001076
   127  H    0.004389
   128  H   -0.004996
   129  H   -0.013965
   130  H    0.005407
   131  H    0.012652
   132  H    0.008282
   133  H   -0.010480
   134  H   -0.002944
   135  H   -0.011955
   136  H   -0.010554
   137  H    0.022350
   138  H    0.000798
   139  H    0.011761
   140  H    0.018250
 Sum of Mulliken charges =  -0.00000

 Dipole moment (field-independent basis, Debye):
    X=             -0.8247    Y=              2.2988    Z=              2.0078  Tot=              3.1617
 Quadrupole moment (field-independent basis, Debye-Ang):
   XX=           -372.3920   YY=           -433.9556   ZZ=           -403.6928
   XY=             13.2524   XZ=             21.7007   YZ=             30.3497

 Normal termination of Gaussian 16 at Fri Apr 29 01:22:18 2022.
