 Gaussian 16, Revision A.03,
 Gaussian 16:  ES64L-G16RevA.03 25-Dec-2016

 ---------------------------------
 #p PBE1PBE/Def2SVP td=(nstates=5)
 ---------------------------------

 ------------------------------------------------------
 step_1801_chromophore_23 TDDFT with PBE1PBE functional
 ------------------------------------------------------
 Symbolic Z-matrix:
 Charge =  0 Multiplicity = 1

                         Standard orientation:
 ---------------------------------------------------------------------
 Center     Atomic      Atomic             Coordinates (Angstroms)
 Number     Number       Type             X           Y           Z
 ---------------------------------------------------------------------
      1         12           0        4.778364    0.219546   -0.369855
      2          6           0        3.019499   -2.717181   -0.002443
      3          6           0        2.779358    1.095313   -2.936929
      4          6           0        5.658089    3.581217    0.148544
      5          6           0        6.191746   -0.491040    2.834606
      6          7           0        2.759808   -0.536905   -1.118383
      7          6           0        2.354793   -1.853148   -0.915469
      8          6           0        1.432784   -2.236268   -1.991447
      9          6           0        1.733130   -1.223503   -3.121263
     10          6           0        2.392358   -0.093463   -2.378751
     11          6           0        2.473982   -1.653550   -4.416448
     12          6           0       -0.086041   -2.351034   -1.517033
     13          6           0       -0.861189   -3.597655   -1.739771
     14          6           0       -2.252052   -3.325974   -2.415442
     15          8           0       -2.435686   -3.204474   -3.652757
     16          8           0       -3.226576   -3.512145   -1.451004
     17          7           0        4.489243    2.030818   -1.425374
     18          6           0        3.623028    2.173396   -2.469966
     19          6           0        3.832244    3.539815   -3.107980
     20          6           0        4.723830    4.195925   -2.216869
     21          6           0        4.976473    3.302817   -1.089973
     22          6           0        3.079550    4.139800   -4.270923
     23          6           0        5.248461    5.580218   -2.466368
     24          8           0        4.988219    6.262204   -3.435464
     25          6           0        6.326762    6.301788   -1.616951
     26          7           0        5.758859    1.435200    1.235931
     27          6           0        6.016602    2.747371    1.229774
     28          6           0        6.665884    3.215789    2.504699
     29          6           0        6.833597    1.911702    3.279243
     30          6           0        6.215681    0.856580    2.419587
     31          6           0        7.943776    4.048074    2.494622
     32          6           0        6.141005    1.976254    4.671468
     33          6           0        6.889497    1.519977    5.935704
     34          7           0        4.954482   -1.417853    1.001797
     35          6           0        5.642352   -1.621163    2.158323
     36          6           0        5.406350   -3.006177    2.666326
     37          6           0        4.411145   -3.464255    1.821018
     38          6           0        4.102955   -2.453218    0.863593
     39          6           0        5.906149   -3.682270    3.926180
     40          6           0        3.554305   -4.592814    1.563196
     41          8           0        3.443695   -5.700496    2.102465
     42          6           0        2.675566   -4.171018    0.300845
     43          6           0        3.068101   -5.080266   -0.737696
     44          8           0        4.047355   -4.935241   -1.513623
     45          8           0        1.971334   -5.946492   -0.921937
     46          6           0        1.970583   -6.762579   -2.210395
     47          6           0       -4.557814   -3.373643   -1.960224
     48          6           0       -5.343317   -2.538734   -0.972321
     49          6           0       -5.821471   -1.277397   -1.062761
     50          6           0       -5.506170   -0.350392   -2.127496
     51          6           0       -6.738888   -0.723103    0.054215
     52          6           0       -8.243486   -0.839678   -0.283786
     53          6           0       -9.112731   -1.865542    0.397613
     54          6           0      -10.181458   -1.022446    1.135561
     55          6           0      -11.582933   -1.593687    0.854853
     56          6           0       -9.793101   -0.907234    2.718750
     57          6           0      -10.187097    0.577060    3.205684
     58          6           0       -8.968977    1.191198    3.909063
     59          6           0       -7.816718    1.618381    2.898961
     60          6           0       -6.389412    1.596105    3.510221
     61          6           0       -8.177710    3.044622    2.302616
     62          6           0       -7.714442    3.143025    0.843084
     63          6           0       -7.440289    4.605109    0.381469
     64          6           0       -7.629239    4.707498   -1.150454
     65          6           0       -6.352034    4.240939   -1.819288
     66          6           0       -8.086427    6.184982   -1.472708
     67          1           0        2.473514    1.378262   -3.946952
     68          1           0        5.744398    4.664141    0.259772
     69          1           0        6.694148   -0.638302    3.793646
     70          1           0        1.769611   -3.197879   -2.378701
     71          1           0        0.794866   -0.953096   -3.604848
     72          1           0        2.131913   -2.637811   -4.735614
     73          1           0        3.523205   -1.784878   -4.152035
     74          1           0        2.368984   -0.898262   -5.195340
     75          1           0       -0.653718   -1.463390   -1.795071
     76          1           0        0.110976   -2.254962   -0.449263
     77          1           0       -0.911118   -4.117391   -0.782997
     78          1           0       -0.198935   -4.289360   -2.258624
     79          1           0        2.348925    4.835343   -3.856439
     80          1           0        2.439209    3.433468   -4.799016
     81          1           0        3.748881    4.615187   -4.986561
     82          1           0        7.166339    5.665608   -1.337647
     83          1           0        5.902705    6.645935   -0.673549
     84          1           0        6.685528    7.138678   -2.215919
     85          1           0        5.841675    3.664178    3.059033
     86          1           0        7.862324    1.605314    3.466282
     87          1           0        7.587155    5.074487    2.585608
     88          1           0        8.597291    3.993932    1.624610
     89          1           0        8.383811    3.895716    3.479746
     90          1           0        5.247821    1.398739    4.433406
     91          1           0        5.720363    2.932078    4.983864
     92          1           0        7.018964    2.419784    6.538187
     93          1           0        7.855047    1.075617    5.693484
     94          1           0        6.409779    0.728077    6.509598
     95          1           0        6.755848   -3.072717    4.234751
     96          1           0        6.262027   -4.694551    3.737349
     97          1           0        5.153701   -3.678678    4.715698
     98          1           0        1.629360   -4.260680    0.593377
     99          1           0        1.489476   -6.223824   -3.026782
    100          1           0        1.441280   -7.708360   -2.094027
    101          1           0        2.996432   -6.846425   -2.569931
    102          1           0       -4.933279   -4.386098   -2.108503
    103          1           0       -4.772598   -2.916911   -2.925826
    104          1           0       -5.704637   -3.074296   -0.095023
    105          1           0       -6.152707   -0.494978   -2.994088
    106          1           0       -4.486704   -0.358068   -2.513480
    107          1           0       -5.771612    0.680987   -1.897511
    108          1           0       -6.495851    0.339333    0.068842
    109          1           0       -6.656105   -1.195527    1.032606
    110          1           0       -8.230262   -1.222875   -1.304369
    111          1           0       -8.638109    0.174988   -0.229294
    112          1           0       -8.595494   -2.462950    1.148921
    113          1           0       -9.628747   -2.472149   -0.346545
    114          1           0      -10.390107   -0.013210    0.780735
    115          1           0      -12.316848   -1.362307    1.626531
    116          1           0      -11.514116   -2.681640    0.864272
    117          1           0      -11.966152   -1.247072   -0.104076
    118          1           0       -8.746203   -1.164442    2.873120
    119          1           0      -10.507720   -1.605389    3.154777
    120          1           0      -10.956206    0.606459    3.977583
    121          1           0      -10.526143    1.278335    2.442434
    122          1           0       -8.663338    0.472040    4.668685
    123          1           0       -9.201602    2.122654    4.425934
    124          1           0       -7.839884    0.881986    2.095614
    125          1           0       -6.352115    2.393961    4.252023
    126          1           0       -5.561811    1.792586    2.828605
    127          1           0       -6.059597    0.665309    3.972406
    128          1           0       -7.840924    3.924311    2.850479
    129          1           0       -9.267246    3.070081    2.344213
    130          1           0       -8.378769    2.521902    0.241242
    131          1           0       -6.734989    2.664274    0.826809
    132          1           0       -6.499390    4.945630    0.814207
    133          1           0       -8.244036    5.203373    0.810134
    134          1           0       -8.436804    4.066205   -1.504494
    135          1           0       -5.497247    4.767405   -1.392490
    136          1           0       -6.151167    4.687030   -2.792996
    137          1           0       -6.184640    3.167435   -1.901280
    138          1           0       -7.347229    6.608567   -2.152411
    139          1           0       -8.109429    6.872577   -0.626348
    140          1           0       -9.095623    6.027152   -1.853480
 ---------------------------------------------------------------------

 SCF Done:  E(RPBE1PBE) =  -3005.29030226     A.U. after   15 cycles

 Excitation energies and oscillator strengths:

 Excited State   1:      Singlet-A      1.8051 eV  686.86 nm  f=0.3665  <S**2>=0.000
     245 -> 248       -0.18154
     246 -> 247        0.69189
     246 <- 247       -0.11028
 This state for optimization and/or second-order correction.
 Total Energy, E(TD-HF/TD-DFT) =  -3005.22396699
 Copying the excited state density for this state as the 1-particle RhoCI density.

 Excited State   2:      Singlet-A      2.1515 eV  576.28 nm  f=0.0767  <S**2>=0.000
     245 -> 247        0.64749
     246 -> 248        0.27324

 Excited State   3:      Singlet-A      2.8689 eV  432.17 nm  f=0.0002  <S**2>=0.000
     244 -> 247        0.67586
     244 -> 249       -0.12550
     244 -> 250       -0.10529

 Excited State   4:      Singlet-A      3.0374 eV  408.19 nm  f=0.0017  <S**2>=0.000
     241 -> 247       -0.17352
     242 -> 247        0.66466

 Excited State   5:      Singlet-A      3.0563 eV  405.67 nm  f=0.0185  <S**2>=0.000
     241 -> 247        0.60957
     241 -> 249        0.18115
     242 -> 247        0.14972
     246 -> 248       -0.22855

 The electronic state is 1-A.
 Alpha  occ. eigenvalues --  -46.94596 -19.26736 -19.25953 -19.20908 -19.20709
 Alpha  occ. eigenvalues --  -19.19682 -19.18597 -14.41789 -14.41519 -14.39725
 Alpha  occ. eigenvalues --  -14.39630 -10.37608 -10.36939 -10.32624 -10.31924
 Alpha  occ. eigenvalues --  -10.29334 -10.29049 -10.28926 -10.28918 -10.28884
 Alpha  occ. eigenvalues --  -10.28724 -10.28678 -10.28523 -10.28420 -10.27140
 Alpha  occ. eigenvalues --  -10.26988 -10.26445 -10.26190 -10.25616 -10.25556
 Alpha  occ. eigenvalues --  -10.25486 -10.25259 -10.25136 -10.25081 -10.25025
 Alpha  occ. eigenvalues --  -10.24910 -10.24839 -10.24804 -10.24631 -10.24574
 Alpha  occ. eigenvalues --  -10.24180 -10.24042 -10.23929 -10.23765 -10.23730
 Alpha  occ. eigenvalues --  -10.23624 -10.23618 -10.23535 -10.23410 -10.23330
 Alpha  occ. eigenvalues --  -10.23213 -10.23154 -10.22953 -10.22944 -10.22736
 Alpha  occ. eigenvalues --  -10.22649 -10.22556 -10.22356 -10.22350 -10.22334
 Alpha  occ. eigenvalues --  -10.22239 -10.22105 -10.22035 -10.21846 -10.21771
 Alpha  occ. eigenvalues --  -10.21700  -3.16322  -1.89106  -1.88715  -1.88540
 Alpha  occ. eigenvalues --   -1.11249  -1.08827  -1.05203  -1.04038  -1.02253
 Alpha  occ. eigenvalues --   -1.01222  -0.99310  -0.98538  -0.97784  -0.96685
 Alpha  occ. eigenvalues --   -0.87329  -0.85018  -0.84344  -0.83873  -0.83552
 Alpha  occ. eigenvalues --   -0.82832  -0.82578  -0.82047  -0.81462  -0.80974
 Alpha  occ. eigenvalues --   -0.80586  -0.80084  -0.78553  -0.78296  -0.78032
 Alpha  occ. eigenvalues --   -0.76788  -0.76174  -0.75369  -0.74925  -0.74288
 Alpha  occ. eigenvalues --   -0.73947  -0.72739  -0.72336  -0.71736  -0.70610
 Alpha  occ. eigenvalues --   -0.70201  -0.70037  -0.69842  -0.68816  -0.68063
 Alpha  occ. eigenvalues --   -0.67766  -0.67333  -0.66589  -0.64470  -0.63912
 Alpha  occ. eigenvalues --   -0.63628  -0.62449  -0.62002  -0.60447  -0.60270
 Alpha  occ. eigenvalues --   -0.59991  -0.59575  -0.59563  -0.59268  -0.58680
 Alpha  occ. eigenvalues --   -0.58124  -0.57821  -0.56492  -0.56463  -0.54661
 Alpha  occ. eigenvalues --   -0.54513  -0.54278  -0.53842  -0.53691  -0.52982
 Alpha  occ. eigenvalues --   -0.52242  -0.52117  -0.51113  -0.50882  -0.50265
 Alpha  occ. eigenvalues --   -0.50100  -0.49403  -0.49066  -0.48883  -0.48618
 Alpha  occ. eigenvalues --   -0.48377  -0.48169  -0.47888  -0.47660  -0.47367
 Alpha  occ. eigenvalues --   -0.47123  -0.46835  -0.46444  -0.46101  -0.46083
 Alpha  occ. eigenvalues --   -0.45971  -0.45784  -0.45329  -0.45227  -0.45129
 Alpha  occ. eigenvalues --   -0.45043  -0.44517  -0.44456  -0.44290  -0.44184
 Alpha  occ. eigenvalues --   -0.44057  -0.43958  -0.43644  -0.43479  -0.43431
 Alpha  occ. eigenvalues --   -0.43336  -0.43244  -0.42916  -0.42422  -0.42226
 Alpha  occ. eigenvalues --   -0.42032  -0.41878  -0.41856  -0.41489  -0.41362
 Alpha  occ. eigenvalues --   -0.41130  -0.40865  -0.40819  -0.40763  -0.40579
 Alpha  occ. eigenvalues --   -0.40369  -0.40318  -0.40294  -0.39850  -0.39721
 Alpha  occ. eigenvalues --   -0.39609  -0.39489  -0.39360  -0.39180  -0.38951
 Alpha  occ. eigenvalues --   -0.38641  -0.38624  -0.38461  -0.38082  -0.37910
 Alpha  occ. eigenvalues --   -0.37755  -0.37242  -0.36979  -0.36955  -0.36899
 Alpha  occ. eigenvalues --   -0.36635  -0.36444  -0.36331  -0.36242  -0.35903
 Alpha  occ. eigenvalues --   -0.35808  -0.35597  -0.35306  -0.35181  -0.34833
 Alpha  occ. eigenvalues --   -0.34321  -0.34039  -0.33892  -0.33543  -0.33500
 Alpha  occ. eigenvalues --   -0.33368  -0.33269  -0.33151  -0.33142  -0.32807
 Alpha  occ. eigenvalues --   -0.32302  -0.31732  -0.31640  -0.31469  -0.31284
 Alpha  occ. eigenvalues --   -0.31218  -0.30502  -0.30135  -0.29490  -0.29192
 Alpha  occ. eigenvalues --   -0.28687  -0.28604  -0.28367  -0.26961  -0.26257
 Alpha  occ. eigenvalues --   -0.26003  -0.25530  -0.25287  -0.24996  -0.21057
 Alpha  occ. eigenvalues --   -0.18775
 Alpha virt. eigenvalues --   -0.11375  -0.05730  -0.04477  -0.02463  -0.02123
 Alpha virt. eigenvalues --   -0.01300  -0.01067   0.00100   0.00566   0.03060
 Alpha virt. eigenvalues --    0.03776   0.04399   0.04754   0.05324   0.05482

 Mulliken charges:
               1
     1  Mg   0.954260
     2  C   -0.005376
     3  C   -0.065243
     4  C   -0.059769
     5  C   -0.054901
     6  N   -0.403968
     7  C    0.080189
     8  C   -0.149285
     9  C   -0.120986
    10  C    0.120452
    11  C    0.011718
    12  C    0.019151
    13  C    0.035251
    14  C    0.243456
    15  O   -0.292196
    16  O   -0.336598
    17  N   -0.476787
    18  C    0.108660
    19  C   -0.154871
    20  C   -0.062884
    21  C    0.138207
    22  C    0.073026
    23  C    0.035825
    24  O   -0.237969
    25  C   -0.050471
    26  N   -0.370587
    27  C    0.052635
    28  C   -0.030227
    29  C   -0.171690
    30  C    0.070383
    31  C    0.051152
    32  C   -0.060524
    33  C   -0.060763
    34  N   -0.446784
    35  C    0.131713
    36  C   -0.204607
    37  C    0.015839
    38  C    0.142504
    39  C    0.068953
    40  C    0.110750
    41  O   -0.224375
    42  C   -0.157857
    43  C    0.363182
    44  O   -0.286255
    45  O   -0.400335
    46  C    0.109100
    47  C    0.245198
    48  C   -0.117492
    49  C   -0.221772
    50  C    0.031369
    51  C    0.006401
    52  C   -0.069794
    53  C    0.038080
    54  C   -0.268097
    55  C   -0.026203
    56  C   -0.000128
    57  C   -0.031074
    58  C   -0.054508
    59  C   -0.221900
    60  C   -0.003050
    61  C   -0.003999
    62  C   -0.106521
    63  C   -0.003613
    64  C   -0.244631
    65  C   -0.015814
    66  C   -0.006444
    67  H    0.006947
    68  H   -0.006270
    69  H    0.001954
    70  H    0.052309
    71  H    0.042082
    72  H    0.049564
    73  H    0.039864
    74  H    0.056209
    75  H    0.050665
    76  H    0.040494
    77  H    0.058051
    78  H    0.044997
    79  H    0.064715
    80  H    0.021666
    81  H    0.076006
    82  H    0.049575
    83  H    0.061664
    84  H    0.060279
    85  H    0.045938
    86  H    0.047790
    87  H    0.030915
    88  H    0.062698
    89  H    0.041026
    90  H    0.045912
    91  H    0.039039
    92  H    0.048152
    93  H    0.034335
    94  H    0.048728
    95  H    0.034401
    96  H    0.069780
    97  H    0.070925
    98  H    0.082506
    99  H    0.049727
   100  H    0.074874
   101  H    0.073035
   102  H    0.039809
   103  H    0.050628
   104  H    0.012371
   105  H    0.048000
   106  H    0.063858
   107  H    0.020313
   108  H    0.034589
   109  H    0.035253
   110  H    0.030692
   111  H    0.048297
   112  H    0.034165
   113  H    0.031705
   114  H    0.039922
   115  H    0.027256
   116  H    0.028029
   117  H    0.041440
   118  H    0.050130
   119  H    0.035080
   120  H    0.032015
   121  H    0.029131
   122  H    0.026100
   123  H    0.023990
   124  H    0.044542
   125  H    0.028355
   126  H    0.027901
   127  H    0.031543
   128  H    0.026013
   129  H    0.020698
   130  H    0.040504
   131  H    0.049238
   132  H    0.039412
   133  H    0.024736
   134  H    0.033954
   135  H    0.015946
   136  H    0.017389
   137  H    0.057441
   138  H    0.028370
   139  H    0.038216
   140  H    0.045316
 Sum of Mulliken charges =  -0.00000

 Dipole moment (field-independent basis, Debye):
    X=             -0.8893    Y=              2.1809    Z=              2.2088  Tot=              3.2289
 Quadrupole moment (field-independent basis, Debye-Ang):
   XX=           -368.0639   YY=           -431.5185   ZZ=           -399.3363
   XY=             12.8661   XZ=             23.5773   YZ=             30.7612

 Normal termination of Gaussian 16 at Fri Apr 29 01:41:31 2022.
