 Gaussian 16, Revision A.03,
 Gaussian 16:  ES64L-G16RevA.03 25-Dec-2016

 --------------------------------
 #p wB97XD/Def2SVP td=(nstates=5)
 --------------------------------

 -----------------------------------------------------
 step_1801_chromophore_23 TDDFT with wB97XD functional
 -----------------------------------------------------
 Symbolic Z-matrix:
 Charge =  0 Multiplicity = 1

                         Standard orientation:
 ---------------------------------------------------------------------
 Center     Atomic      Atomic             Coordinates (Angstroms)
 Number     Number       Type             X           Y           Z
 ---------------------------------------------------------------------
      1         12           0        4.778364    0.219546   -0.369855
      2          6           0        3.019499   -2.717181   -0.002443
      3          6           0        2.779358    1.095313   -2.936929
      4          6           0        5.658089    3.581217    0.148544
      5          6           0        6.191746   -0.491040    2.834606
      6          7           0        2.759808   -0.536905   -1.118383
      7          6           0        2.354793   -1.853148   -0.915469
      8          6           0        1.432784   -2.236268   -1.991447
      9          6           0        1.733130   -1.223503   -3.121263
     10          6           0        2.392358   -0.093463   -2.378751
     11          6           0        2.473982   -1.653550   -4.416448
     12          6           0       -0.086041   -2.351034   -1.517033
     13          6           0       -0.861189   -3.597655   -1.739771
     14          6           0       -2.252052   -3.325974   -2.415442
     15          8           0       -2.435686   -3.204474   -3.652757
     16          8           0       -3.226576   -3.512145   -1.451004
     17          7           0        4.489243    2.030818   -1.425374
     18          6           0        3.623028    2.173396   -2.469966
     19          6           0        3.832244    3.539815   -3.107980
     20          6           0        4.723830    4.195925   -2.216869
     21          6           0        4.976473    3.302817   -1.089973
     22          6           0        3.079550    4.139800   -4.270923
     23          6           0        5.248461    5.580218   -2.466368
     24          8           0        4.988219    6.262204   -3.435464
     25          6           0        6.326762    6.301788   -1.616951
     26          7           0        5.758859    1.435200    1.235931
     27          6           0        6.016602    2.747371    1.229774
     28          6           0        6.665884    3.215789    2.504699
     29          6           0        6.833597    1.911702    3.279243
     30          6           0        6.215681    0.856580    2.419587
     31          6           0        7.943776    4.048074    2.494622
     32          6           0        6.141005    1.976254    4.671468
     33          6           0        6.889497    1.519977    5.935704
     34          7           0        4.954482   -1.417853    1.001797
     35          6           0        5.642352   -1.621163    2.158323
     36          6           0        5.406350   -3.006177    2.666326
     37          6           0        4.411145   -3.464255    1.821018
     38          6           0        4.102955   -2.453218    0.863593
     39          6           0        5.906149   -3.682270    3.926180
     40          6           0        3.554305   -4.592814    1.563196
     41          8           0        3.443695   -5.700496    2.102465
     42          6           0        2.675566   -4.171018    0.300845
     43          6           0        3.068101   -5.080266   -0.737696
     44          8           0        4.047355   -4.935241   -1.513623
     45          8           0        1.971334   -5.946492   -0.921937
     46          6           0        1.970583   -6.762579   -2.210395
     47          6           0       -4.557814   -3.373643   -1.960224
     48          6           0       -5.343317   -2.538734   -0.972321
     49          6           0       -5.821471   -1.277397   -1.062761
     50          6           0       -5.506170   -0.350392   -2.127496
     51          6           0       -6.738888   -0.723103    0.054215
     52          6           0       -8.243486   -0.839678   -0.283786
     53          6           0       -9.112731   -1.865542    0.397613
     54          6           0      -10.181458   -1.022446    1.135561
     55          6           0      -11.582933   -1.593687    0.854853
     56          6           0       -9.793101   -0.907234    2.718750
     57          6           0      -10.187097    0.577060    3.205684
     58          6           0       -8.968977    1.191198    3.909063
     59          6           0       -7.816718    1.618381    2.898961
     60          6           0       -6.389412    1.596105    3.510221
     61          6           0       -8.177710    3.044622    2.302616
     62          6           0       -7.714442    3.143025    0.843084
     63          6           0       -7.440289    4.605109    0.381469
     64          6           0       -7.629239    4.707498   -1.150454
     65          6           0       -6.352034    4.240939   -1.819288
     66          6           0       -8.086427    6.184982   -1.472708
     67          1           0        2.473514    1.378262   -3.946952
     68          1           0        5.744398    4.664141    0.259772
     69          1           0        6.694148   -0.638302    3.793646
     70          1           0        1.769611   -3.197879   -2.378701
     71          1           0        0.794866   -0.953096   -3.604848
     72          1           0        2.131913   -2.637811   -4.735614
     73          1           0        3.523205   -1.784878   -4.152035
     74          1           0        2.368984   -0.898262   -5.195340
     75          1           0       -0.653718   -1.463390   -1.795071
     76          1           0        0.110976   -2.254962   -0.449263
     77          1           0       -0.911118   -4.117391   -0.782997
     78          1           0       -0.198935   -4.289360   -2.258624
     79          1           0        2.348925    4.835343   -3.856439
     80          1           0        2.439209    3.433468   -4.799016
     81          1           0        3.748881    4.615187   -4.986561
     82          1           0        7.166339    5.665608   -1.337647
     83          1           0        5.902705    6.645935   -0.673549
     84          1           0        6.685528    7.138678   -2.215919
     85          1           0        5.841675    3.664178    3.059033
     86          1           0        7.862324    1.605314    3.466282
     87          1           0        7.587155    5.074487    2.585608
     88          1           0        8.597291    3.993932    1.624610
     89          1           0        8.383811    3.895716    3.479746
     90          1           0        5.247821    1.398739    4.433406
     91          1           0        5.720363    2.932078    4.983864
     92          1           0        7.018964    2.419784    6.538187
     93          1           0        7.855047    1.075617    5.693484
     94          1           0        6.409779    0.728077    6.509598
     95          1           0        6.755848   -3.072717    4.234751
     96          1           0        6.262027   -4.694551    3.737349
     97          1           0        5.153701   -3.678678    4.715698
     98          1           0        1.629360   -4.260680    0.593377
     99          1           0        1.489476   -6.223824   -3.026782
    100          1           0        1.441280   -7.708360   -2.094027
    101          1           0        2.996432   -6.846425   -2.569931
    102          1           0       -4.933279   -4.386098   -2.108503
    103          1           0       -4.772598   -2.916911   -2.925826
    104          1           0       -5.704637   -3.074296   -0.095023
    105          1           0       -6.152707   -0.494978   -2.994088
    106          1           0       -4.486704   -0.358068   -2.513480
    107          1           0       -5.771612    0.680987   -1.897511
    108          1           0       -6.495851    0.339333    0.068842
    109          1           0       -6.656105   -1.195527    1.032606
    110          1           0       -8.230262   -1.222875   -1.304369
    111          1           0       -8.638109    0.174988   -0.229294
    112          1           0       -8.595494   -2.462950    1.148921
    113          1           0       -9.628747   -2.472149   -0.346545
    114          1           0      -10.390107   -0.013210    0.780735
    115          1           0      -12.316848   -1.362307    1.626531
    116          1           0      -11.514116   -2.681640    0.864272
    117          1           0      -11.966152   -1.247072   -0.104076
    118          1           0       -8.746203   -1.164442    2.873120
    119          1           0      -10.507720   -1.605389    3.154777
    120          1           0      -10.956206    0.606459    3.977583
    121          1           0      -10.526143    1.278335    2.442434
    122          1           0       -8.663338    0.472040    4.668685
    123          1           0       -9.201602    2.122654    4.425934
    124          1           0       -7.839884    0.881986    2.095614
    125          1           0       -6.352115    2.393961    4.252023
    126          1           0       -5.561811    1.792586    2.828605
    127          1           0       -6.059597    0.665309    3.972406
    128          1           0       -7.840924    3.924311    2.850479
    129          1           0       -9.267246    3.070081    2.344213
    130          1           0       -8.378769    2.521902    0.241242
    131          1           0       -6.734989    2.664274    0.826809
    132          1           0       -6.499390    4.945630    0.814207
    133          1           0       -8.244036    5.203373    0.810134
    134          1           0       -8.436804    4.066205   -1.504494
    135          1           0       -5.497247    4.767405   -1.392490
    136          1           0       -6.151167    4.687030   -2.792996
    137          1           0       -6.184640    3.167435   -1.901280
    138          1           0       -7.347229    6.608567   -2.152411
    139          1           0       -8.109429    6.872577   -0.626348
    140          1           0       -9.095623    6.027152   -1.853480
 ---------------------------------------------------------------------

 SCF Done:  E(RwB97XD) =  -3007.80265168     A.U. after   20 cycles

 Excitation energies and oscillator strengths:

 Excited State   1:      Singlet-A      1.5895 eV  780.01 nm  f=0.3757  <S**2>=0.000
     245 -> 248       -0.19330
     246 -> 247        0.68200
     245 <- 248       -0.12100
 This state for optimization and/or second-order correction.
 Total Energy, E(TD-HF/TD-DFT) =  -3007.74423782
 Copying the excited state density for this state as the 1-particle RhoCI density.

 Excited State   2:      Singlet-A      2.0976 eV  591.08 nm  f=0.0728  <S**2>=0.000
     245 -> 247        0.63031
     246 -> 248        0.30815

 Excited State   3:      Singlet-A      3.3196 eV  373.49 nm  f=0.1661  <S**2>=0.000
     241 -> 247       -0.12849
     242 -> 247       -0.10133
     243 -> 247        0.50960
     243 -> 249       -0.10419
     245 -> 247       -0.14188
     246 -> 248        0.39878

 Excited State   4:      Singlet-A      3.4230 eV  362.21 nm  f=0.3674  <S**2>=0.000
     240 -> 247       -0.10887
     241 -> 247       -0.20063
     243 -> 247       -0.39086
     245 -> 247       -0.22873
     246 -> 248        0.42877

 Excited State   5:      Singlet-A      3.4823 eV  356.04 nm  f=0.0075  <S**2>=0.000
     242 -> 247        0.55244
     242 -> 248       -0.10214
     242 -> 249       -0.22233
     242 -> 251        0.21832
     243 -> 249       -0.10394
     243 -> 251        0.14433

 The electronic state is 1-A.
 Alpha  occ. eigenvalues --  -46.97542 -19.31278 -19.30506 -19.25570 -19.25417
 Alpha  occ. eigenvalues --  -19.24405 -19.23517 -14.46918 -14.46528 -14.44763
 Alpha  occ. eigenvalues --  -14.44497 -10.44392 -10.43786 -10.39410 -10.38851
 Alpha  occ. eigenvalues --  -10.35869 -10.35443 -10.35387 -10.35331 -10.35251
 Alpha  occ. eigenvalues --  -10.35210 -10.35161 -10.34630 -10.34500 -10.33640
 Alpha  occ. eigenvalues --  -10.33312 -10.32744 -10.32407 -10.31958 -10.31798
 Alpha  occ. eigenvalues --  -10.31732 -10.31636 -10.31543 -10.31525 -10.31512
 Alpha  occ. eigenvalues --  -10.31227 -10.31181 -10.31058 -10.31038 -10.30904
 Alpha  occ. eigenvalues --  -10.30594 -10.30404 -10.30179 -10.30150 -10.30137
 Alpha  occ. eigenvalues --  -10.30023 -10.29946 -10.29888 -10.29752 -10.29589
 Alpha  occ. eigenvalues --  -10.29547 -10.29392 -10.29387 -10.29333 -10.29297
 Alpha  occ. eigenvalues --  -10.29027 -10.28888 -10.28721 -10.28719 -10.28679
 Alpha  occ. eigenvalues --  -10.28593 -10.28493 -10.28440 -10.28275 -10.28218
 Alpha  occ. eigenvalues --  -10.28110  -3.23191  -1.96712  -1.96321  -1.96143
 Alpha  occ. eigenvalues --   -1.18623  -1.16260  -1.12784  -1.11453  -1.09608
 Alpha  occ. eigenvalues --   -1.08612  -1.06592  -1.05883  -1.05189  -1.04172
 Alpha  occ. eigenvalues --   -0.94880  -0.92680  -0.91868  -0.91497  -0.91219
 Alpha  occ. eigenvalues --   -0.90482  -0.90200  -0.89621  -0.89123  -0.88528
 Alpha  occ. eigenvalues --   -0.88373  -0.87738  -0.86210  -0.85872  -0.85682
 Alpha  occ. eigenvalues --   -0.84433  -0.83813  -0.83022  -0.82547  -0.82070
 Alpha  occ. eigenvalues --   -0.81620  -0.80339  -0.79924  -0.79487  -0.78233
 Alpha  occ. eigenvalues --   -0.77849  -0.77725  -0.77436  -0.76502  -0.75682
 Alpha  occ. eigenvalues --   -0.75398  -0.74859  -0.74119  -0.72091  -0.71417
 Alpha  occ. eigenvalues --   -0.71119  -0.70095  -0.69646  -0.67928  -0.67860
 Alpha  occ. eigenvalues --   -0.67462  -0.67206  -0.67050  -0.66689  -0.66211
 Alpha  occ. eigenvalues --   -0.65789  -0.65459  -0.64098  -0.63907  -0.62139
 Alpha  occ. eigenvalues --   -0.61948  -0.61748  -0.61178  -0.61066  -0.60502
 Alpha  occ. eigenvalues --   -0.59679  -0.59504  -0.58473  -0.58386  -0.57727
 Alpha  occ. eigenvalues --   -0.57461  -0.56759  -0.56430  -0.56299  -0.56036
 Alpha  occ. eigenvalues --   -0.55768  -0.55548  -0.55330  -0.54875  -0.54770
 Alpha  occ. eigenvalues --   -0.54426  -0.54210  -0.53756  -0.53541  -0.53463
 Alpha  occ. eigenvalues --   -0.53448  -0.53322  -0.52614  -0.52584  -0.52401
 Alpha  occ. eigenvalues --   -0.52346  -0.51806  -0.51780  -0.51643  -0.51503
 Alpha  occ. eigenvalues --   -0.51398  -0.51265  -0.51077  -0.50796  -0.50754
 Alpha  occ. eigenvalues --   -0.50657  -0.50555  -0.50181  -0.49660  -0.49505
 Alpha  occ. eigenvalues --   -0.49285  -0.49163  -0.49064  -0.48751  -0.48619
 Alpha  occ. eigenvalues --   -0.48272  -0.48157  -0.48118  -0.47976  -0.47766
 Alpha  occ. eigenvalues --   -0.47574  -0.47500  -0.47462  -0.47025  -0.46854
 Alpha  occ. eigenvalues --   -0.46833  -0.46652  -0.46567  -0.46375  -0.46094
 Alpha  occ. eigenvalues --   -0.45805  -0.45787  -0.45549  -0.45217  -0.45022
 Alpha  occ. eigenvalues --   -0.44911  -0.44350  -0.44156  -0.44028  -0.44003
 Alpha  occ. eigenvalues --   -0.43775  -0.43538  -0.43457  -0.43237  -0.42882
 Alpha  occ. eigenvalues --   -0.42797  -0.42656  -0.42410  -0.42177  -0.41943
 Alpha  occ. eigenvalues --   -0.41333  -0.41101  -0.40940  -0.40601  -0.40516
 Alpha  occ. eigenvalues --   -0.40428  -0.40230  -0.40156  -0.40061  -0.39832
 Alpha  occ. eigenvalues --   -0.39301  -0.38694  -0.38650  -0.38537  -0.38275
 Alpha  occ. eigenvalues --   -0.38205  -0.37437  -0.36969  -0.36657  -0.36269
 Alpha  occ. eigenvalues --   -0.35547  -0.35226  -0.35206  -0.33518  -0.32997
 Alpha  occ. eigenvalues --   -0.32694  -0.32423  -0.32101  -0.31988  -0.26088
 Alpha  occ. eigenvalues --   -0.22869
 Alpha virt. eigenvalues --   -0.07230  -0.00363   0.01842   0.03888   0.04150
 Alpha virt. eigenvalues --    0.05519   0.05709   0.06755   0.07368   0.09697
 Alpha virt. eigenvalues --    0.10397   0.10965   0.11313   0.11973   0.12243

 Mulliken charges:
               1
     1  Mg   0.950351
     2  C   -0.007208
     3  C   -0.077249
     4  C   -0.071338
     5  C   -0.068229
     6  N   -0.374120
     7  C    0.049403
     8  C   -0.115367
     9  C   -0.099883
    10  C    0.110137
    11  C    0.023501
    12  C    0.027214
    13  C    0.055127
    14  C    0.236606
    15  O   -0.290147
    16  O   -0.336853
    17  N   -0.452202
    18  C    0.102270
    19  C   -0.147105
    20  C   -0.053555
    21  C    0.136029
    22  C    0.084078
    23  C    0.029020
    24  O   -0.233183
    25  C   -0.035423
    26  N   -0.335467
    27  C    0.033283
    28  C   -0.001572
    29  C   -0.143726
    30  C    0.060104
    31  C    0.062658
    32  C   -0.047343
    33  C   -0.044888
    34  N   -0.411615
    35  C    0.117071
    36  C   -0.205594
    37  C    0.017278
    38  C    0.124396
    39  C    0.082636
    40  C    0.096390
    41  O   -0.215816
    42  C   -0.115643
    43  C    0.337158
    44  O   -0.280808
    45  O   -0.400163
    46  C    0.125604
    47  C    0.259446
    48  C   -0.131100
    49  C   -0.200940
    50  C    0.045554
    51  C    0.040135
    52  C   -0.044002
    53  C    0.049428
    54  C   -0.235441
    55  C   -0.013044
    56  C    0.015409
    57  C   -0.014352
    58  C   -0.034793
    59  C   -0.168258
    60  C    0.008317
    61  C    0.005782
    62  C   -0.074774
    63  C    0.012630
    64  C   -0.214425
    65  C   -0.001994
    66  C    0.004825
    67  H   -0.003170
    68  H   -0.018303
    69  H   -0.005920
    70  H    0.030344
    71  H    0.032975
    72  H    0.044820
    73  H    0.032129
    74  H    0.051201
    75  H    0.043797
    76  H    0.030495
    77  H    0.053963
    78  H    0.033727
    79  H    0.060660
    80  H    0.017962
    81  H    0.073319
    82  H    0.043669
    83  H    0.057537
    84  H    0.059310
    85  H    0.033926
    86  H    0.034643
    87  H    0.024624
    88  H    0.058697
    89  H    0.034245
    90  H    0.035235
    91  H    0.030954
    92  H    0.042734
    93  H    0.027283
    94  H    0.043493
    95  H    0.026968
    96  H    0.065681
    97  H    0.066175
    98  H    0.075380
    99  H    0.045161
   100  H    0.072127
   101  H    0.069164
   102  H    0.036641
   103  H    0.044455
   104  H    0.008516
   105  H    0.042566
   106  H    0.059394
   107  H    0.009437
   108  H    0.014604
   109  H    0.025587
   110  H    0.019811
   111  H    0.031511
   112  H    0.024950
   113  H    0.024211
   114  H    0.023493
   115  H    0.020971
   116  H    0.020319
   117  H    0.036013
   118  H    0.038841
   119  H    0.026788
   120  H    0.025317
   121  H    0.017784
   122  H    0.017578
   123  H    0.014355
   124  H    0.000813
   125  H    0.020902
   126  H    0.022504
   127  H    0.026311
   128  H    0.018521
   129  H    0.009279
   130  H    0.025619
   131  H    0.031277
   132  H    0.032502
   133  H    0.013189
   134  H    0.024126
   135  H    0.008197
   136  H    0.011164
   137  H    0.048010
   138  H    0.022396
   139  H    0.032513
   140  H    0.040309
 Sum of Mulliken charges =  -0.00000

 Dipole moment (field-independent basis, Debye):
    X=             -0.8067    Y=              2.4127    Z=              1.9446  Tot=              3.2021
 Quadrupole moment (field-independent basis, Debye-Ang):
   XX=           -368.2071   YY=           -429.6796   ZZ=           -399.3195
   XY=             14.2569   XZ=             21.9404   YZ=             30.3063

 Normal termination of Gaussian 16 at Fri Apr 29 02:12:11 2022.
