 Gaussian 16, Revision A.03,
 Gaussian 16:  ES64L-G16RevA.03 25-Dec-2016

 --------------------
 #p ZINDO=(nstates=5)
 --------------------

 ------------------------------
 step_1801_chromophore_23 ZINDO
 ------------------------------
 Symbolic Z-matrix:
 Charge =  0 Multiplicity = 1

                         Standard orientation:
 ---------------------------------------------------------------------
 Center     Atomic      Atomic             Coordinates (Angstroms)
 Number     Number       Type             X           Y           Z
 ---------------------------------------------------------------------
      1         12           0        4.778364    0.219546   -0.369855
      2          6           0        3.019499   -2.717181   -0.002443
      3          6           0        2.779358    1.095313   -2.936929
      4          6           0        5.658089    3.581217    0.148544
      5          6           0        6.191746   -0.491040    2.834606
      6          7           0        2.759808   -0.536905   -1.118383
      7          6           0        2.354793   -1.853148   -0.915469
      8          6           0        1.432784   -2.236268   -1.991447
      9          6           0        1.733130   -1.223503   -3.121263
     10          6           0        2.392358   -0.093463   -2.378751
     11          6           0        2.473982   -1.653550   -4.416448
     12          6           0       -0.086041   -2.351034   -1.517033
     13          6           0       -0.861189   -3.597655   -1.739771
     14          6           0       -2.252052   -3.325974   -2.415442
     15          8           0       -2.435686   -3.204474   -3.652757
     16          8           0       -3.226576   -3.512145   -1.451004
     17          7           0        4.489243    2.030818   -1.425374
     18          6           0        3.623028    2.173396   -2.469966
     19          6           0        3.832244    3.539815   -3.107980
     20          6           0        4.723830    4.195925   -2.216869
     21          6           0        4.976473    3.302817   -1.089973
     22          6           0        3.079550    4.139800   -4.270923
     23          6           0        5.248461    5.580218   -2.466368
     24          8           0        4.988219    6.262204   -3.435464
     25          6           0        6.326762    6.301788   -1.616951
     26          7           0        5.758859    1.435200    1.235931
     27          6           0        6.016602    2.747371    1.229774
     28          6           0        6.665884    3.215789    2.504699
     29          6           0        6.833597    1.911702    3.279243
     30          6           0        6.215681    0.856580    2.419587
     31          6           0        7.943776    4.048074    2.494622
     32          6           0        6.141005    1.976254    4.671468
     33          6           0        6.889497    1.519977    5.935704
     34          7           0        4.954482   -1.417853    1.001797
     35          6           0        5.642352   -1.621163    2.158323
     36          6           0        5.406350   -3.006177    2.666326
     37          6           0        4.411145   -3.464255    1.821018
     38          6           0        4.102955   -2.453218    0.863593
     39          6           0        5.906149   -3.682270    3.926180
     40          6           0        3.554305   -4.592814    1.563196
     41          8           0        3.443695   -5.700496    2.102465
     42          6           0        2.675566   -4.171018    0.300845
     43          6           0        3.068101   -5.080266   -0.737696
     44          8           0        4.047355   -4.935241   -1.513623
     45          8           0        1.971334   -5.946492   -0.921937
     46          6           0        1.970583   -6.762579   -2.210395
     47          6           0       -4.557814   -3.373643   -1.960224
     48          6           0       -5.343317   -2.538734   -0.972321
     49          6           0       -5.821471   -1.277397   -1.062761
     50          6           0       -5.506170   -0.350392   -2.127496
     51          6           0       -6.738888   -0.723103    0.054215
     52          6           0       -8.243486   -0.839678   -0.283786
     53          6           0       -9.112731   -1.865542    0.397613
     54          6           0      -10.181458   -1.022446    1.135561
     55          6           0      -11.582933   -1.593687    0.854853
     56          6           0       -9.793101   -0.907234    2.718750
     57          6           0      -10.187097    0.577060    3.205684
     58          6           0       -8.968977    1.191198    3.909063
     59          6           0       -7.816718    1.618381    2.898961
     60          6           0       -6.389412    1.596105    3.510221
     61          6           0       -8.177710    3.044622    2.302616
     62          6           0       -7.714442    3.143025    0.843084
     63          6           0       -7.440289    4.605109    0.381469
     64          6           0       -7.629239    4.707498   -1.150454
     65          6           0       -6.352034    4.240939   -1.819288
     66          6           0       -8.086427    6.184982   -1.472708
     67          1           0        2.473514    1.378262   -3.946952
     68          1           0        5.744398    4.664141    0.259772
     69          1           0        6.694148   -0.638302    3.793646
     70          1           0        1.769611   -3.197879   -2.378701
     71          1           0        0.794866   -0.953096   -3.604848
     72          1           0        2.131913   -2.637811   -4.735614
     73          1           0        3.523205   -1.784878   -4.152035
     74          1           0        2.368984   -0.898262   -5.195340
     75          1           0       -0.653718   -1.463390   -1.795071
     76          1           0        0.110976   -2.254962   -0.449263
     77          1           0       -0.911118   -4.117391   -0.782997
     78          1           0       -0.198935   -4.289360   -2.258624
     79          1           0        2.348925    4.835343   -3.856439
     80          1           0        2.439209    3.433468   -4.799016
     81          1           0        3.748881    4.615187   -4.986561
     82          1           0        7.166339    5.665608   -1.337647
     83          1           0        5.902705    6.645935   -0.673549
     84          1           0        6.685528    7.138678   -2.215919
     85          1           0        5.841675    3.664178    3.059033
     86          1           0        7.862324    1.605314    3.466282
     87          1           0        7.587155    5.074487    2.585608
     88          1           0        8.597291    3.993932    1.624610
     89          1           0        8.383811    3.895716    3.479746
     90          1           0        5.247821    1.398739    4.433406
     91          1           0        5.720363    2.932078    4.983864
     92          1           0        7.018964    2.419784    6.538187
     93          1           0        7.855047    1.075617    5.693484
     94          1           0        6.409779    0.728077    6.509598
     95          1           0        6.755848   -3.072717    4.234751
     96          1           0        6.262027   -4.694551    3.737349
     97          1           0        5.153701   -3.678678    4.715698
     98          1           0        1.629360   -4.260680    0.593377
     99          1           0        1.489476   -6.223824   -3.026782
    100          1           0        1.441280   -7.708360   -2.094027
    101          1           0        2.996432   -6.846425   -2.569931
    102          1           0       -4.933279   -4.386098   -2.108503
    103          1           0       -4.772598   -2.916911   -2.925826
    104          1           0       -5.704637   -3.074296   -0.095023
    105          1           0       -6.152707   -0.494978   -2.994088
    106          1           0       -4.486704   -0.358068   -2.513480
    107          1           0       -5.771612    0.680987   -1.897511
    108          1           0       -6.495851    0.339333    0.068842
    109          1           0       -6.656105   -1.195527    1.032606
    110          1           0       -8.230262   -1.222875   -1.304369
    111          1           0       -8.638109    0.174988   -0.229294
    112          1           0       -8.595494   -2.462950    1.148921
    113          1           0       -9.628747   -2.472149   -0.346545
    114          1           0      -10.390107   -0.013210    0.780735
    115          1           0      -12.316848   -1.362307    1.626531
    116          1           0      -11.514116   -2.681640    0.864272
    117          1           0      -11.966152   -1.247072   -0.104076
    118          1           0       -8.746203   -1.164442    2.873120
    119          1           0      -10.507720   -1.605389    3.154777
    120          1           0      -10.956206    0.606459    3.977583
    121          1           0      -10.526143    1.278335    2.442434
    122          1           0       -8.663338    0.472040    4.668685
    123          1           0       -9.201602    2.122654    4.425934
    124          1           0       -7.839884    0.881986    2.095614
    125          1           0       -6.352115    2.393961    4.252023
    126          1           0       -5.561811    1.792586    2.828605
    127          1           0       -6.059597    0.665309    3.972406
    128          1           0       -7.840924    3.924311    2.850479
    129          1           0       -9.267246    3.070081    2.344213
    130          1           0       -8.378769    2.521902    0.241242
    131          1           0       -6.734989    2.664274    0.826809
    132          1           0       -6.499390    4.945630    0.814207
    133          1           0       -8.244036    5.203373    0.810134
    134          1           0       -8.436804    4.066205   -1.504494
    135          1           0       -5.497247    4.767405   -1.392490
    136          1           0       -6.151167    4.687030   -2.792996
    137          1           0       -6.184640    3.167435   -1.901280
    138          1           0       -7.347229    6.608567   -2.152411
    139          1           0       -8.109429    6.872577   -0.626348
    140          1           0       -9.095623    6.027152   -1.853480
 ---------------------------------------------------------------------

 SCF Done:  E(RZINDO/S) =  -474.043401592     A.U. after   20 cycles

 Excitation energies and oscillator strengths:

 Excited State   1:      Singlet-A      1.1842 eV 1046.95 nm  f=0.5962  <S**2>=0.000
     175 ->178         0.19603
     176 ->177         0.66104
 This state for optimization and/or second-order correction.
 Total Energy, E(CIS/TDA) =  -473.999881342
 Copying the excited state density for this state as the 1-particle RhoCI density.

 Excited State   2:      Singlet-A      1.8011 eV  688.37 nm  f=0.0126  <S**2>=0.000
     175 ->177         0.52342
     176 ->178        -0.44837

 Excited State   3:      Singlet-A      2.7276 eV  454.56 nm  f=0.0955  <S**2>=0.000
     175 ->177        -0.12842
     176 ->178        -0.20666
     176 ->179         0.50036
     176 ->181         0.39557

 Excited State   4:      Singlet-A      2.7388 eV  452.69 nm  f=0.1829  <S**2>=0.000
     175 ->177         0.20303
     176 ->178         0.27799
     176 ->179        -0.21854
     176 ->181         0.54823

 Excited State   5:      Singlet-A      2.8135 eV  440.68 nm  f=0.0054  <S**2>=0.000
     169 ->177         0.27675
     169 ->178        -0.11517
     169 ->179        -0.25567
     169 ->182        -0.40645
     169 ->183        -0.15878
     169 ->186         0.21320
     169 ->187         0.14039
     169 ->192        -0.10516
     169 ->194        -0.11441
     170 ->182         0.10895

 The electronic state is 1-A.
 Alpha  occ. eigenvalues --   -1.84387  -1.81496  -1.79556  -1.72882  -1.71582
 Alpha  occ. eigenvalues --   -1.69666  -1.66547  -1.60670  -1.60307  -1.56549
 Alpha  occ. eigenvalues --   -1.55250  -1.51327  -1.48930  -1.47908  -1.47710
 Alpha  occ. eigenvalues --   -1.43787  -1.41964  -1.39687  -1.38582  -1.37463
 Alpha  occ. eigenvalues --   -1.35759  -1.33587  -1.32621  -1.31616  -1.28533
 Alpha  occ. eigenvalues --   -1.26863  -1.25819  -1.22399  -1.21288  -1.18187
 Alpha  occ. eigenvalues --   -1.17559  -1.16597  -1.15557  -1.14165  -1.13383
 Alpha  occ. eigenvalues --   -1.13216  -1.10428  -1.09534  -1.05181  -1.04036
 Alpha  occ. eigenvalues --   -1.03280  -1.01679  -0.98258  -0.97249  -0.96856
 Alpha  occ. eigenvalues --   -0.96736  -0.94625  -0.93841  -0.93496  -0.93103
 Alpha  occ. eigenvalues --   -0.90745  -0.89718  -0.89206  -0.89017  -0.86665
 Alpha  occ. eigenvalues --   -0.85941  -0.85147  -0.83750  -0.82630  -0.81589
 Alpha  occ. eigenvalues --   -0.79563  -0.78686  -0.78520  -0.77112  -0.76627
 Alpha  occ. eigenvalues --   -0.76196  -0.76145  -0.75373  -0.74751  -0.73640
 Alpha  occ. eigenvalues --   -0.73480  -0.73250  -0.72495  -0.72072  -0.70847
 Alpha  occ. eigenvalues --   -0.70261  -0.69942  -0.69278  -0.68474  -0.67777
 Alpha  occ. eigenvalues --   -0.67163  -0.66602  -0.66109  -0.66008  -0.65427
 Alpha  occ. eigenvalues --   -0.64653  -0.64318  -0.64136  -0.63897  -0.63846
 Alpha  occ. eigenvalues --   -0.63604  -0.63306  -0.62549  -0.62361  -0.62002
 Alpha  occ. eigenvalues --   -0.61768  -0.61281  -0.61199  -0.60567  -0.60248
 Alpha  occ. eigenvalues --   -0.60069  -0.59037  -0.58812  -0.58296  -0.58182
 Alpha  occ. eigenvalues --   -0.57998  -0.57675  -0.57330  -0.56831  -0.56627
 Alpha  occ. eigenvalues --   -0.56139  -0.55883  -0.55585  -0.55291  -0.55054
 Alpha  occ. eigenvalues --   -0.54712  -0.54267  -0.53910  -0.53515  -0.52708
 Alpha  occ. eigenvalues --   -0.52386  -0.52329  -0.51919  -0.51821  -0.51630
 Alpha  occ. eigenvalues --   -0.51360  -0.51290  -0.51277  -0.50751  -0.50510
 Alpha  occ. eigenvalues --   -0.50143  -0.49810  -0.49540  -0.48963  -0.48812
 Alpha  occ. eigenvalues --   -0.48639  -0.48268  -0.48065  -0.47653  -0.47353
 Alpha  occ. eigenvalues --   -0.47316  -0.47108  -0.46953  -0.46726  -0.46559
 Alpha  occ. eigenvalues --   -0.46374  -0.46083  -0.46014  -0.45558  -0.45394
 Alpha  occ. eigenvalues --   -0.45220  -0.44873  -0.44647  -0.44548  -0.43925
 Alpha  occ. eigenvalues --   -0.43873  -0.43593  -0.42705  -0.42346  -0.42075
 Alpha  occ. eigenvalues --   -0.41531  -0.41511  -0.40587  -0.39790  -0.38894
 Alpha  occ. eigenvalues --   -0.38415  -0.38151  -0.35179  -0.35009  -0.34564
 Alpha  occ. eigenvalues --   -0.33137  -0.32934  -0.32479  -0.32401  -0.26717
 Alpha  occ. eigenvalues --   -0.21412
 Alpha virt. eigenvalues --   -0.08587  -0.02580  -0.01232   0.00050   0.00179
 Alpha virt. eigenvalues --    0.00664   0.01930   0.01983   0.04481   0.04614
 Alpha virt. eigenvalues --    0.05893   0.06926   0.07106   0.07497   0.07909

 Mulliken charges:
               1
     1  Mg   0.441913
     2  C   -0.051322
     3  C   -0.082666
     4  C   -0.097849
     5  C   -0.065886
     6  N   -0.317683
     7  C    0.130747
     8  C    0.013488
     9  C    0.005514
    10  C    0.158641
    11  C   -0.043980
    12  C   -0.021180
    13  C    0.008131
    14  C    0.466229
    15  O   -0.516604
    16  O   -0.243106
    17  N   -0.324406
    18  C    0.124683
    19  C    0.039263
    20  C   -0.034063
    21  C    0.125702
    22  C   -0.027641
    23  C    0.318619
    24  O   -0.517016
    25  C   -0.030123
    26  N   -0.276234
    27  C    0.155354
    28  C    0.008569
    29  C    0.005669
    30  C    0.101964
    31  C   -0.049582
    32  C   -0.042110
    33  C   -0.057324
    34  N   -0.306506
    35  C    0.087015
    36  C    0.026769
    37  C   -0.046561
    38  C    0.117966
    39  C   -0.032786
    40  C    0.328451
    41  O   -0.528958
    42  C    0.060724
    43  C    0.499573
    44  O   -0.533280
    45  O   -0.280693
    46  C    0.065628
    47  C    0.107203
    48  C   -0.104209
    49  C    0.014862
    50  C   -0.036029
    51  C   -0.029862
    52  C   -0.037328
    53  C   -0.025947
    54  C   -0.032632
    55  C   -0.060566
    56  C   -0.044418
    57  C   -0.040859
    58  C   -0.039076
    59  C   -0.015917
    60  C   -0.058442
    61  C   -0.039205
    62  C   -0.045190
    63  C   -0.032121
    64  C   -0.007533
    65  C   -0.061541
    66  C   -0.065380
    67  H    0.022408
    68  H    0.022307
    69  H    0.025630
    70  H    0.027494
    71  H    0.021884
    72  H    0.023883
    73  H    0.020619
    74  H    0.028983
    75  H    0.031705
    76  H    0.016940
    77  H    0.034799
    78  H    0.043135
    79  H    0.038076
    80  H    0.017238
    81  H    0.050093
    82  H    0.025195
    83  H    0.033059
    84  H    0.041074
    85  H    0.038726
    86  H    0.029033
    87  H    0.008659
    88  H    0.041502
    89  H    0.024923
    90  H    0.019615
    91  H    0.016572
    92  H    0.020943
    93  H    0.016329
    94  H    0.023356
    95  H    0.015576
    96  H    0.041503
    97  H    0.039680
    98  H    0.049573
    99  H    0.032187
   100  H    0.046023
   101  H    0.053769
   102  H    0.036478
   103  H    0.051920
   104  H    0.017743
   105  H    0.026853
   106  H    0.030485
   107  H    0.014618
   108  H    0.021230
   109  H    0.028865
   110  H    0.012204
   111  H    0.027776
   112  H    0.029933
   113  H    0.023640
   114  H    0.026568
   115  H    0.012487
   116  H    0.011158
   117  H    0.019177
   118  H    0.039076
   119  H    0.025435
   120  H    0.014611
   121  H    0.027719
   122  H    0.015751
   123  H    0.011211
   124  H    0.021416
   125  H    0.014789
   126  H    0.014513
   127  H    0.016127
   128  H    0.027261
   129  H    0.012317
   130  H    0.026712
   131  H    0.009894
   132  H    0.033452
   133  H    0.008299
   134  H    0.022329
   135  H    0.013480
   136  H    0.008700
   137  H    0.026433
   138  H    0.021680
   139  H    0.022145
   140  H    0.024159
 Sum of Mulliken charges =  -0.00000

 Dipole moment (field-independent basis, Debye):
    X=             -1.5764    Y=              4.0217    Z=              3.1108  Tot=              5.3231
 N-N= 4.455333683665D+03 E-N= 0.000000000000D+00  KE=-9.584220480029D+03
 Leave Link  601 at Fri Apr 29 02:25:41 2022, MaxMem=  6710886400 cpu:               0.8 elap:               0.1
 (Enter /sw/apps/gaussian-16.0/g16/l9999.exe)
 1\1\GINC-BP1-COMPUTE082\SP\RZINDO CIS\STO-3G\C55H74Mg1N4O6\OF15641\29-
 Apr-2022\0\\#p ZINDO=(nstates=5)\\step_1801_chromophore_23 ZINDO\\0,1\
 Mg,0,-9.678,41.166,42.441\C,0,-8.946,37.968,41.397\C,0,-6.817,42.275,4
 1.049\C,0,-11.039,44.403,42.327\C,0,-12.981,39.959,43.077\N,0,-8.215,4
 0.274,40.934\C,0,-8.042,38.898,40.814\C,0,-6.682,38.632,40.33\C,0,-5.9
 03,39.924,40.671\C,0,-7.004,40.938,40.821\C,0,-4.848,39.955,41.81\C,0,
 -6.631,38.144,38.812\C,0,-5.958,36.873,38.443\C,0,-4.943,37.054,37.259

 Normal termination of Gaussian 16 at Fri Apr 29 02:25:42 2022.
