 Gaussian 16, Revision A.03,
 Gaussian 16:  ES64L-G16RevA.03 25-Dec-2016

 ------------------------------
 #p blyp/Def2SVP td=(nstates=5)
 ------------------------------

 --------------------------------------------------
 step_201_chromophore_15 TDDFT with blyp functional
 --------------------------------------------------
 Symbolic Z-matrix:
 Charge =  0 Multiplicity = 1

                         Standard orientation:
 ---------------------------------------------------------------------
 Center     Atomic      Atomic             Coordinates (Angstroms)
 Number     Number       Type             X           Y           Z
 ---------------------------------------------------------------------
      1         12           0       -4.800402    0.843876    0.029462
      2          6           0       -4.442651   -2.548627    0.411317
      3          6           0       -1.491252    1.318695   -0.061492
      4          6           0       -5.250146    4.309935    0.354488
      5          6           0       -8.226533    0.568483    0.567905
      6          7           0       -3.233925   -0.501974    0.078061
      7          6           0       -3.248185   -1.854565    0.079891
      8          6           0       -1.897995   -2.502344   -0.186558
      9          6           0       -0.914779   -1.216164   -0.161685
     10          6           0       -1.921284   -0.051221    0.040760
     11          6           0        0.267467   -1.185581    0.759391
     12          6           0       -1.813583   -3.167920   -1.652415
     13          6           0       -0.635796   -4.111485   -1.909645
     14          6           0        0.582708   -4.246661   -1.008848
     15          8           0        0.608596   -4.767488    0.067755
     16          8           0        1.655550   -3.690624   -1.636004
     17          7           0       -3.509983    2.542176   -0.125742
     18          6           0       -2.166279    2.497152   -0.124144
     19          6           0       -1.589717    3.815616   -0.145877
     20          6           0       -2.654042    4.780735   -0.104575
     21          6           0       -3.896479    3.874043    0.042022
     22          6           0       -0.075410    4.173222   -0.140615
     23          6           0       -2.677328    6.347082   -0.207266
     24          8           0       -3.709854    6.983865   -0.360320
     25          6           0       -1.423948    7.178019   -0.342091
     26          7           0       -6.503101    2.192894    0.228044
     27          6           0       -6.395518    3.558898    0.524134
     28          6           0       -7.675985    4.251110    0.796105
     29          6           0       -8.677218    3.037989    0.699165
     30          6           0       -7.715199    1.789660    0.500459
     31          6           0       -7.749150    5.125555    2.037829
     32          6           0       -9.768487    3.164403   -0.379611
     33          6           0       -9.256783    2.954013   -1.846010
     34          7           0       -6.126693   -0.656456    0.378229
     35          6           0       -7.519841   -0.608681    0.627447
     36          6           0       -7.993948   -1.990446    0.869935
     37          6           0       -6.805045   -2.768660    0.921971
     38          6           0       -5.715965   -1.921350    0.513352
     39          6           0       -9.484411   -2.415483    1.119017
     40          6           0       -6.328620   -4.057080    1.103044
     41          8           0       -6.847627   -5.090105    1.376357
     42          6           0       -4.709272   -3.909305    0.992518
     43          6           0       -3.909304   -5.022740    0.282472
     44          8           0       -4.095882   -5.429608   -0.827896
     45          8           0       -3.021358   -5.549630    1.229495
     46          6           0       -2.158382   -6.616923    0.684348
     47          6           0        2.940553   -3.831635   -0.929724
     48          6           0        4.098328   -3.233771   -1.711741
     49          6           0        5.416321   -3.309425   -1.306780
     50          6           0        5.973321   -3.800037   -0.056001
     51          6           0        6.398686   -2.452907   -2.109730
     52          6           0        6.058242   -0.942438   -2.027181
     53          6           0        6.338027   -0.140884   -3.255303
     54          6           0        7.265623    1.090498   -3.070933
     55          6           0        7.177814    1.982403   -4.308077
     56          6           0        8.687666    0.626496   -2.666957
     57          6           0        8.993224    1.142651   -1.246677
     58          6           0       10.432803    1.252226   -0.939041
     59          6           0       10.845308    2.584356   -0.159107
     60          6           0       11.285228    3.683887   -1.141312
     61          6           0       11.934734    2.377525    0.892250
     62          6           0       11.330225    1.949868    2.271467
     63          6           0       12.108407    0.684568    2.628436
     64          6           0       12.191753    0.419860    4.175633
     65          6           0       13.619179    0.154007    4.623506
     66          6           0       11.333093   -0.801498    4.643708
     67          1           0       -0.415335    1.429162   -0.216348
     68          1           0       -5.243884    5.366858    0.627854
     69          1           0       -9.283336    0.489573    0.830175
     70          1           0       -1.655451   -3.264207    0.553956
     71          1           0       -0.477984   -1.116975   -1.155014
     72          1           0        0.341174   -0.279620    1.362887
     73          1           0        1.192556   -1.424998    0.235013
     74          1           0        0.034218   -2.023786    1.415468
     75          1           0       -1.656817   -2.360588   -2.367263
     76          1           0       -2.745589   -3.686588   -1.874644
     77          1           0       -0.316960   -3.728483   -2.879630
     78          1           0       -1.113009   -5.089537   -1.848115
     79          1           0        0.056780    4.908870   -0.934505
     80          1           0        0.542359    3.290752   -0.306163
     81          1           0        0.254388    4.684071    0.763730
     82          1           0       -0.760634    6.746018    0.407697
     83          1           0       -1.601963    8.219936   -0.078857
     84          1           0       -1.131871    7.181163   -1.392527
     85          1           0       -8.075449    4.913164    0.027997
     86          1           0       -9.148737    2.809184    1.654863
     87          1           0       -7.549170    6.170822    1.800818
     88          1           0       -7.159091    4.738971    2.869012
     89          1           0       -8.812808    5.072876    2.267573
     90          1           0      -10.190524    4.163986   -0.268682
     91          1           0      -10.546043    2.424061   -0.194639
     92          1           0       -9.354496    3.826662   -2.491912
     93          1           0       -9.732257    2.169357   -2.434757
     94          1           0       -8.199692    2.689551   -1.829982
     95          1           0      -10.034260   -1.998640    0.274433
     96          1           0       -9.774596   -1.853419    2.007126
     97          1           0       -9.594840   -3.498133    1.059298
     98          1           0       -4.358805   -3.727723    2.008780
     99          1           0       -1.278426   -6.608154    1.328499
    100          1           0       -1.809557   -6.414316   -0.327927
    101          1           0       -2.543018   -7.634589    0.613779
    102          1           0        3.238917   -4.879336   -0.944899
    103          1           0        2.810525   -3.299551    0.012613
    104          1           0        3.845909   -2.882017   -2.711984
    105          1           0        5.268035   -3.948074    0.762113
    106          1           0        6.667991   -3.021008    0.259886
    107          1           0        6.461285   -4.728513   -0.353292
    108          1           0        6.402760   -2.853217   -3.123798
    109          1           0        7.435364   -2.599297   -1.805806
    110          1           0        6.539873   -0.457166   -1.178563
    111          1           0        5.003517   -0.922305   -1.753080
    112          1           0        5.508208    0.318384   -3.792568
    113          1           0        6.768925   -0.888882   -3.920753
    114          1           0        6.837230    1.717885   -2.289883
    115          1           0        6.730316    2.940802   -4.043573
    116          1           0        6.613111    1.764663   -5.214830
    117          1           0        8.153903    2.280878   -4.688078
    118          1           0        9.400872    1.031305   -3.385514
    119          1           0        8.876524   -0.444044   -2.740655
    120          1           0        8.529005    0.590376   -0.429208
    121          1           0        8.542742    2.120951   -1.084691
    122          1           0       11.138145    1.117243   -1.759071
    123          1           0       10.519330    0.405795   -0.256911
    124          1           0        9.903305    2.988009    0.212410
    125          1           0       12.370010    3.652102   -1.245722
    126          1           0       11.102129    4.698336   -0.786264
    127          1           0       10.871430    3.518161   -2.135993
    128          1           0       12.416915    3.335978    1.082851
    129          1           0       12.552449    1.645421    0.372821
    130          1           0       10.263634    1.775003    2.129202
    131          1           0       11.491025    2.802130    2.932655
    132          1           0       13.143630    0.753901    2.294860
    133          1           0       11.592228   -0.123287    2.109187
    134          1           0       11.824209    1.360479    4.585424
    135          1           0       14.300043   -0.113567    3.815242
    136          1           0       13.617351   -0.692890    5.310351
    137          1           0       14.002970    1.029674    5.145189
    138          1           0       10.286219   -0.668479    4.370933
    139          1           0       11.429372   -0.900332    5.725198
    140          1           0       11.648001   -1.735809    4.178431
 ---------------------------------------------------------------------

 SCF Done:  E(RB-LYP) =  -3007.34122320     A.U. after   21 cycles

 Excitation energies and oscillator strengths:

 Excited State   1:      Singlet-A      1.7547 eV  706.59 nm  f=0.2464  <S**2>=0.000
     245 -> 247        0.14537
     245 -> 248        0.17800
     246 -> 247        0.66887
     246 <- 247       -0.14751
 This state for optimization and/or second-order correction.
 Total Energy, E(TD-HF/TD-DFT) =  -3007.27673945
 Copying the excited state density for this state as the 1-particle RhoCI density.

 Excited State   2:      Singlet-A      1.8747 eV  661.36 nm  f=0.0976  <S**2>=0.000
     243 -> 247       -0.28147
     245 -> 247        0.59446
     246 -> 247       -0.16234
     246 -> 248       -0.17881

 Excited State   3:      Singlet-A      1.9823 eV  625.45 nm  f=0.0037  <S**2>=0.000
     244 -> 247        0.70281

 Excited State   4:      Singlet-A      2.1277 eV  582.72 nm  f=0.0169  <S**2>=0.000
     243 -> 247        0.62676
     245 -> 247        0.23194
     246 -> 248       -0.19927

 Excited State   5:      Singlet-A      2.2412 eV  553.22 nm  f=0.0001  <S**2>=0.000
     242 -> 247        0.70708

 The electronic state is 1-A.
 Alpha  occ. eigenvalues --  -46.26439 -18.82833 -18.81965 -18.77690 -18.77540
 Alpha  occ. eigenvalues --  -18.75748 -18.75531 -14.03900 -14.02684 -14.01210
 Alpha  occ. eigenvalues --  -14.00693 -10.04574 -10.03834 -10.00465  -9.98915
 Alpha  occ. eigenvalues --   -9.98624  -9.97120  -9.96946  -9.96613  -9.96587
 Alpha  occ. eigenvalues --   -9.95778  -9.95469  -9.95073  -9.95067  -9.94423
 Alpha  occ. eigenvalues --   -9.94387  -9.94332  -9.94315  -9.94069  -9.93746
 Alpha  occ. eigenvalues --   -9.93598  -9.93481  -9.93463  -9.93331  -9.93280
 Alpha  occ. eigenvalues --   -9.93230  -9.93040  -9.92938  -9.92860  -9.92853
 Alpha  occ. eigenvalues --   -9.92844  -9.92825  -9.92438  -9.92305  -9.92230
 Alpha  occ. eigenvalues --   -9.92180  -9.92021  -9.91996  -9.91986  -9.91685
 Alpha  occ. eigenvalues --   -9.91618  -9.91592  -9.91450  -9.91385  -9.91290
 Alpha  occ. eigenvalues --   -9.91288  -9.91189  -9.91046  -9.90976  -9.90967
 Alpha  occ. eigenvalues --   -9.90933  -9.90897  -9.90884  -9.90831  -9.90648
 Alpha  occ. eigenvalues --   -9.90512  -2.91201  -1.71641  -1.71046  -1.70941
 Alpha  occ. eigenvalues --   -0.99264  -0.97315  -0.92798  -0.91812  -0.91611
 Alpha  occ. eigenvalues --   -0.90445  -0.86528  -0.86057  -0.85095  -0.84533
 Alpha  occ. eigenvalues --   -0.75168  -0.74601  -0.73632  -0.72791  -0.72477
 Alpha  occ. eigenvalues --   -0.72361  -0.71699  -0.71160  -0.71065  -0.69873
 Alpha  occ. eigenvalues --   -0.69516  -0.69345  -0.68631  -0.67528  -0.67444
 Alpha  occ. eigenvalues --   -0.66420  -0.65887  -0.65440  -0.65109  -0.64948
 Alpha  occ. eigenvalues --   -0.64203  -0.62770  -0.61927  -0.61051  -0.60941
 Alpha  occ. eigenvalues --   -0.60382  -0.60012  -0.59727  -0.59676  -0.58860
 Alpha  occ. eigenvalues --   -0.58537  -0.57566  -0.56531  -0.55147  -0.54841
 Alpha  occ. eigenvalues --   -0.54026  -0.53771  -0.52894  -0.52722  -0.51504
 Alpha  occ. eigenvalues --   -0.51362  -0.50894  -0.50619  -0.50413  -0.49809
 Alpha  occ. eigenvalues --   -0.49664  -0.49575  -0.48657  -0.48018  -0.46439
 Alpha  occ. eigenvalues --   -0.46071  -0.45920  -0.45450  -0.44785  -0.44319
 Alpha  occ. eigenvalues --   -0.43947  -0.43889  -0.43337  -0.42730  -0.42451
 Alpha  occ. eigenvalues --   -0.42194  -0.41988  -0.41680  -0.41436  -0.41327
 Alpha  occ. eigenvalues --   -0.41159  -0.40900  -0.40647  -0.40261  -0.40240
 Alpha  occ. eigenvalues --   -0.40147  -0.40081  -0.39728  -0.39381  -0.39330
 Alpha  occ. eigenvalues --   -0.39183  -0.39151  -0.38808  -0.38741  -0.38549
 Alpha  occ. eigenvalues --   -0.38164  -0.37904  -0.37693  -0.37526  -0.37479
 Alpha  occ. eigenvalues --   -0.37366  -0.37103  -0.37006  -0.36830  -0.36521
 Alpha  occ. eigenvalues --   -0.36510  -0.36218  -0.36068  -0.35920  -0.35737
 Alpha  occ. eigenvalues --   -0.35557  -0.35327  -0.35290  -0.35249  -0.35053
 Alpha  occ. eigenvalues --   -0.34607  -0.34515  -0.34409  -0.34262  -0.33962
 Alpha  occ. eigenvalues --   -0.33851  -0.33606  -0.33461  -0.33288  -0.33100
 Alpha  occ. eigenvalues --   -0.32966  -0.32788  -0.32552  -0.32473  -0.32129
 Alpha  occ. eigenvalues --   -0.31929  -0.31800  -0.31744  -0.31559  -0.31506
 Alpha  occ. eigenvalues --   -0.31231  -0.31123  -0.31092  -0.30820  -0.30678
 Alpha  occ. eigenvalues --   -0.30645  -0.30525  -0.30460  -0.30082  -0.30015
 Alpha  occ. eigenvalues --   -0.29912  -0.29728  -0.29681  -0.29206  -0.29108
 Alpha  occ. eigenvalues --   -0.29040  -0.28877  -0.28635  -0.28005  -0.27731
 Alpha  occ. eigenvalues --   -0.27444  -0.27210  -0.27021  -0.26811  -0.26728
 Alpha  occ. eigenvalues --   -0.26671  -0.26349  -0.26082  -0.26026  -0.25533
 Alpha  occ. eigenvalues --   -0.25528  -0.25189  -0.24091  -0.23963  -0.23341
 Alpha  occ. eigenvalues --   -0.23006  -0.22843  -0.22584  -0.21587  -0.20861
 Alpha  occ. eigenvalues --   -0.20458  -0.19671  -0.18873  -0.18617  -0.17022
 Alpha  occ. eigenvalues --   -0.15553
 Alpha virt. eigenvalues --   -0.11435  -0.07034  -0.06397  -0.04341  -0.03270
 Alpha virt. eigenvalues --   -0.02790  -0.02731  -0.02217  -0.00694   0.00042
 Alpha virt. eigenvalues --    0.00855   0.01620   0.01906   0.02528   0.02750

 Mulliken charges:
               1
     1  Mg   0.700439
     2  C    0.012774
     3  C   -0.097868
     4  C   -0.032139
     5  C   -0.100390
     6  N   -0.257198
     7  C   -0.051519
     8  C    0.005152
     9  C   -0.029304
    10  C    0.052960
    11  C    0.144137
    12  C    0.069205
    13  C    0.154949
    14  C    0.047793
    15  O   -0.172358
    16  O   -0.277836
    17  N   -0.263068
    18  C    0.167152
    19  C   -0.140906
    20  C    0.009791
    21  C    0.038616
    22  C    0.151897
    23  C   -0.064529
    24  O   -0.170317
    25  C    0.137044
    26  N   -0.198807
    27  C    0.081608
    28  C    0.023418
    29  C    0.000436
    30  C    0.043409
    31  C    0.136895
    32  C    0.105343
    33  C    0.043808
    34  N   -0.291152
    35  C    0.125304
    36  C   -0.184670
    37  C    0.082138
    38  C    0.050982
    39  C    0.186984
    40  C   -0.041579
    41  O   -0.084962
    42  C    0.002012
    43  C    0.123403
    44  O   -0.150503
    45  O   -0.283310
    46  C    0.227461
    47  C    0.306807
    48  C   -0.122766
    49  C   -0.188725
    50  C    0.179712
    51  C    0.098508
    52  C    0.111336
    53  C    0.110661
    54  C   -0.055571
    55  C    0.097686
    56  C    0.136680
    57  C    0.042764
    58  C    0.105728
    59  C   -0.112548
    60  C    0.102492
    61  C    0.110735
    62  C    0.085696
    63  C    0.076434
    64  C   -0.075656
    65  C    0.116198
    66  C    0.088095
    67  H   -0.069155
    68  H   -0.043714
    69  H   -0.069359
    70  H   -0.000786
    71  H   -0.017897
    72  H   -0.002703
    73  H   -0.011707
    74  H   -0.010184
    75  H   -0.023735
    76  H    0.012714
    77  H   -0.007911
    78  H    0.015299
    79  H    0.002779
    80  H   -0.014689
    81  H    0.014839
    82  H   -0.007995
    83  H   -0.007567
    84  H    0.029472
    85  H   -0.023087
    86  H   -0.044294
    87  H    0.005612
    88  H   -0.005328
    89  H   -0.020596
    90  H   -0.017397
    91  H   -0.018957
    92  H   -0.013639
    93  H   -0.011540
    94  H    0.004702
    95  H   -0.006072
    96  H    0.014164
    97  H    0.019727
    98  H    0.009760
    99  H    0.020181
   100  H   -0.012666
   101  H    0.010633
   102  H    0.017074
   103  H    0.021320
   104  H   -0.022840
   105  H   -0.010105
   106  H   -0.000780
   107  H    0.013784
   108  H   -0.017781
   109  H   -0.039096
   110  H   -0.043636
   111  H   -0.038917
   112  H   -0.041736
   113  H   -0.040096
   114  H   -0.030274
   115  H   -0.031821
   116  H   -0.018514
   117  H   -0.031156
   118  H   -0.038335
   119  H   -0.031392
   120  H   -0.029243
   121  H   -0.034022
   122  H   -0.027944
   123  H   -0.046606
   124  H   -0.044268
   125  H   -0.029976
   126  H   -0.016243
   127  H   -0.021818
   128  H   -0.037590
   129  H   -0.015620
   130  H   -0.024149
   131  H   -0.028553
   132  H   -0.025629
   133  H   -0.031140
   134  H   -0.038944
   135  H   -0.017048
   136  H   -0.029351
   137  H   -0.016254
   138  H   -0.024085
   139  H   -0.008965
   140  H   -0.014120
 Sum of Mulliken charges =  -0.00000

 Dipole moment (field-independent basis, Debye):
    X=              5.1005    Y=              2.8883    Z=             -0.4900  Tot=              5.8819
 Quadrupole moment (field-independent basis, Debye-Ang):
   XX=           -389.2237   YY=           -436.7312   ZZ=           -407.9769
   XY=            -28.7814   XZ=             -3.3930   YZ=             10.8336

 Normal termination of Gaussian 16 at Fri Apr 29 08:23:39 2022.
