 Gaussian 16, Revision A.03,
 Gaussian 16:  ES64L-G16RevA.03 25-Dec-2016

 -----------------------------------
 #p cam-b3lyp/Def2SVP td=(nstates=5)
 -----------------------------------

 -------------------------------------------------------
 step_201_chromophore_15 TDDFT with cam-b3lyp functional
 -------------------------------------------------------
 Symbolic Z-matrix:
 Charge =  0 Multiplicity = 1

                         Standard orientation:
 ---------------------------------------------------------------------
 Center     Atomic      Atomic             Coordinates (Angstroms)
 Number     Number       Type             X           Y           Z
 ---------------------------------------------------------------------
      1         12           0       -4.800402    0.843876    0.029462
      2          6           0       -4.442651   -2.548627    0.411317
      3          6           0       -1.491252    1.318695   -0.061492
      4          6           0       -5.250146    4.309935    0.354488
      5          6           0       -8.226533    0.568483    0.567905
      6          7           0       -3.233925   -0.501974    0.078061
      7          6           0       -3.248185   -1.854565    0.079891
      8          6           0       -1.897995   -2.502344   -0.186558
      9          6           0       -0.914779   -1.216164   -0.161685
     10          6           0       -1.921284   -0.051221    0.040760
     11          6           0        0.267467   -1.185581    0.759391
     12          6           0       -1.813583   -3.167920   -1.652415
     13          6           0       -0.635796   -4.111485   -1.909645
     14          6           0        0.582708   -4.246661   -1.008848
     15          8           0        0.608596   -4.767488    0.067755
     16          8           0        1.655550   -3.690624   -1.636004
     17          7           0       -3.509983    2.542176   -0.125742
     18          6           0       -2.166279    2.497152   -0.124144
     19          6           0       -1.589717    3.815616   -0.145877
     20          6           0       -2.654042    4.780735   -0.104575
     21          6           0       -3.896479    3.874043    0.042022
     22          6           0       -0.075410    4.173222   -0.140615
     23          6           0       -2.677328    6.347082   -0.207266
     24          8           0       -3.709854    6.983865   -0.360320
     25          6           0       -1.423948    7.178019   -0.342091
     26          7           0       -6.503101    2.192894    0.228044
     27          6           0       -6.395518    3.558898    0.524134
     28          6           0       -7.675985    4.251110    0.796105
     29          6           0       -8.677218    3.037989    0.699165
     30          6           0       -7.715199    1.789660    0.500459
     31          6           0       -7.749150    5.125555    2.037829
     32          6           0       -9.768487    3.164403   -0.379611
     33          6           0       -9.256783    2.954013   -1.846010
     34          7           0       -6.126693   -0.656456    0.378229
     35          6           0       -7.519841   -0.608681    0.627447
     36          6           0       -7.993948   -1.990446    0.869935
     37          6           0       -6.805045   -2.768660    0.921971
     38          6           0       -5.715965   -1.921350    0.513352
     39          6           0       -9.484411   -2.415483    1.119017
     40          6           0       -6.328620   -4.057080    1.103044
     41          8           0       -6.847627   -5.090105    1.376357
     42          6           0       -4.709272   -3.909305    0.992518
     43          6           0       -3.909304   -5.022740    0.282472
     44          8           0       -4.095882   -5.429608   -0.827896
     45          8           0       -3.021358   -5.549630    1.229495
     46          6           0       -2.158382   -6.616923    0.684348
     47          6           0        2.940553   -3.831635   -0.929724
     48          6           0        4.098328   -3.233771   -1.711741
     49          6           0        5.416321   -3.309425   -1.306780
     50          6           0        5.973321   -3.800037   -0.056001
     51          6           0        6.398686   -2.452907   -2.109730
     52          6           0        6.058242   -0.942438   -2.027181
     53          6           0        6.338027   -0.140884   -3.255303
     54          6           0        7.265623    1.090498   -3.070933
     55          6           0        7.177814    1.982403   -4.308077
     56          6           0        8.687666    0.626496   -2.666957
     57          6           0        8.993224    1.142651   -1.246677
     58          6           0       10.432803    1.252226   -0.939041
     59          6           0       10.845308    2.584356   -0.159107
     60          6           0       11.285228    3.683887   -1.141312
     61          6           0       11.934734    2.377525    0.892250
     62          6           0       11.330225    1.949868    2.271467
     63          6           0       12.108407    0.684568    2.628436
     64          6           0       12.191753    0.419860    4.175633
     65          6           0       13.619179    0.154007    4.623506
     66          6           0       11.333093   -0.801498    4.643708
     67          1           0       -0.415335    1.429162   -0.216348
     68          1           0       -5.243884    5.366858    0.627854
     69          1           0       -9.283336    0.489573    0.830175
     70          1           0       -1.655451   -3.264207    0.553956
     71          1           0       -0.477984   -1.116975   -1.155014
     72          1           0        0.341174   -0.279620    1.362887
     73          1           0        1.192556   -1.424998    0.235013
     74          1           0        0.034218   -2.023786    1.415468
     75          1           0       -1.656817   -2.360588   -2.367263
     76          1           0       -2.745589   -3.686588   -1.874644
     77          1           0       -0.316960   -3.728483   -2.879630
     78          1           0       -1.113009   -5.089537   -1.848115
     79          1           0        0.056780    4.908870   -0.934505
     80          1           0        0.542359    3.290752   -0.306163
     81          1           0        0.254388    4.684071    0.763730
     82          1           0       -0.760634    6.746018    0.407697
     83          1           0       -1.601963    8.219936   -0.078857
     84          1           0       -1.131871    7.181163   -1.392527
     85          1           0       -8.075449    4.913164    0.027997
     86          1           0       -9.148737    2.809184    1.654863
     87          1           0       -7.549170    6.170822    1.800818
     88          1           0       -7.159091    4.738971    2.869012
     89          1           0       -8.812808    5.072876    2.267573
     90          1           0      -10.190524    4.163986   -0.268682
     91          1           0      -10.546043    2.424061   -0.194639
     92          1           0       -9.354496    3.826662   -2.491912
     93          1           0       -9.732257    2.169357   -2.434757
     94          1           0       -8.199692    2.689551   -1.829982
     95          1           0      -10.034260   -1.998640    0.274433
     96          1           0       -9.774596   -1.853419    2.007126
     97          1           0       -9.594840   -3.498133    1.059298
     98          1           0       -4.358805   -3.727723    2.008780
     99          1           0       -1.278426   -6.608154    1.328499
    100          1           0       -1.809557   -6.414316   -0.327927
    101          1           0       -2.543018   -7.634589    0.613779
    102          1           0        3.238917   -4.879336   -0.944899
    103          1           0        2.810525   -3.299551    0.012613
    104          1           0        3.845909   -2.882017   -2.711984
    105          1           0        5.268035   -3.948074    0.762113
    106          1           0        6.667991   -3.021008    0.259886
    107          1           0        6.461285   -4.728513   -0.353292
    108          1           0        6.402760   -2.853217   -3.123798
    109          1           0        7.435364   -2.599297   -1.805806
    110          1           0        6.539873   -0.457166   -1.178563
    111          1           0        5.003517   -0.922305   -1.753080
    112          1           0        5.508208    0.318384   -3.792568
    113          1           0        6.768925   -0.888882   -3.920753
    114          1           0        6.837230    1.717885   -2.289883
    115          1           0        6.730316    2.940802   -4.043573
    116          1           0        6.613111    1.764663   -5.214830
    117          1           0        8.153903    2.280878   -4.688078
    118          1           0        9.400872    1.031305   -3.385514
    119          1           0        8.876524   -0.444044   -2.740655
    120          1           0        8.529005    0.590376   -0.429208
    121          1           0        8.542742    2.120951   -1.084691
    122          1           0       11.138145    1.117243   -1.759071
    123          1           0       10.519330    0.405795   -0.256911
    124          1           0        9.903305    2.988009    0.212410
    125          1           0       12.370010    3.652102   -1.245722
    126          1           0       11.102129    4.698336   -0.786264
    127          1           0       10.871430    3.518161   -2.135993
    128          1           0       12.416915    3.335978    1.082851
    129          1           0       12.552449    1.645421    0.372821
    130          1           0       10.263634    1.775003    2.129202
    131          1           0       11.491025    2.802130    2.932655
    132          1           0       13.143630    0.753901    2.294860
    133          1           0       11.592228   -0.123287    2.109187
    134          1           0       11.824209    1.360479    4.585424
    135          1           0       14.300043   -0.113567    3.815242
    136          1           0       13.617351   -0.692890    5.310351
    137          1           0       14.002970    1.029674    5.145189
    138          1           0       10.286219   -0.668479    4.370933
    139          1           0       11.429372   -0.900332    5.725198
    140          1           0       11.648001   -1.735809    4.178431
 ---------------------------------------------------------------------

 SCF Done:  E(RCAM-B3LYP) =  -3007.13817310     A.U. after   17 cycles

 Excitation energies and oscillator strengths:

 Excited State   1:      Singlet-A      1.6606 eV  746.63 nm  f=0.3713  <S**2>=0.000
     245 -> 248        0.17821
     246 -> 247        0.68632
     245 <- 248        0.10736
 This state for optimization and/or second-order correction.
 Total Energy, E(TD-HF/TD-DFT) =  -3007.07714805
 Copying the excited state density for this state as the 1-particle RhoCI density.

 Excited State   2:      Singlet-A      2.1931 eV  565.33 nm  f=0.0897  <S**2>=0.000
     245 -> 247        0.62872
     246 -> 248       -0.31222

 Excited State   3:      Singlet-A      3.3157 eV  373.93 nm  f=0.2367  <S**2>=0.000
     241 -> 247        0.12498
     242 -> 247        0.13026
     243 -> 247        0.43351
     245 -> 247        0.18801
     246 -> 248        0.43206

 Excited State   4:      Singlet-A      3.4602 eV  358.32 nm  f=0.3028  <S**2>=0.000
     242 -> 247       -0.14394
     243 -> 247        0.48948
     245 -> 247       -0.19869
     246 -> 248       -0.40223

 Excited State   5:      Singlet-A      3.5799 eV  346.34 nm  f=0.0334  <S**2>=0.000
     239 -> 247       -0.24229
     240 -> 247       -0.17669
     241 -> 247        0.50725
     241 -> 249       -0.13396
     241 -> 250        0.12225
     243 -> 247       -0.17067
     246 -> 248       -0.12567

 The electronic state is 1-A.
 Alpha  occ. eigenvalues --  -46.87933 -19.25697 -19.24935 -19.20745 -19.20712
 Alpha  occ. eigenvalues --  -19.19035 -19.18662 -14.42953 -14.41408 -14.39749
 Alpha  occ. eigenvalues --  -14.39128 -10.39833 -10.39408 -10.35749 -10.34219
 Alpha  occ. eigenvalues --  -10.32684 -10.31654 -10.31465 -10.31221 -10.30645
 Alpha  occ. eigenvalues --  -10.30182 -10.29818 -10.29364 -10.29269 -10.29043
 Alpha  occ. eigenvalues --  -10.28949 -10.28704 -10.28553 -10.28320 -10.28099
 Alpha  occ. eigenvalues --  -10.27950 -10.27657 -10.27511 -10.27479 -10.27406
 Alpha  occ. eigenvalues --  -10.27240 -10.27082 -10.26839 -10.26761 -10.26742
 Alpha  occ. eigenvalues --  -10.26533 -10.26493 -10.26473 -10.26336 -10.26061
 Alpha  occ. eigenvalues --  -10.25980 -10.25941 -10.25705 -10.25599 -10.25398
 Alpha  occ. eigenvalues --  -10.25383 -10.25310 -10.25302 -10.25065 -10.24956
 Alpha  occ. eigenvalues --  -10.24946 -10.24855 -10.24835 -10.24659 -10.24656
 Alpha  occ. eigenvalues --  -10.24640 -10.24601 -10.24573 -10.24517 -10.24269
 Alpha  occ. eigenvalues --  -10.24084  -3.16608  -1.91522  -1.91039  -1.90939
 Alpha  occ. eigenvalues --   -1.17785  -1.15960  -1.11254  -1.10296  -1.09510
 Alpha  occ. eigenvalues --   -1.08412  -1.04267  -1.03732  -1.02695  -1.02040
 Alpha  occ. eigenvalues --   -0.92308  -0.91557  -0.90490  -0.89557  -0.89221
 Alpha  occ. eigenvalues --   -0.89002  -0.88354  -0.87761  -0.87668  -0.86527
 Alpha  occ. eigenvalues --   -0.85975  -0.85857  -0.84937  -0.83628  -0.83602
 Alpha  occ. eigenvalues --   -0.82494  -0.81824  -0.81651  -0.81054  -0.80927
 Alpha  occ. eigenvalues --   -0.79959  -0.78459  -0.77671  -0.76454  -0.76336
 Alpha  occ. eigenvalues --   -0.75764  -0.75348  -0.75049  -0.74978  -0.74106
 Alpha  occ. eigenvalues --   -0.73577  -0.72598  -0.71460  -0.69926  -0.69460
 Alpha  occ. eigenvalues --   -0.68729  -0.68342  -0.67333  -0.67176  -0.65762
 Alpha  occ. eigenvalues --   -0.65543  -0.65022  -0.64543  -0.64525  -0.63720
 Alpha  occ. eigenvalues --   -0.63619  -0.63446  -0.62546  -0.61784  -0.60059
 Alpha  occ. eigenvalues --   -0.59626  -0.59427  -0.58795  -0.58232  -0.57701
 Alpha  occ. eigenvalues --   -0.57509  -0.57262  -0.56734  -0.55826  -0.55433
 Alpha  occ. eigenvalues --   -0.55246  -0.55095  -0.54921  -0.54539  -0.54251
 Alpha  occ. eigenvalues --   -0.54028  -0.53808  -0.53638  -0.53205  -0.53023
 Alpha  occ. eigenvalues --   -0.52893  -0.52683  -0.52536  -0.52323  -0.51864
 Alpha  occ. eigenvalues --   -0.51803  -0.51667  -0.51434  -0.51133  -0.51064
 Alpha  occ. eigenvalues --   -0.50679  -0.50366  -0.50244  -0.49886  -0.49752
 Alpha  occ. eigenvalues --   -0.49657  -0.49580  -0.49339  -0.49226  -0.49138
 Alpha  occ. eigenvalues --   -0.48727  -0.48654  -0.48608  -0.48236  -0.47984
 Alpha  occ. eigenvalues --   -0.47507  -0.47387  -0.47339  -0.47078  -0.47055
 Alpha  occ. eigenvalues --   -0.46608  -0.46431  -0.46256  -0.45964  -0.45884
 Alpha  occ. eigenvalues --   -0.45556  -0.45537  -0.45273  -0.45258  -0.44912
 Alpha  occ. eigenvalues --   -0.44665  -0.44484  -0.44240  -0.44157  -0.43789
 Alpha  occ. eigenvalues --   -0.43634  -0.43517  -0.43098  -0.42971  -0.42935
 Alpha  occ. eigenvalues --   -0.42889  -0.42686  -0.42615  -0.42375  -0.42207
 Alpha  occ. eigenvalues --   -0.42071  -0.41991  -0.41826  -0.41412  -0.41213
 Alpha  occ. eigenvalues --   -0.41088  -0.40811  -0.40791  -0.40551  -0.40351
 Alpha  occ. eigenvalues --   -0.40225  -0.40086  -0.39769  -0.38943  -0.38770
 Alpha  occ. eigenvalues --   -0.38343  -0.38307  -0.38155  -0.37791  -0.37596
 Alpha  occ. eigenvalues --   -0.37565  -0.37439  -0.37054  -0.36780  -0.36551
 Alpha  occ. eigenvalues --   -0.36294  -0.36207  -0.34894  -0.34713  -0.34523
 Alpha  occ. eigenvalues --   -0.34080  -0.33710  -0.32858  -0.31278  -0.30906
 Alpha  occ. eigenvalues --   -0.30496  -0.30239  -0.29594  -0.29257  -0.23970
 Alpha  occ. eigenvalues --   -0.20784
 Alpha virt. eigenvalues --   -0.08517  -0.01870   0.00053   0.02562   0.03427
 Alpha virt. eigenvalues --    0.04150   0.04927   0.04985   0.05418   0.06267
 Alpha virt. eigenvalues --    0.07555   0.07719   0.08773   0.09047   0.09438

 Mulliken charges:
               1
     1  Mg   0.835727
     2  C   -0.011567
     3  C   -0.104281
     4  C   -0.046026
     5  C   -0.107289
     6  N   -0.329360
     7  C   -0.003771
     8  C   -0.053484
     9  C   -0.074858
    10  C    0.068972
    11  C    0.081417
    12  C    0.025270
    13  C    0.088214
    14  C    0.124231
    15  O   -0.211438
    16  O   -0.341585
    17  N   -0.348325
    18  C    0.168100
    19  C   -0.145905
    20  C   -0.057664
    21  C    0.063242
    22  C    0.101400
    23  C    0.010681
    24  O   -0.207867
    25  C    0.058515
    26  N   -0.270170
    27  C    0.094299
    28  C   -0.035691
    29  C   -0.047646
    30  C    0.055791
    31  C    0.079860
    32  C    0.049794
    33  C   -0.017985
    34  N   -0.381458
    35  C    0.129303
    36  C   -0.172332
    37  C    0.000565
    38  C    0.084336
    39  C    0.136418
    40  C    0.058458
    41  O   -0.125492
    42  C   -0.070337
    43  C    0.203092
    44  O   -0.186732
    45  O   -0.345833
    46  C    0.191196
    47  C    0.276413
    48  C   -0.142950
    49  C   -0.203792
    50  C    0.109552
    51  C    0.038172
    52  C    0.050832
    53  C    0.061551
    54  C   -0.113281
    55  C    0.035759
    56  C    0.080864
    57  C   -0.006032
    58  C    0.050416
    59  C   -0.163894
    60  C    0.045560
    61  C    0.051184
    62  C    0.032232
    63  C    0.023369
    64  C   -0.135006
    65  C    0.052772
    66  C    0.030301
    67  H   -0.035191
    68  H   -0.005964
    69  H   -0.034516
    70  H    0.032250
    71  H    0.015835
    72  H    0.024250
    73  H    0.010169
    74  H    0.015603
    75  H    0.005764
    76  H    0.044687
    77  H    0.027515
    78  H    0.041540
    79  H    0.027897
    80  H    0.012557
    81  H    0.039981
    82  H    0.017406
    83  H    0.027427
    84  H    0.056443
    85  H    0.012645
    86  H   -0.007623
    87  H    0.029505
    88  H    0.019934
    89  H    0.003504
    90  H    0.010246
    91  H    0.008841
    92  H    0.010853
    93  H    0.013428
    94  H    0.026054
    95  H    0.019163
    96  H    0.038422
    97  H    0.047169
    98  H    0.053503
    99  H    0.044866
   100  H    0.005352
   101  H    0.034184
   102  H    0.044060
   103  H    0.043981
   104  H    0.012790
   105  H    0.015775
   106  H    0.023164
   107  H    0.038350
   108  H    0.012792
   109  H   -0.008829
   110  H   -0.016127
   111  H   -0.005366
   112  H   -0.011389
   113  H   -0.011824
   114  H    0.001850
   115  H   -0.006432
   116  H    0.007709
   117  H   -0.005878
   118  H   -0.008968
   119  H   -0.003896
   120  H   -0.003591
   121  H   -0.006928
   122  H    0.000474
   123  H   -0.018050
   124  H   -0.013261
   125  H   -0.005547
   126  H    0.008699
   127  H    0.001398
   128  H   -0.005909
   129  H    0.010911
   130  H    0.002221
   131  H    0.000318
   132  H    0.003620
   133  H   -0.004460
   134  H   -0.006676
   135  H    0.007053
   136  H   -0.003486
   137  H    0.008437
   138  H   -0.000202
   139  H    0.014620
   140  H    0.009083
 Sum of Mulliken charges =  -0.00000

 Dipole moment (field-independent basis, Debye):
    X=              5.5425    Y=              3.3279    Z=             -0.5499  Tot=              6.4882
 Quadrupole moment (field-independent basis, Debye-Ang):
   XX=           -389.2357   YY=           -433.8784   ZZ=           -408.0164
   XY=            -28.8195   XZ=             -4.1923   YZ=             11.2439

 Normal termination of Gaussian 16 at Fri Apr 29 07:28:05 2022.
