 Gaussian 16, Revision A.03,
 Gaussian 16:  ES64L-G16RevA.03 25-Dec-2016

 ---------------------------------
 #p PBE1PBE/Def2SVP td=(nstates=5)
 ---------------------------------

 -----------------------------------------------------
 step_201_chromophore_15 TDDFT with PBE1PBE functional
 -----------------------------------------------------
 Symbolic Z-matrix:
 Charge =  0 Multiplicity = 1

                         Standard orientation:
 ---------------------------------------------------------------------
 Center     Atomic      Atomic             Coordinates (Angstroms)
 Number     Number       Type             X           Y           Z
 ---------------------------------------------------------------------
      1         12           0       -4.800402    0.843876    0.029462
      2          6           0       -4.442651   -2.548627    0.411317
      3          6           0       -1.491252    1.318695   -0.061492
      4          6           0       -5.250146    4.309935    0.354488
      5          6           0       -8.226533    0.568483    0.567905
      6          7           0       -3.233925   -0.501974    0.078061
      7          6           0       -3.248185   -1.854565    0.079891
      8          6           0       -1.897995   -2.502344   -0.186558
      9          6           0       -0.914779   -1.216164   -0.161685
     10          6           0       -1.921284   -0.051221    0.040760
     11          6           0        0.267467   -1.185581    0.759391
     12          6           0       -1.813583   -3.167920   -1.652415
     13          6           0       -0.635796   -4.111485   -1.909645
     14          6           0        0.582708   -4.246661   -1.008848
     15          8           0        0.608596   -4.767488    0.067755
     16          8           0        1.655550   -3.690624   -1.636004
     17          7           0       -3.509983    2.542176   -0.125742
     18          6           0       -2.166279    2.497152   -0.124144
     19          6           0       -1.589717    3.815616   -0.145877
     20          6           0       -2.654042    4.780735   -0.104575
     21          6           0       -3.896479    3.874043    0.042022
     22          6           0       -0.075410    4.173222   -0.140615
     23          6           0       -2.677328    6.347082   -0.207266
     24          8           0       -3.709854    6.983865   -0.360320
     25          6           0       -1.423948    7.178019   -0.342091
     26          7           0       -6.503101    2.192894    0.228044
     27          6           0       -6.395518    3.558898    0.524134
     28          6           0       -7.675985    4.251110    0.796105
     29          6           0       -8.677218    3.037989    0.699165
     30          6           0       -7.715199    1.789660    0.500459
     31          6           0       -7.749150    5.125555    2.037829
     32          6           0       -9.768487    3.164403   -0.379611
     33          6           0       -9.256783    2.954013   -1.846010
     34          7           0       -6.126693   -0.656456    0.378229
     35          6           0       -7.519841   -0.608681    0.627447
     36          6           0       -7.993948   -1.990446    0.869935
     37          6           0       -6.805045   -2.768660    0.921971
     38          6           0       -5.715965   -1.921350    0.513352
     39          6           0       -9.484411   -2.415483    1.119017
     40          6           0       -6.328620   -4.057080    1.103044
     41          8           0       -6.847627   -5.090105    1.376357
     42          6           0       -4.709272   -3.909305    0.992518
     43          6           0       -3.909304   -5.022740    0.282472
     44          8           0       -4.095882   -5.429608   -0.827896
     45          8           0       -3.021358   -5.549630    1.229495
     46          6           0       -2.158382   -6.616923    0.684348
     47          6           0        2.940553   -3.831635   -0.929724
     48          6           0        4.098328   -3.233771   -1.711741
     49          6           0        5.416321   -3.309425   -1.306780
     50          6           0        5.973321   -3.800037   -0.056001
     51          6           0        6.398686   -2.452907   -2.109730
     52          6           0        6.058242   -0.942438   -2.027181
     53          6           0        6.338027   -0.140884   -3.255303
     54          6           0        7.265623    1.090498   -3.070933
     55          6           0        7.177814    1.982403   -4.308077
     56          6           0        8.687666    0.626496   -2.666957
     57          6           0        8.993224    1.142651   -1.246677
     58          6           0       10.432803    1.252226   -0.939041
     59          6           0       10.845308    2.584356   -0.159107
     60          6           0       11.285228    3.683887   -1.141312
     61          6           0       11.934734    2.377525    0.892250
     62          6           0       11.330225    1.949868    2.271467
     63          6           0       12.108407    0.684568    2.628436
     64          6           0       12.191753    0.419860    4.175633
     65          6           0       13.619179    0.154007    4.623506
     66          6           0       11.333093   -0.801498    4.643708
     67          1           0       -0.415335    1.429162   -0.216348
     68          1           0       -5.243884    5.366858    0.627854
     69          1           0       -9.283336    0.489573    0.830175
     70          1           0       -1.655451   -3.264207    0.553956
     71          1           0       -0.477984   -1.116975   -1.155014
     72          1           0        0.341174   -0.279620    1.362887
     73          1           0        1.192556   -1.424998    0.235013
     74          1           0        0.034218   -2.023786    1.415468
     75          1           0       -1.656817   -2.360588   -2.367263
     76          1           0       -2.745589   -3.686588   -1.874644
     77          1           0       -0.316960   -3.728483   -2.879630
     78          1           0       -1.113009   -5.089537   -1.848115
     79          1           0        0.056780    4.908870   -0.934505
     80          1           0        0.542359    3.290752   -0.306163
     81          1           0        0.254388    4.684071    0.763730
     82          1           0       -0.760634    6.746018    0.407697
     83          1           0       -1.601963    8.219936   -0.078857
     84          1           0       -1.131871    7.181163   -1.392527
     85          1           0       -8.075449    4.913164    0.027997
     86          1           0       -9.148737    2.809184    1.654863
     87          1           0       -7.549170    6.170822    1.800818
     88          1           0       -7.159091    4.738971    2.869012
     89          1           0       -8.812808    5.072876    2.267573
     90          1           0      -10.190524    4.163986   -0.268682
     91          1           0      -10.546043    2.424061   -0.194639
     92          1           0       -9.354496    3.826662   -2.491912
     93          1           0       -9.732257    2.169357   -2.434757
     94          1           0       -8.199692    2.689551   -1.829982
     95          1           0      -10.034260   -1.998640    0.274433
     96          1           0       -9.774596   -1.853419    2.007126
     97          1           0       -9.594840   -3.498133    1.059298
     98          1           0       -4.358805   -3.727723    2.008780
     99          1           0       -1.278426   -6.608154    1.328499
    100          1           0       -1.809557   -6.414316   -0.327927
    101          1           0       -2.543018   -7.634589    0.613779
    102          1           0        3.238917   -4.879336   -0.944899
    103          1           0        2.810525   -3.299551    0.012613
    104          1           0        3.845909   -2.882017   -2.711984
    105          1           0        5.268035   -3.948074    0.762113
    106          1           0        6.667991   -3.021008    0.259886
    107          1           0        6.461285   -4.728513   -0.353292
    108          1           0        6.402760   -2.853217   -3.123798
    109          1           0        7.435364   -2.599297   -1.805806
    110          1           0        6.539873   -0.457166   -1.178563
    111          1           0        5.003517   -0.922305   -1.753080
    112          1           0        5.508208    0.318384   -3.792568
    113          1           0        6.768925   -0.888882   -3.920753
    114          1           0        6.837230    1.717885   -2.289883
    115          1           0        6.730316    2.940802   -4.043573
    116          1           0        6.613111    1.764663   -5.214830
    117          1           0        8.153903    2.280878   -4.688078
    118          1           0        9.400872    1.031305   -3.385514
    119          1           0        8.876524   -0.444044   -2.740655
    120          1           0        8.529005    0.590376   -0.429208
    121          1           0        8.542742    2.120951   -1.084691
    122          1           0       11.138145    1.117243   -1.759071
    123          1           0       10.519330    0.405795   -0.256911
    124          1           0        9.903305    2.988009    0.212410
    125          1           0       12.370010    3.652102   -1.245722
    126          1           0       11.102129    4.698336   -0.786264
    127          1           0       10.871430    3.518161   -2.135993
    128          1           0       12.416915    3.335978    1.082851
    129          1           0       12.552449    1.645421    0.372821
    130          1           0       10.263634    1.775003    2.129202
    131          1           0       11.491025    2.802130    2.932655
    132          1           0       13.143630    0.753901    2.294860
    133          1           0       11.592228   -0.123287    2.109187
    134          1           0       11.824209    1.360479    4.585424
    135          1           0       14.300043   -0.113567    3.815242
    136          1           0       13.617351   -0.692890    5.310351
    137          1           0       14.002970    1.029674    5.145189
    138          1           0       10.286219   -0.668479    4.370933
    139          1           0       11.429372   -0.900332    5.725198
    140          1           0       11.648001   -1.735809    4.178431
 ---------------------------------------------------------------------

 SCF Done:  E(RPBE1PBE) =  -3005.32736418     A.U. after   15 cycles

 Excitation energies and oscillator strengths:

 Excited State   1:      Singlet-A      1.8156 eV  682.89 nm  f=0.3550  <S**2>=0.000
     245 -> 248        0.17067
     246 -> 247        0.69393
     246 <- 247       -0.11208
 This state for optimization and/or second-order correction.
 Total Energy, E(TD-HF/TD-DFT) =  -3005.26064309
 Copying the excited state density for this state as the 1-particle RhoCI density.

 Excited State   2:      Singlet-A      2.1795 eV  568.87 nm  f=0.0955  <S**2>=0.000
     245 -> 247        0.64469
     246 -> 248       -0.27485

 Excited State   3:      Singlet-A      2.9411 eV  421.55 nm  f=0.0127  <S**2>=0.000
     241 -> 247       -0.12845
     242 -> 247       -0.18361
     243 -> 247        0.61146
     246 -> 248        0.19986

 Excited State   4:      Singlet-A      3.1229 eV  397.01 nm  f=0.0246  <S**2>=0.000
     240 -> 247        0.10166
     242 -> 247        0.57474
     242 -> 249        0.13473
     243 -> 247        0.23100
     246 -> 248       -0.20435

 Excited State   5:      Singlet-A      3.1854 eV  389.23 nm  f=0.0019  <S**2>=0.000
     241 -> 247        0.65193
     243 -> 247        0.17467

 The electronic state is 1-A.
 Alpha  occ. eigenvalues --  -46.91336 -19.26397 -19.25591 -19.20944 -19.20918
 Alpha  occ. eigenvalues --  -19.19244 -19.18848 -14.42409 -14.40969 -14.39375
 Alpha  occ. eigenvalues --  -14.38807 -10.36854 -10.36400 -10.32904 -10.31268
 Alpha  occ. eigenvalues --  -10.30105 -10.29457 -10.29207 -10.28945 -10.27903
 Alpha  occ. eigenvalues --  -10.27879 -10.27518 -10.27056 -10.26932 -10.26699
 Alpha  occ. eigenvalues --  -10.26654 -10.26415 -10.26413 -10.26100 -10.25915
 Alpha  occ. eigenvalues --  -10.25721 -10.25266 -10.25145 -10.25096 -10.24909
 Alpha  occ. eigenvalues --  -10.24785 -10.24640 -10.24627 -10.24549 -10.24269
 Alpha  occ. eigenvalues --  -10.24186 -10.24096 -10.23843 -10.23686 -10.23657
 Alpha  occ. eigenvalues --  -10.23645 -10.23606 -10.23154 -10.23105 -10.23096
 Alpha  occ. eigenvalues --  -10.23060 -10.22938 -10.22869 -10.22628 -10.22610
 Alpha  occ. eigenvalues --  -10.22500 -10.22387 -10.22270 -10.22226 -10.22214
 Alpha  occ. eigenvalues --  -10.22153 -10.22136 -10.22046 -10.21936 -10.21657
 Alpha  occ. eigenvalues --  -10.21465  -3.13587  -1.86444  -1.85938  -1.85841
 Alpha  occ. eigenvalues --   -1.12601  -1.10682  -1.06002  -1.05034  -1.04391
 Alpha  occ. eigenvalues --   -1.03242  -0.98866  -0.98341  -0.97355  -0.96712
 Alpha  occ. eigenvalues --   -0.86646  -0.85690  -0.84597  -0.83762  -0.83378
 Alpha  occ. eigenvalues --   -0.83334  -0.82652  -0.82026  -0.81835  -0.80769
 Alpha  occ. eigenvalues --   -0.80260  -0.80145  -0.79110  -0.77901  -0.77861
 Alpha  occ. eigenvalues --   -0.76742  -0.76092  -0.75806  -0.75230  -0.75142
 Alpha  occ. eigenvalues --   -0.74276  -0.72729  -0.71935  -0.70747  -0.70539
 Alpha  occ. eigenvalues --   -0.70095  -0.69511  -0.69318  -0.69127  -0.68272
 Alpha  occ. eigenvalues --   -0.67934  -0.67023  -0.65886  -0.64247  -0.63828
 Alpha  occ. eigenvalues --   -0.63176  -0.62574  -0.61717  -0.61467  -0.60017
 Alpha  occ. eigenvalues --   -0.59917  -0.59549  -0.59050  -0.58690  -0.58273
 Alpha  occ. eigenvalues --   -0.57959  -0.57760  -0.56747  -0.56337  -0.54521
 Alpha  occ. eigenvalues --   -0.54152  -0.53934  -0.53397  -0.52832  -0.52097
 Alpha  occ. eigenvalues --   -0.51930  -0.51839  -0.51261  -0.50320  -0.49922
 Alpha  occ. eigenvalues --   -0.49788  -0.49566  -0.49449  -0.49057  -0.48765
 Alpha  occ. eigenvalues --   -0.48490  -0.48292  -0.48183  -0.47761  -0.47556
 Alpha  occ. eigenvalues --   -0.47274  -0.47175  -0.47085  -0.46867  -0.46393
 Alpha  occ. eigenvalues --   -0.46345  -0.46215  -0.45979  -0.45713  -0.45574
 Alpha  occ. eigenvalues --   -0.45231  -0.44930  -0.44786  -0.44482  -0.44278
 Alpha  occ. eigenvalues --   -0.44232  -0.44174  -0.43905  -0.43825  -0.43725
 Alpha  occ. eigenvalues --   -0.43312  -0.43243  -0.43210  -0.42898  -0.42641
 Alpha  occ. eigenvalues --   -0.42113  -0.42097  -0.42006  -0.41761  -0.41734
 Alpha  occ. eigenvalues --   -0.41275  -0.41222  -0.40958  -0.40596  -0.40565
 Alpha  occ. eigenvalues --   -0.40246  -0.40093  -0.40005  -0.39953  -0.39614
 Alpha  occ. eigenvalues --   -0.39433  -0.39232  -0.38999  -0.38862  -0.38571
 Alpha  occ. eigenvalues --   -0.38401  -0.38324  -0.37815  -0.37796  -0.37684
 Alpha  occ. eigenvalues --   -0.37630  -0.37512  -0.37429  -0.37197  -0.37020
 Alpha  occ. eigenvalues --   -0.36912  -0.36752  -0.36574  -0.36346  -0.36044
 Alpha  occ. eigenvalues --   -0.35881  -0.35688  -0.35586  -0.35502  -0.35237
 Alpha  occ. eigenvalues --   -0.35031  -0.34845  -0.34682  -0.33774  -0.33723
 Alpha  occ. eigenvalues --   -0.33297  -0.33146  -0.33059  -0.32649  -0.32576
 Alpha  occ. eigenvalues --   -0.32379  -0.32261  -0.32022  -0.31596  -0.31552
 Alpha  occ. eigenvalues --   -0.31391  -0.31020  -0.29843  -0.29591  -0.29469
 Alpha  occ. eigenvalues --   -0.29292  -0.28703  -0.28394  -0.26703  -0.25879
 Alpha  occ. eigenvalues --   -0.25754  -0.25666  -0.25066  -0.24571  -0.20830
 Alpha  occ. eigenvalues --   -0.18454
 Alpha virt. eigenvalues --   -0.11005  -0.05367  -0.04161  -0.01809  -0.00309
 Alpha virt. eigenvalues --    0.00120   0.00396   0.00475   0.01706   0.02923
 Alpha virt. eigenvalues --    0.03430   0.04475   0.04946   0.05548   0.05704

 Mulliken charges:
               1
     1  Mg   0.989295
     2  C   -0.009995
     3  C   -0.096511
     4  C   -0.032665
     5  C   -0.087833
     6  N   -0.438947
     7  C    0.070695
     8  C   -0.131281
     9  C   -0.142007
    10  C    0.107565
    11  C    0.016922
    12  C   -0.020464
    13  C    0.009680
    14  C    0.195848
    15  O   -0.247150
    16  O   -0.375302
    17  N   -0.461877
    18  C    0.181647
    19  C   -0.167676
    20  C   -0.099012
    21  C    0.091938
    22  C    0.043977
    23  C    0.054815
    24  O   -0.241172
    25  C   -0.017296
    26  N   -0.373438
    27  C    0.113495
    28  C   -0.109914
    29  C   -0.114556
    30  C    0.082114
    31  C    0.019707
    32  C   -0.016506
    33  C   -0.088658
    34  N   -0.507789
    35  C    0.146744
    36  C   -0.176558
    37  C   -0.050466
    38  C    0.131217
    39  C    0.077666
    40  C    0.153151
    41  O   -0.174533
    42  C   -0.176906
    43  C    0.283372
    44  O   -0.224082
    45  O   -0.376161
    46  C    0.130811
    47  C    0.238554
    48  C   -0.157670
    49  C   -0.243145
    50  C    0.041636
    51  C   -0.026622
    52  C   -0.012828
    53  C    0.006206
    54  C   -0.206112
    55  C   -0.019405
    56  C    0.029648
    57  C   -0.067204
    58  C   -0.005007
    59  C   -0.247605
    60  C   -0.014428
    61  C   -0.010109
    62  C   -0.028655
    63  C   -0.030917
    64  C   -0.226923
    65  C   -0.007473
    66  C   -0.036459
    67  H   -0.001942
    68  H    0.025576
    69  H   -0.003521
    70  H    0.070288
    71  H    0.052809
    72  H    0.051662
    73  H    0.041297
    74  H    0.044748
    75  H    0.037986
    76  H    0.078013
    77  H    0.060231
    78  H    0.076161
    79  H    0.056395
    80  H    0.040119
    81  H    0.066327
    82  H    0.044837
    83  H    0.055225
    84  H    0.082256
    85  H    0.050744
    86  H    0.030937
    87  H    0.056462
    88  H    0.048198
    89  H    0.032850
    90  H    0.043495
    91  H    0.041044
    92  H    0.038586
    93  H    0.041118
    94  H    0.057017
    95  H    0.047233
    96  H    0.065736
    97  H    0.073865
    98  H    0.092798
    99  H    0.066679
   100  H    0.031304
   101  H    0.056842
   102  H    0.071432
   103  H    0.068837
   104  H    0.042556
   105  H    0.042848
   106  H    0.050744
   107  H    0.067166
   108  H    0.044800
   109  H    0.023800
   110  H    0.019981
   111  H    0.030009
   112  H    0.021692
   113  H    0.022279
   114  H    0.039474
   115  H    0.021542
   116  H    0.033594
   117  H    0.021370
   118  H    0.023371
   119  H    0.028921
   120  H    0.027311
   121  H    0.025679
   122  H    0.031295
   123  H    0.018582
   124  H    0.024488
   125  H    0.022797
   126  H    0.036847
   127  H    0.029739
   128  H    0.028318
   129  H    0.042745
   130  H    0.035104
   131  H    0.032241
   132  H    0.036462
   133  H    0.028818
   134  H    0.031355
   135  H    0.033461
   136  H    0.024305
   137  H    0.036331
   138  H    0.028829
   139  H    0.042962
   140  H    0.037154
 Sum of Mulliken charges =  -0.00000

 Dipole moment (field-independent basis, Debye):
    X=              5.4805    Y=              3.4081    Z=             -0.5833  Tot=              6.4801
 Quadrupole moment (field-independent basis, Debye-Ang):
   XX=           -383.3632   YY=           -431.0420   ZZ=           -405.5031
   XY=            -30.0187   XZ=             -4.3730   YZ=             11.2518

 Normal termination of Gaussian 16 at Fri Apr 29 07:47:23 2022.
