 Gaussian 16, Revision A.03,
 Gaussian 16:  ES64L-G16RevA.03 25-Dec-2016

 --------------------------------
 #p wB97XD/Def2SVP td=(nstates=5)
 --------------------------------

 ----------------------------------------------------
 step_201_chromophore_15 TDDFT with wB97XD functional
 ----------------------------------------------------
 Symbolic Z-matrix:
 Charge =  0 Multiplicity = 1

                         Standard orientation:
 ---------------------------------------------------------------------
 Center     Atomic      Atomic             Coordinates (Angstroms)
 Number     Number       Type             X           Y           Z
 ---------------------------------------------------------------------
      1         12           0       -4.800402    0.843876    0.029462
      2          6           0       -4.442651   -2.548627    0.411317
      3          6           0       -1.491252    1.318695   -0.061492
      4          6           0       -5.250146    4.309935    0.354488
      5          6           0       -8.226533    0.568483    0.567905
      6          7           0       -3.233925   -0.501974    0.078061
      7          6           0       -3.248185   -1.854565    0.079891
      8          6           0       -1.897995   -2.502344   -0.186558
      9          6           0       -0.914779   -1.216164   -0.161685
     10          6           0       -1.921284   -0.051221    0.040760
     11          6           0        0.267467   -1.185581    0.759391
     12          6           0       -1.813583   -3.167920   -1.652415
     13          6           0       -0.635796   -4.111485   -1.909645
     14          6           0        0.582708   -4.246661   -1.008848
     15          8           0        0.608596   -4.767488    0.067755
     16          8           0        1.655550   -3.690624   -1.636004
     17          7           0       -3.509983    2.542176   -0.125742
     18          6           0       -2.166279    2.497152   -0.124144
     19          6           0       -1.589717    3.815616   -0.145877
     20          6           0       -2.654042    4.780735   -0.104575
     21          6           0       -3.896479    3.874043    0.042022
     22          6           0       -0.075410    4.173222   -0.140615
     23          6           0       -2.677328    6.347082   -0.207266
     24          8           0       -3.709854    6.983865   -0.360320
     25          6           0       -1.423948    7.178019   -0.342091
     26          7           0       -6.503101    2.192894    0.228044
     27          6           0       -6.395518    3.558898    0.524134
     28          6           0       -7.675985    4.251110    0.796105
     29          6           0       -8.677218    3.037989    0.699165
     30          6           0       -7.715199    1.789660    0.500459
     31          6           0       -7.749150    5.125555    2.037829
     32          6           0       -9.768487    3.164403   -0.379611
     33          6           0       -9.256783    2.954013   -1.846010
     34          7           0       -6.126693   -0.656456    0.378229
     35          6           0       -7.519841   -0.608681    0.627447
     36          6           0       -7.993948   -1.990446    0.869935
     37          6           0       -6.805045   -2.768660    0.921971
     38          6           0       -5.715965   -1.921350    0.513352
     39          6           0       -9.484411   -2.415483    1.119017
     40          6           0       -6.328620   -4.057080    1.103044
     41          8           0       -6.847627   -5.090105    1.376357
     42          6           0       -4.709272   -3.909305    0.992518
     43          6           0       -3.909304   -5.022740    0.282472
     44          8           0       -4.095882   -5.429608   -0.827896
     45          8           0       -3.021358   -5.549630    1.229495
     46          6           0       -2.158382   -6.616923    0.684348
     47          6           0        2.940553   -3.831635   -0.929724
     48          6           0        4.098328   -3.233771   -1.711741
     49          6           0        5.416321   -3.309425   -1.306780
     50          6           0        5.973321   -3.800037   -0.056001
     51          6           0        6.398686   -2.452907   -2.109730
     52          6           0        6.058242   -0.942438   -2.027181
     53          6           0        6.338027   -0.140884   -3.255303
     54          6           0        7.265623    1.090498   -3.070933
     55          6           0        7.177814    1.982403   -4.308077
     56          6           0        8.687666    0.626496   -2.666957
     57          6           0        8.993224    1.142651   -1.246677
     58          6           0       10.432803    1.252226   -0.939041
     59          6           0       10.845308    2.584356   -0.159107
     60          6           0       11.285228    3.683887   -1.141312
     61          6           0       11.934734    2.377525    0.892250
     62          6           0       11.330225    1.949868    2.271467
     63          6           0       12.108407    0.684568    2.628436
     64          6           0       12.191753    0.419860    4.175633
     65          6           0       13.619179    0.154007    4.623506
     66          6           0       11.333093   -0.801498    4.643708
     67          1           0       -0.415335    1.429162   -0.216348
     68          1           0       -5.243884    5.366858    0.627854
     69          1           0       -9.283336    0.489573    0.830175
     70          1           0       -1.655451   -3.264207    0.553956
     71          1           0       -0.477984   -1.116975   -1.155014
     72          1           0        0.341174   -0.279620    1.362887
     73          1           0        1.192556   -1.424998    0.235013
     74          1           0        0.034218   -2.023786    1.415468
     75          1           0       -1.656817   -2.360588   -2.367263
     76          1           0       -2.745589   -3.686588   -1.874644
     77          1           0       -0.316960   -3.728483   -2.879630
     78          1           0       -1.113009   -5.089537   -1.848115
     79          1           0        0.056780    4.908870   -0.934505
     80          1           0        0.542359    3.290752   -0.306163
     81          1           0        0.254388    4.684071    0.763730
     82          1           0       -0.760634    6.746018    0.407697
     83          1           0       -1.601963    8.219936   -0.078857
     84          1           0       -1.131871    7.181163   -1.392527
     85          1           0       -8.075449    4.913164    0.027997
     86          1           0       -9.148737    2.809184    1.654863
     87          1           0       -7.549170    6.170822    1.800818
     88          1           0       -7.159091    4.738971    2.869012
     89          1           0       -8.812808    5.072876    2.267573
     90          1           0      -10.190524    4.163986   -0.268682
     91          1           0      -10.546043    2.424061   -0.194639
     92          1           0       -9.354496    3.826662   -2.491912
     93          1           0       -9.732257    2.169357   -2.434757
     94          1           0       -8.199692    2.689551   -1.829982
     95          1           0      -10.034260   -1.998640    0.274433
     96          1           0       -9.774596   -1.853419    2.007126
     97          1           0       -9.594840   -3.498133    1.059298
     98          1           0       -4.358805   -3.727723    2.008780
     99          1           0       -1.278426   -6.608154    1.328499
    100          1           0       -1.809557   -6.414316   -0.327927
    101          1           0       -2.543018   -7.634589    0.613779
    102          1           0        3.238917   -4.879336   -0.944899
    103          1           0        2.810525   -3.299551    0.012613
    104          1           0        3.845909   -2.882017   -2.711984
    105          1           0        5.268035   -3.948074    0.762113
    106          1           0        6.667991   -3.021008    0.259886
    107          1           0        6.461285   -4.728513   -0.353292
    108          1           0        6.402760   -2.853217   -3.123798
    109          1           0        7.435364   -2.599297   -1.805806
    110          1           0        6.539873   -0.457166   -1.178563
    111          1           0        5.003517   -0.922305   -1.753080
    112          1           0        5.508208    0.318384   -3.792568
    113          1           0        6.768925   -0.888882   -3.920753
    114          1           0        6.837230    1.717885   -2.289883
    115          1           0        6.730316    2.940802   -4.043573
    116          1           0        6.613111    1.764663   -5.214830
    117          1           0        8.153903    2.280878   -4.688078
    118          1           0        9.400872    1.031305   -3.385514
    119          1           0        8.876524   -0.444044   -2.740655
    120          1           0        8.529005    0.590376   -0.429208
    121          1           0        8.542742    2.120951   -1.084691
    122          1           0       11.138145    1.117243   -1.759071
    123          1           0       10.519330    0.405795   -0.256911
    124          1           0        9.903305    2.988009    0.212410
    125          1           0       12.370010    3.652102   -1.245722
    126          1           0       11.102129    4.698336   -0.786264
    127          1           0       10.871430    3.518161   -2.135993
    128          1           0       12.416915    3.335978    1.082851
    129          1           0       12.552449    1.645421    0.372821
    130          1           0       10.263634    1.775003    2.129202
    131          1           0       11.491025    2.802130    2.932655
    132          1           0       13.143630    0.753901    2.294860
    133          1           0       11.592228   -0.123287    2.109187
    134          1           0       11.824209    1.360479    4.585424
    135          1           0       14.300043   -0.113567    3.815242
    136          1           0       13.617351   -0.692890    5.310351
    137          1           0       14.002970    1.029674    5.145189
    138          1           0       10.286219   -0.668479    4.370933
    139          1           0       11.429372   -0.900332    5.725198
    140          1           0       11.648001   -1.735809    4.178431
 ---------------------------------------------------------------------

 SCF Done:  E(RwB97XD) =  -3007.83858284     A.U. after   17 cycles

 Excitation energies and oscillator strengths:

 Excited State   1:      Singlet-A      1.6025 eV  773.70 nm  f=0.3697  <S**2>=0.000
     245 -> 248        0.18432
     246 -> 247        0.68386
     245 <- 248        0.11675
 This state for optimization and/or second-order correction.
 Total Energy, E(TD-HF/TD-DFT) =  -3007.77969283
 Copying the excited state density for this state as the 1-particle RhoCI density.

 Excited State   2:      Singlet-A      2.1372 eV  580.13 nm  f=0.0875  <S**2>=0.000
     245 -> 247        0.62752
     246 -> 248       -0.31361

 Excited State   3:      Singlet-A      3.3310 eV  372.22 nm  f=0.2669  <S**2>=0.000
     242 -> 247        0.14748
     243 -> 247        0.42303
     245 -> 247        0.19646
     246 -> 248        0.44816

 Excited State   4:      Singlet-A      3.4842 eV  355.85 nm  f=0.3029  <S**2>=0.000
     242 -> 247       -0.15104
     243 -> 247        0.49724
     245 -> 247       -0.19320
     246 -> 248       -0.38899

 Excited State   5:      Singlet-A      3.6050 eV  343.92 nm  f=0.0250  <S**2>=0.000
     239 -> 247       -0.20689
     240 -> 247       -0.14962
     241 -> 247        0.53633
     241 -> 249       -0.16317
     241 -> 250        0.13806
     243 -> 247       -0.13116
     243 -> 250        0.10706
     246 -> 248       -0.10859

 The electronic state is 1-A.
 Alpha  occ. eigenvalues --  -46.94283 -19.30931 -19.30179 -19.25680 -19.25616
 Alpha  occ. eigenvalues --  -19.24064 -19.23709 -14.47577 -14.45983 -14.44353
 Alpha  occ. eigenvalues --  -14.43741 -10.43636 -10.43277 -10.39732 -10.38205
 Alpha  occ. eigenvalues --  -10.36591 -10.35703 -10.35490 -10.35306 -10.34428
 Alpha  occ. eigenvalues --  -10.34208 -10.33854 -10.33318 -10.33265 -10.33212
 Alpha  occ. eigenvalues --  -10.33118 -10.32714 -10.32652 -10.32458 -10.32148
 Alpha  occ. eigenvalues --  -10.32109 -10.31715 -10.31478 -10.31463 -10.31414
 Alpha  occ. eigenvalues --  -10.31170 -10.31151 -10.30797 -10.30752 -10.30736
 Alpha  occ. eigenvalues --  -10.30469 -10.30464 -10.30284 -10.30209 -10.30019
 Alpha  occ. eigenvalues --  -10.30008 -10.29946 -10.29558 -10.29451 -10.29370
 Alpha  occ. eigenvalues --  -10.29342 -10.29269 -10.29249 -10.29013 -10.28998
 Alpha  occ. eigenvalues --  -10.28865 -10.28780 -10.28652 -10.28577 -10.28572
 Alpha  occ. eigenvalues --  -10.28538 -10.28503 -10.28484 -10.28360 -10.28095
 Alpha  occ. eigenvalues --  -10.27888  -3.20371  -1.93981  -1.93475  -1.93377
 Alpha  occ. eigenvalues --   -1.19950  -1.18116  -1.13504  -1.12519  -1.11706
 Alpha  occ. eigenvalues --   -1.10631  -1.06257  -1.05728  -1.04732  -1.04084
 Alpha  occ. eigenvalues --   -0.94292  -0.93364  -0.92263  -0.91394  -0.91015
 Alpha  occ. eigenvalues --   -0.90899  -0.90240  -0.89627  -0.89493  -0.88474
 Alpha  occ. eigenvalues --   -0.87911  -0.87781  -0.86765  -0.85508  -0.85496
 Alpha  occ. eigenvalues --   -0.84382  -0.83720  -0.83564  -0.82908  -0.82815
 Alpha  occ. eigenvalues --   -0.81910  -0.80378  -0.79630  -0.78338  -0.78200
 Alpha  occ. eigenvalues --   -0.77714  -0.77182  -0.76915  -0.76835  -0.75937
 Alpha  occ. eigenvalues --   -0.75523  -0.74585  -0.73430  -0.71857  -0.71377
 Alpha  occ. eigenvalues --   -0.70736  -0.70217  -0.69276  -0.69097  -0.67601
 Alpha  occ. eigenvalues --   -0.67502  -0.67026  -0.66471  -0.66370  -0.65716
 Alpha  occ. eigenvalues --   -0.65459  -0.65396  -0.64381  -0.63774  -0.62003
 Alpha  occ. eigenvalues --   -0.61606  -0.61391  -0.60768  -0.60238  -0.59619
 Alpha  occ. eigenvalues --   -0.59424  -0.59249  -0.58683  -0.57736  -0.57345
 Alpha  occ. eigenvalues --   -0.57214  -0.56997  -0.56885  -0.56489  -0.56178
 Alpha  occ. eigenvalues --   -0.55910  -0.55705  -0.55571  -0.55127  -0.54938
 Alpha  occ. eigenvalues --   -0.54821  -0.54575  -0.54461  -0.54253  -0.53750
 Alpha  occ. eigenvalues --   -0.53697  -0.53574  -0.53334  -0.53055  -0.52932
 Alpha  occ. eigenvalues --   -0.52601  -0.52280  -0.52182  -0.51803  -0.51709
 Alpha  occ. eigenvalues --   -0.51597  -0.51485  -0.51253  -0.51150  -0.51042
 Alpha  occ. eigenvalues --   -0.50659  -0.50545  -0.50500  -0.50151  -0.49910
 Alpha  occ. eigenvalues --   -0.49435  -0.49296  -0.49260  -0.49028  -0.48950
 Alpha  occ. eigenvalues --   -0.48570  -0.48362  -0.48155  -0.47845  -0.47805
 Alpha  occ. eigenvalues --   -0.47473  -0.47365  -0.47207  -0.47176  -0.46818
 Alpha  occ. eigenvalues --   -0.46554  -0.46403  -0.46179  -0.46026  -0.45705
 Alpha  occ. eigenvalues --   -0.45536  -0.45436  -0.44955  -0.44898  -0.44847
 Alpha  occ. eigenvalues --   -0.44789  -0.44586  -0.44524  -0.44368  -0.44143
 Alpha  occ. eigenvalues --   -0.43997  -0.43877  -0.43680  -0.43337  -0.43137
 Alpha  occ. eigenvalues --   -0.42960  -0.42691  -0.42679  -0.42492  -0.42234
 Alpha  occ. eigenvalues --   -0.42093  -0.41951  -0.41692  -0.40803  -0.40704
 Alpha  occ. eigenvalues --   -0.40366  -0.40129  -0.40088  -0.39629  -0.39476
 Alpha  occ. eigenvalues --   -0.39433  -0.39297  -0.39066  -0.38628  -0.38602
 Alpha  occ. eigenvalues --   -0.38265  -0.38061  -0.36901  -0.36635  -0.36377
 Alpha  occ. eigenvalues --   -0.36087  -0.35538  -0.35061  -0.33408  -0.32869
 Alpha  occ. eigenvalues --   -0.32600  -0.32422  -0.31757  -0.31314  -0.25888
 Alpha  occ. eigenvalues --   -0.22590
 Alpha virt. eigenvalues --   -0.06866   0.00050   0.02116   0.04665   0.06384
 Alpha virt. eigenvalues --    0.06428   0.07085   0.07233   0.07969   0.09110
 Alpha virt. eigenvalues --    0.10120   0.11187   0.11690   0.12357   0.12493

 Mulliken charges:
               1
     1  Mg   0.976780
     2  C   -0.018813
     3  C   -0.110304
     4  C   -0.050382
     5  C   -0.112869
     6  N   -0.404376
     7  C    0.037885
     8  C   -0.100564
     9  C   -0.116430
    10  C    0.092310
    11  C    0.030256
    12  C   -0.008670
    13  C    0.028854
    14  C    0.177527
    15  O   -0.240673
    16  O   -0.371548
    17  N   -0.428963
    18  C    0.178422
    19  C   -0.160413
    20  C   -0.097558
    21  C    0.085501
    22  C    0.056095
    23  C    0.053974
    24  O   -0.236489
    25  C   -0.005363
    26  N   -0.341716
    27  C    0.106488
    28  C   -0.086577
    29  C   -0.089823
    30  C    0.076644
    31  C    0.029686
    32  C   -0.001732
    33  C   -0.070656
    34  N   -0.470858
    35  C    0.140975
    36  C   -0.178475
    37  C   -0.046142
    38  C    0.116809
    39  C    0.090711
    40  C    0.137492
    41  O   -0.164908
    42  C   -0.137490
    43  C    0.262767
    44  O   -0.216968
    45  O   -0.374583
    46  C    0.149910
    47  C    0.250272
    48  C   -0.165275
    49  C   -0.227729
    50  C    0.054442
    51  C   -0.008590
    52  C    0.006405
    53  C    0.024442
    54  C   -0.171685
    55  C   -0.010790
    56  C    0.041227
    57  C   -0.045796
    58  C    0.007892
    59  C   -0.215030
    60  C   -0.002632
    61  C    0.008338
    62  C   -0.015029
    63  C   -0.013455
    64  C   -0.198563
    65  C    0.003997
    66  C   -0.020645
    67  H   -0.011826
    68  H    0.019396
    69  H   -0.009177
    70  H    0.053349
    71  H    0.040390
    72  H    0.046336
    73  H    0.032904
    74  H    0.038266
    75  H    0.029394
    76  H    0.069316
    77  H    0.055650
    78  H    0.066384
    79  H    0.049544
    80  H    0.036614
    81  H    0.062057
    82  H    0.037746
    83  H    0.054012
    84  H    0.079015
    85  H    0.039688
    86  H    0.020069
    87  H    0.051782
    88  H    0.042970
    89  H    0.025500
    90  H    0.035020
    91  H    0.033667
    92  H    0.033499
    93  H    0.036145
    94  H    0.044535
    95  H    0.041118
    96  H    0.060634
    97  H    0.071659
    98  H    0.084309
    99  H    0.065105
   100  H    0.019499
   101  H    0.054121
   102  H    0.065920
   103  H    0.062357
   104  H    0.039846
   105  H    0.038468
   106  H    0.044391
   107  H    0.061553
   108  H    0.036397
   109  H    0.015272
   110  H    0.006110
   111  H    0.019634
   112  H    0.013609
   113  H    0.010300
   114  H    0.026667
   115  H    0.015802
   116  H    0.028581
   117  H    0.015030
   118  H    0.013074
   119  H    0.019838
   120  H    0.018899
   121  H    0.012076
   122  H    0.023239
   123  H    0.006447
   124  H    0.010112
   125  H    0.015253
   126  H    0.031727
   127  H    0.022867
   128  H    0.020396
   129  H    0.030932
   130  H    0.025345
   131  H    0.025043
   132  H    0.024405
   133  H    0.018543
   134  H    0.020021
   135  H    0.027608
   136  H    0.017757
   137  H    0.031285
   138  H    0.022501
   139  H    0.036250
   140  H    0.030219
 Sum of Mulliken charges =  -0.00000

 Dipole moment (field-independent basis, Debye):
    X=              5.6094    Y=              3.4369    Z=             -0.5628  Tot=              6.6026
 Quadrupole moment (field-independent basis, Debye-Ang):
   XX=           -384.3120   YY=           -429.7528   ZZ=           -405.1029
   XY=            -28.9475   XZ=             -4.2854   YZ=             11.0103

 Normal termination of Gaussian 16 at Fri Apr 29 08:12:23 2022.
