 Gaussian 16, Revision A.03,
 Gaussian 16:  ES64L-G16RevA.03 25-Dec-2016

 --------------------
 #p ZINDO=(nstates=5)
 --------------------

 -----------------------------
 step_201_chromophore_15 ZINDO
 -----------------------------
 Symbolic Z-matrix:
 Charge =  0 Multiplicity = 1

                         Standard orientation:
 ---------------------------------------------------------------------
 Center     Atomic      Atomic             Coordinates (Angstroms)
 Number     Number       Type             X           Y           Z
 ---------------------------------------------------------------------
      1         12           0       -4.800402    0.843876    0.029462
      2          6           0       -4.442651   -2.548627    0.411317
      3          6           0       -1.491252    1.318695   -0.061492
      4          6           0       -5.250146    4.309935    0.354488
      5          6           0       -8.226533    0.568483    0.567905
      6          7           0       -3.233925   -0.501974    0.078061
      7          6           0       -3.248185   -1.854565    0.079891
      8          6           0       -1.897995   -2.502344   -0.186558
      9          6           0       -0.914779   -1.216164   -0.161685
     10          6           0       -1.921284   -0.051221    0.040760
     11          6           0        0.267467   -1.185581    0.759391
     12          6           0       -1.813583   -3.167920   -1.652415
     13          6           0       -0.635796   -4.111485   -1.909645
     14          6           0        0.582708   -4.246661   -1.008848
     15          8           0        0.608596   -4.767488    0.067755
     16          8           0        1.655550   -3.690624   -1.636004
     17          7           0       -3.509983    2.542176   -0.125742
     18          6           0       -2.166279    2.497152   -0.124144
     19          6           0       -1.589717    3.815616   -0.145877
     20          6           0       -2.654042    4.780735   -0.104575
     21          6           0       -3.896479    3.874043    0.042022
     22          6           0       -0.075410    4.173222   -0.140615
     23          6           0       -2.677328    6.347082   -0.207266
     24          8           0       -3.709854    6.983865   -0.360320
     25          6           0       -1.423948    7.178019   -0.342091
     26          7           0       -6.503101    2.192894    0.228044
     27          6           0       -6.395518    3.558898    0.524134
     28          6           0       -7.675985    4.251110    0.796105
     29          6           0       -8.677218    3.037989    0.699165
     30          6           0       -7.715199    1.789660    0.500459
     31          6           0       -7.749150    5.125555    2.037829
     32          6           0       -9.768487    3.164403   -0.379611
     33          6           0       -9.256783    2.954013   -1.846010
     34          7           0       -6.126693   -0.656456    0.378229
     35          6           0       -7.519841   -0.608681    0.627447
     36          6           0       -7.993948   -1.990446    0.869935
     37          6           0       -6.805045   -2.768660    0.921971
     38          6           0       -5.715965   -1.921350    0.513352
     39          6           0       -9.484411   -2.415483    1.119017
     40          6           0       -6.328620   -4.057080    1.103044
     41          8           0       -6.847627   -5.090105    1.376357
     42          6           0       -4.709272   -3.909305    0.992518
     43          6           0       -3.909304   -5.022740    0.282472
     44          8           0       -4.095882   -5.429608   -0.827896
     45          8           0       -3.021358   -5.549630    1.229495
     46          6           0       -2.158382   -6.616923    0.684348
     47          6           0        2.940553   -3.831635   -0.929724
     48          6           0        4.098328   -3.233771   -1.711741
     49          6           0        5.416321   -3.309425   -1.306780
     50          6           0        5.973321   -3.800037   -0.056001
     51          6           0        6.398686   -2.452907   -2.109730
     52          6           0        6.058242   -0.942438   -2.027181
     53          6           0        6.338027   -0.140884   -3.255303
     54          6           0        7.265623    1.090498   -3.070933
     55          6           0        7.177814    1.982403   -4.308077
     56          6           0        8.687666    0.626496   -2.666957
     57          6           0        8.993224    1.142651   -1.246677
     58          6           0       10.432803    1.252226   -0.939041
     59          6           0       10.845308    2.584356   -0.159107
     60          6           0       11.285228    3.683887   -1.141312
     61          6           0       11.934734    2.377525    0.892250
     62          6           0       11.330225    1.949868    2.271467
     63          6           0       12.108407    0.684568    2.628436
     64          6           0       12.191753    0.419860    4.175633
     65          6           0       13.619179    0.154007    4.623506
     66          6           0       11.333093   -0.801498    4.643708
     67          1           0       -0.415335    1.429162   -0.216348
     68          1           0       -5.243884    5.366858    0.627854
     69          1           0       -9.283336    0.489573    0.830175
     70          1           0       -1.655451   -3.264207    0.553956
     71          1           0       -0.477984   -1.116975   -1.155014
     72          1           0        0.341174   -0.279620    1.362887
     73          1           0        1.192556   -1.424998    0.235013
     74          1           0        0.034218   -2.023786    1.415468
     75          1           0       -1.656817   -2.360588   -2.367263
     76          1           0       -2.745589   -3.686588   -1.874644
     77          1           0       -0.316960   -3.728483   -2.879630
     78          1           0       -1.113009   -5.089537   -1.848115
     79          1           0        0.056780    4.908870   -0.934505
     80          1           0        0.542359    3.290752   -0.306163
     81          1           0        0.254388    4.684071    0.763730
     82          1           0       -0.760634    6.746018    0.407697
     83          1           0       -1.601963    8.219936   -0.078857
     84          1           0       -1.131871    7.181163   -1.392527
     85          1           0       -8.075449    4.913164    0.027997
     86          1           0       -9.148737    2.809184    1.654863
     87          1           0       -7.549170    6.170822    1.800818
     88          1           0       -7.159091    4.738971    2.869012
     89          1           0       -8.812808    5.072876    2.267573
     90          1           0      -10.190524    4.163986   -0.268682
     91          1           0      -10.546043    2.424061   -0.194639
     92          1           0       -9.354496    3.826662   -2.491912
     93          1           0       -9.732257    2.169357   -2.434757
     94          1           0       -8.199692    2.689551   -1.829982
     95          1           0      -10.034260   -1.998640    0.274433
     96          1           0       -9.774596   -1.853419    2.007126
     97          1           0       -9.594840   -3.498133    1.059298
     98          1           0       -4.358805   -3.727723    2.008780
     99          1           0       -1.278426   -6.608154    1.328499
    100          1           0       -1.809557   -6.414316   -0.327927
    101          1           0       -2.543018   -7.634589    0.613779
    102          1           0        3.238917   -4.879336   -0.944899
    103          1           0        2.810525   -3.299551    0.012613
    104          1           0        3.845909   -2.882017   -2.711984
    105          1           0        5.268035   -3.948074    0.762113
    106          1           0        6.667991   -3.021008    0.259886
    107          1           0        6.461285   -4.728513   -0.353292
    108          1           0        6.402760   -2.853217   -3.123798
    109          1           0        7.435364   -2.599297   -1.805806
    110          1           0        6.539873   -0.457166   -1.178563
    111          1           0        5.003517   -0.922305   -1.753080
    112          1           0        5.508208    0.318384   -3.792568
    113          1           0        6.768925   -0.888882   -3.920753
    114          1           0        6.837230    1.717885   -2.289883
    115          1           0        6.730316    2.940802   -4.043573
    116          1           0        6.613111    1.764663   -5.214830
    117          1           0        8.153903    2.280878   -4.688078
    118          1           0        9.400872    1.031305   -3.385514
    119          1           0        8.876524   -0.444044   -2.740655
    120          1           0        8.529005    0.590376   -0.429208
    121          1           0        8.542742    2.120951   -1.084691
    122          1           0       11.138145    1.117243   -1.759071
    123          1           0       10.519330    0.405795   -0.256911
    124          1           0        9.903305    2.988009    0.212410
    125          1           0       12.370010    3.652102   -1.245722
    126          1           0       11.102129    4.698336   -0.786264
    127          1           0       10.871430    3.518161   -2.135993
    128          1           0       12.416915    3.335978    1.082851
    129          1           0       12.552449    1.645421    0.372821
    130          1           0       10.263634    1.775003    2.129202
    131          1           0       11.491025    2.802130    2.932655
    132          1           0       13.143630    0.753901    2.294860
    133          1           0       11.592228   -0.123287    2.109187
    134          1           0       11.824209    1.360479    4.585424
    135          1           0       14.300043   -0.113567    3.815242
    136          1           0       13.617351   -0.692890    5.310351
    137          1           0       14.002970    1.029674    5.145189
    138          1           0       10.286219   -0.668479    4.370933
    139          1           0       11.429372   -0.900332    5.725198
    140          1           0       11.648001   -1.735809    4.178431
 ---------------------------------------------------------------------

 SCF Done:  E(RZINDO/S) =  -474.367053438     A.U. after   20 cycles

 Excitation energies and oscillator strengths:

 Excited State   1:      Singlet-A      1.2181 eV 1017.89 nm  f=0.5969  <S**2>=0.000
     175 ->178        -0.19518
     176 ->177         0.66158
 This state for optimization and/or second-order correction.
 Total Energy, E(CIS/TDA) =  -474.322290903
 Copying the excited state density for this state as the 1-particle RhoCI density.

 Excited State   2:      Singlet-A      1.8859 eV  657.42 nm  f=0.0101  <S**2>=0.000
     175 ->177         0.50666
     176 ->178         0.47092

 Excited State   3:      Singlet-A      2.8647 eV  432.80 nm  f=0.5328  <S**2>=0.000
     169 ->177         0.10742
     173 ->177         0.11249
     175 ->177        -0.30417
     176 ->178         0.37516
     176 ->179         0.38617

 Excited State   4:      Singlet-A      2.9272 eV  423.55 nm  f=0.1418  <S**2>=0.000
     168 ->177        -0.12264
     168 ->179        -0.28405
     168 ->180         0.16593
     168 ->186        -0.18233
     169 ->177        -0.16443
     169 ->180         0.16110
     170 ->179         0.11695
     175 ->177         0.16334
     176 ->178        -0.15601
     176 ->179         0.39118

 Excited State   5:      Singlet-A      2.9777 eV  416.37 nm  f=0.0004  <S**2>=0.000
     168 ->177         0.20054
     168 ->179         0.25147
     168 ->180        -0.25392
     168 ->186         0.16097
     169 ->177        -0.16922
     169 ->179         0.23547
     169 ->180         0.12887
     169 ->186         0.12663
     176 ->179         0.29272

 The electronic state is 1-A.
 Alpha  occ. eigenvalues --   -1.83953  -1.81224  -1.78817  -1.74343  -1.70234
 Alpha  occ. eigenvalues --   -1.69433  -1.67137  -1.62667  -1.59537  -1.58871
 Alpha  occ. eigenvalues --   -1.56409  -1.52867  -1.49653  -1.48411  -1.46816
 Alpha  occ. eigenvalues --   -1.45061  -1.43936  -1.41856  -1.40346  -1.38971
 Alpha  occ. eigenvalues --   -1.36171  -1.33373  -1.32361  -1.32220  -1.30412
 Alpha  occ. eigenvalues --   -1.29562  -1.24111  -1.22843  -1.20967  -1.19145
 Alpha  occ. eigenvalues --   -1.17574  -1.14849  -1.14201  -1.13766  -1.13102
 Alpha  occ. eigenvalues --   -1.12646  -1.10382  -1.09120  -1.04743  -1.03955
 Alpha  occ. eigenvalues --   -1.02343  -1.00803  -0.99014  -0.98160  -0.96822
 Alpha  occ. eigenvalues --   -0.96384  -0.95168  -0.94373  -0.93057  -0.92231
 Alpha  occ. eigenvalues --   -0.91403  -0.89995  -0.89091  -0.88047  -0.86972
 Alpha  occ. eigenvalues --   -0.85156  -0.83974  -0.83071  -0.81179  -0.80535
 Alpha  occ. eigenvalues --   -0.79311  -0.78590  -0.78318  -0.76339  -0.75454
 Alpha  occ. eigenvalues --   -0.75023  -0.74750  -0.74325  -0.74093  -0.73570
 Alpha  occ. eigenvalues --   -0.72967  -0.72654  -0.72005  -0.71853  -0.71077
 Alpha  occ. eigenvalues --   -0.70079  -0.69813  -0.68621  -0.68122  -0.68001
 Alpha  occ. eigenvalues --   -0.67637  -0.66564  -0.66490  -0.66112  -0.65735
 Alpha  occ. eigenvalues --   -0.65637  -0.64699  -0.64097  -0.63962  -0.63654
 Alpha  occ. eigenvalues --   -0.63524  -0.63249  -0.62624  -0.62186  -0.61624
 Alpha  occ. eigenvalues --   -0.61406  -0.61160  -0.61062  -0.60517  -0.60441
 Alpha  occ. eigenvalues --   -0.59547  -0.59162  -0.58942  -0.58389  -0.58239
 Alpha  occ. eigenvalues --   -0.58149  -0.57633  -0.57465  -0.57135  -0.56876
 Alpha  occ. eigenvalues --   -0.55894  -0.55305  -0.54696  -0.54493  -0.54030
 Alpha  occ. eigenvalues --   -0.53887  -0.53805  -0.53016  -0.52863  -0.52684
 Alpha  occ. eigenvalues --   -0.52535  -0.51995  -0.51892  -0.51775  -0.51283
 Alpha  occ. eigenvalues --   -0.51200  -0.50829  -0.50649  -0.50366  -0.50233
 Alpha  occ. eigenvalues --   -0.50165  -0.50020  -0.49575  -0.49383  -0.49245
 Alpha  occ. eigenvalues --   -0.49136  -0.48651  -0.48579  -0.48399  -0.47861
 Alpha  occ. eigenvalues --   -0.47681  -0.47552  -0.47106  -0.47008  -0.46892
 Alpha  occ. eigenvalues --   -0.46533  -0.46019  -0.45995  -0.45420  -0.45372
 Alpha  occ. eigenvalues --   -0.45174  -0.44861  -0.44491  -0.44313  -0.44014
 Alpha  occ. eigenvalues --   -0.43251  -0.43018  -0.42897  -0.42634  -0.42340
 Alpha  occ. eigenvalues --   -0.41896  -0.41621  -0.41151  -0.39403  -0.38972
 Alpha  occ. eigenvalues --   -0.38263  -0.37031  -0.35238  -0.34822  -0.34564
 Alpha  occ. eigenvalues --   -0.33141  -0.32640  -0.32010  -0.30829  -0.26613
 Alpha  occ. eigenvalues --   -0.21313
 Alpha virt. eigenvalues --   -0.08191  -0.02278  -0.00364   0.01500   0.02265
 Alpha virt. eigenvalues --    0.02454   0.02726   0.03282   0.03921   0.04967
 Alpha virt. eigenvalues --    0.06369   0.06759   0.07010   0.07592   0.08185

 Mulliken charges:
               1
     1  Mg   0.421308
     2  C   -0.048872
     3  C   -0.063277
     4  C   -0.067943
     5  C   -0.065515
     6  N   -0.258221
     7  C    0.132092
     8  C   -0.000256
     9  C    0.001007
    10  C    0.093206
    11  C   -0.051036
    12  C   -0.021979
    13  C   -0.007005
    14  C    0.475399
    15  O   -0.517678
    16  O   -0.279048
    17  N   -0.318285
    18  C    0.118947
    19  C    0.002405
    20  C   -0.066438
    21  C    0.121292
    22  C   -0.046765
    23  C    0.327532
    24  O   -0.518066
    25  C   -0.027109
    26  N   -0.276596
    27  C    0.130735
    28  C    0.004536
    29  C   -0.013808
    30  C    0.157704
    31  C   -0.048453
    32  C   -0.019823
    33  C   -0.061408
    34  N   -0.327643
    35  C    0.098444
    36  C    0.022448
    37  C   -0.050582
    38  C    0.109959
    39  C   -0.039602
    40  C    0.343681
    41  O   -0.501243
    42  C    0.042095
    43  C    0.481186
    44  O   -0.497119
    45  O   -0.270086
    46  C    0.070645
    47  C    0.096606
    48  C   -0.101892
    49  C   -0.014355
    50  C   -0.035250
    51  C   -0.022931
    52  C   -0.027886
    53  C   -0.035855
    54  C   -0.005050
    55  C   -0.063587
    56  C   -0.028408
    57  C   -0.028971
    58  C   -0.038549
    59  C   -0.022789
    60  C   -0.061551
    61  C   -0.040099
    62  C   -0.039976
    63  C   -0.035369
    64  C   -0.020779
    65  C   -0.055130
    66  C   -0.053701
    67  H    0.017571
    68  H    0.044051
    69  H    0.019143
    70  H    0.049260
    71  H    0.027842
    72  H    0.027264
    73  H    0.024438
    74  H    0.021094
    75  H    0.021535
    76  H    0.041141
    77  H    0.037241
    78  H    0.052315
    79  H    0.026003
    80  H    0.026159
    81  H    0.031525
    82  H    0.028812
    83  H    0.037475
    84  H    0.052138
    85  H    0.036870
    86  H    0.018254
    87  H    0.028942
    88  H    0.028265
    89  H    0.012216
    90  H    0.020474
    91  H    0.019162
    92  H    0.017472
    93  H    0.019480
    94  H    0.023980
    95  H    0.024588
    96  H    0.041353
    97  H    0.047649
    98  H    0.055291
    99  H    0.032142
   100  H    0.039519
   101  H    0.047844
   102  H    0.058861
   103  H    0.058664
   104  H    0.039146
   105  H    0.022894
   106  H    0.026769
   107  H    0.039224
   108  H    0.021934
   109  H    0.012516
   110  H    0.018430
   111  H    0.016721
   112  H    0.017645
   113  H    0.016972
   114  H    0.023503
   115  H    0.005643
   116  H    0.024707
   117  H    0.010472
   118  H    0.017592
   119  H    0.022847
   120  H    0.017720
   121  H    0.013295
   122  H    0.024809
   123  H    0.008335
   124  H    0.016325
   125  H    0.009128
   126  H    0.017735
   127  H    0.015940
   128  H    0.019191
   129  H    0.031620
   130  H    0.025429
   131  H    0.023946
   132  H    0.022970
   133  H    0.021025
   134  H    0.023838
   135  H    0.020681
   136  H    0.014974
   137  H    0.015860
   138  H    0.009974
   139  H    0.017999
   140  H    0.020920
 Sum of Mulliken charges =  -0.00000

 Dipole moment (field-independent basis, Debye):
    X=              6.8802    Y=              3.8125    Z=              0.2135  Tot=              7.8688
 N-N= 4.370500745407D+03 E-N= 0.000000000000D+00  KE=-9.415351153330D+03
 Leave Link  601 at Fri Apr 29 08:23:45 2022, MaxMem=  6710886400 cpu:               0.8 elap:               0.1
 (Enter /sw/apps/gaussian-16.0/g16/l9999.exe)
 1\1\GINC-BP1-COMPUTE102\SP\RZINDO CIS\STO-3G\C55H74Mg1N4O6\OF15641\29-
 Apr-2022\0\\#p ZINDO=(nstates=5)\\step_201_chromophore_15 ZINDO\\0,1\M
 g,0,46.426,34.347,28.18\C,0,44.87,32.301,30.455\C,0,46.429,36.931,30.3
 03\C,0,47.353,36.525,25.588\C,0,46.082,31.913,25.718\N,0,45.799,34.492
 ,30.143\C,0,45.331,33.538,30.98\C,0,45.256,33.958,32.44\C,0,45.604,35.
 536,32.338\C,0,45.892,35.7,30.821\C,0,44.665,36.556,32.908\C,0,46.391,
 33.253,33.342\C,0,46.218,33.35,34.86\C,0,45.238,34.275,35.566\O,0,44.0

 Normal termination of Gaussian 16 at Fri Apr 29 08:23:45 2022.
