 Gaussian 16, Revision A.03,
 Gaussian 16:  ES64L-G16RevA.03 25-Dec-2016

 ------------------------------
 #p blyp/Def2SVP td=(nstates=5)
 ------------------------------

 --------------------------------------------------
 step_1301_chromophore_7 TDDFT with blyp functional
 --------------------------------------------------
 Symbolic Z-matrix:
 Charge =  0 Multiplicity = 1

                         Standard orientation:
 ---------------------------------------------------------------------
 Center     Atomic      Atomic             Coordinates (Angstroms)
 Number     Number       Type             X           Y           Z
 ---------------------------------------------------------------------
      1         12           0        6.074670    0.531310    0.134997
      2          6           0        3.586925   -2.091733    0.176288
      3          6           0        3.652500    2.544037   -0.973933
      4          6           0        8.421280    2.945721    0.307837
      5          6           0        8.563881   -1.896663    0.878446
      6          7           0        3.880734    0.165441   -0.481008
      7          6           0        3.033654   -0.895773   -0.135553
      8          6           0        1.520408   -0.598716   -0.489652
      9          6           0        1.626591    0.852377   -1.189618
     10          6           0        3.121945    1.220645   -0.865264
     11          6           0        1.307936    0.892150   -2.688960
     12          6           0        0.552921   -0.824615    0.723637
     13          6           0       -0.607377   -1.730384    0.584112
     14          6           0       -1.576783   -1.464013   -0.573465
     15          8           0       -1.478629   -0.665398   -1.471731
     16          8           0       -2.721157   -2.217964   -0.464434
     17          7           0        6.038932    2.479090   -0.216555
     18          6           0        4.971131    3.176641   -0.761741
     19          6           0        5.357918    4.505099   -1.018198
     20          6           0        6.658275    4.681431   -0.595445
     21          6           0        7.091244    3.350194   -0.103924
     22          6           0        4.442251    5.590980   -1.673319
     23          6           0        7.656369    5.843219   -0.800451
     24          8           0        8.805463    5.897419   -0.352080
     25          6           0        7.244561    7.128932   -1.464428
     26          7           0        8.291349    0.507964    0.405797
     27          6           0        8.979771    1.646872    0.572897
     28          6           0       10.412235    1.429996    1.117338
     29          6           0       10.480301   -0.131947    1.185039
     30          6           0        9.068359   -0.581483    0.706480
     31          6           0       11.498222    2.134240    0.321053
     32          6           0       10.858250   -0.606156    2.658784
     33          6           0       11.452354   -2.028834    2.599412
     34          7           0        6.105218   -1.525460    0.511707
     35          6           0        7.223791   -2.387909    0.746837
     36          6           0        6.649536   -3.690266    1.112545
     37          6           0        5.294362   -3.628304    0.844702
     38          6           0        5.002118   -2.313708    0.429724
     39          6           0        7.451562   -4.906936    1.529118
     40          6           0        4.053427   -4.404283    0.826380
     41          8           0        3.914707   -5.634011    1.031100
     42          6           0        2.964662   -3.485618    0.421448
     43          6           0        2.409915   -4.052701   -0.819355
     44          8           0        2.832211   -3.696325   -1.924844
     45          8           0        1.394660   -4.957336   -0.570057
     46          6           0        0.627786   -5.364007   -1.779955
     47          6           0       -3.808064   -2.015254   -1.478735
     48          6           0       -5.041685   -1.274094   -0.913460
     49          6           0       -6.390051   -1.311333   -1.142499
     50          6           0       -6.958910   -2.121731   -2.291302
     51          6           0       -7.276310   -0.286388   -0.505040
     52          6           0       -8.786140   -0.282492   -0.829380
     53          6           0       -9.198689    0.838544   -1.826724
     54          6           0      -10.456853    0.493756   -2.603154
     55          6           0      -10.505789    1.097305   -4.052191
     56          6           0      -11.834072    0.741755   -1.790395
     57          6           0      -12.229308   -0.460436   -0.911220
     58          6           0      -13.760591   -0.532904   -0.733410
     59          6           0      -14.178809   -0.490084    0.760849
     60          6           0      -15.661961   -0.911171    0.996151
     61          6           0      -13.918996    0.824170    1.454938
     62          6           0      -12.947313    0.756429    2.633847
     63          6           0      -13.058027    1.841732    3.690633
     64          6           0      -11.829128    2.714398    3.881676
     65          6           0      -12.233755    3.952829    4.661543
     66          6           0      -11.035365    3.136358    2.634451
     67          1           0        2.972047    3.294959   -1.379512
     68          1           0        9.171535    3.713400    0.508975
     69          1           0        9.279432   -2.637409    1.239635
     70          1           0        1.284614   -1.377290   -1.214704
     71          1           0        1.052524    1.560440   -0.592502
     72          1           0        2.130428    1.231653   -3.318352
     73          1           0        0.442861    1.550919   -2.755499
     74          1           0        1.007916   -0.104839   -3.013225
     75          1           0        0.243634    0.207861    0.885739
     76          1           0        1.146102   -1.069189    1.605639
     77          1           0       -1.320792   -1.526393    1.381724
     78          1           0       -0.355805   -2.783732    0.461498
     79          1           0        4.316675    6.396008   -0.949085
     80          1           0        3.479370    5.172963   -1.967607
     81          1           0        4.955871    5.936829   -2.570948
     82          1           0        6.476537    7.496077   -0.784150
     83          1           0        6.900196    6.993797   -2.489262
     84          1           0        8.070655    7.838082   -1.437484
     85          1           0       10.520978    1.802557    2.136064
     86          1           0       11.252160   -0.522288    0.522796
     87          1           0       12.101543    1.411371   -0.228799
     88          1           0       12.105937    2.722470    1.009320
     89          1           0       11.062574    2.845352   -0.380415
     90          1           0        9.974138   -0.683568    3.290993
     91          1           0       11.544611    0.122900    3.089212
     92          1           0       10.642125   -2.685796    2.914468
     93          1           0       12.426725   -2.069112    3.085182
     94          1           0       11.770705   -2.408599    1.628329
     95          1           0        8.199657   -4.618756    2.268772
     96          1           0        8.059812   -5.273051    0.702926
     97          1           0        6.740461   -5.664573    1.857238
     98          1           0        2.190097   -3.442360    1.187348
     99          1           0        1.206852   -5.528191   -2.689602
    100          1           0       -0.204457   -4.712516   -2.046099
    101          1           0        0.046320   -6.235025   -1.477734
    102          1           0       -4.139657   -3.038715   -1.654672
    103          1           0       -3.654480   -1.740298   -2.522136
    104          1           0       -4.698532   -0.475283   -0.255628
    105          1           0       -7.643574   -2.915318   -1.993028
    106          1           0       -6.196325   -2.625292   -2.884826
    107          1           0       -7.571303   -1.480096   -2.924115
    108          1           0       -6.809075    0.621769   -0.885530
    109          1           0       -7.185322   -0.433443    0.570855
    110          1           0       -9.439838   -0.099111    0.023068
    111          1           0       -9.056440   -1.284859   -1.161115
    112          1           0       -8.410549    0.952949   -2.571546
    113          1           0       -9.212270    1.777139   -1.273563
    114          1           0      -10.437132   -0.569098   -2.842960
    115          1           0       -9.668205    1.786239   -4.158548
    116          1           0      -11.429616    1.670063   -4.138739
    117          1           0      -10.515014    0.479682   -4.950208
    118          1           0      -12.658082    1.080774   -2.417003
    119          1           0      -11.640240    1.552909   -1.087877
    120          1           0      -11.814777   -0.200677    0.063418
    121          1           0      -11.782908   -1.409204   -1.207625
    122          1           0      -14.082488   -1.475153   -1.177966
    123          1           0      -14.266625    0.249101   -1.299560
    124          1           0      -13.701201   -1.350198    1.231857
    125          1           0      -15.742140   -1.653970    1.790270
    126          1           0      -16.041493   -1.375365    0.086261
    127          1           0      -16.458323   -0.193089    1.194016
    128          1           0      -14.890523    1.230486    1.736193
    129          1           0      -13.473719    1.611988    0.846427
    130          1           0      -11.955439    0.775609    2.182075
    131          1           0      -13.129577   -0.161788    3.193103
    132          1           0      -13.488853    1.417432    4.597176
    133          1           0      -13.830513    2.523894    3.332792
    134          1           0      -11.124639    2.146372    4.490552
    135          1           0      -12.989344    4.584988    4.195151
    136          1           0      -11.385177    4.573696    4.949933
    137          1           0      -12.586094    3.626346    5.640173
    138          1           0      -11.067854    4.223453    2.574953
    139          1           0      -11.470748    2.799557    1.693630
    140          1           0       -9.988441    2.846274    2.718335
 ---------------------------------------------------------------------

 SCF Done:  E(RB-LYP) =  -3007.37978148     A.U. after   21 cycles

 Excitation energies and oscillator strengths:

 Excited State   1:      Singlet-A      1.7848 eV  694.66 nm  f=0.2717  <S**2>=0.000
     245 -> 248        0.17330
     245 -> 249       -0.10815
     246 -> 247        0.68409
     246 <- 247       -0.14374
 This state for optimization and/or second-order correction.
 Total Energy, E(TD-HF/TD-DFT) =  -3007.31419104
 Copying the excited state density for this state as the 1-particle RhoCI density.

 Excited State   2:      Singlet-A      1.8846 eV  657.87 nm  f=0.0143  <S**2>=0.000
     244 -> 247        0.66791
     245 -> 247       -0.21117

 Excited State   3:      Singlet-A      1.9727 eV  628.51 nm  f=0.0041  <S**2>=0.000
     243 -> 247        0.68941
     245 -> 247        0.13264

 Excited State   4:      Singlet-A      1.9789 eV  626.52 nm  f=0.0903  <S**2>=0.000
     243 -> 247       -0.14957
     244 -> 247        0.21282
     245 -> 247        0.60789
     246 -> 248       -0.20237

 Excited State   5:      Singlet-A      2.2337 eV  555.07 nm  f=0.0000  <S**2>=0.000
     242 -> 247        0.70708

 The electronic state is 1-A.
 Alpha  occ. eigenvalues --  -46.27087 -18.83039 -18.82543 -18.77254 -18.77030
 Alpha  occ. eigenvalues --  -18.75438 -18.75282 -14.02883 -14.02695 -14.01215
 Alpha  occ. eigenvalues --  -14.00727 -10.04549 -10.04273 -10.00018  -9.99441
 Alpha  occ. eigenvalues --   -9.98922  -9.98010  -9.96546  -9.96462  -9.96203
 Alpha  occ. eigenvalues --   -9.96194  -9.95955  -9.95952  -9.95556  -9.94693
 Alpha  occ. eigenvalues --   -9.94382  -9.94167  -9.94151  -9.94131  -9.93692
 Alpha  occ. eigenvalues --   -9.93637  -9.93567  -9.93495  -9.93336  -9.93319
 Alpha  occ. eigenvalues --   -9.93299  -9.93136  -9.93127  -9.93097  -9.92929
 Alpha  occ. eigenvalues --   -9.92843  -9.92601  -9.92454  -9.92318  -9.92303
 Alpha  occ. eigenvalues --   -9.92111  -9.91958  -9.91953  -9.91928  -9.91820
 Alpha  occ. eigenvalues --   -9.91743  -9.91735  -9.91666  -9.91570  -9.91559
 Alpha  occ. eigenvalues --   -9.91414  -9.91219  -9.91177  -9.91120  -9.90929
 Alpha  occ. eigenvalues --   -9.90820  -9.90752  -9.90714  -9.90677  -9.90596
 Alpha  occ. eigenvalues --   -9.90466  -2.91666  -1.72096  -1.71578  -1.71359
 Alpha  occ. eigenvalues --   -0.98384  -0.97291  -0.90996  -0.90064  -0.89870
 Alpha  occ. eigenvalues --   -0.89533  -0.85823  -0.85171  -0.84722  -0.83743
 Alpha  occ. eigenvalues --   -0.75347  -0.74006  -0.73548  -0.73157  -0.72257
 Alpha  occ. eigenvalues --   -0.71847  -0.71225  -0.70963  -0.70196  -0.69937
 Alpha  occ. eigenvalues --   -0.69098  -0.68825  -0.68134  -0.67357  -0.67168
 Alpha  occ. eigenvalues --   -0.66689  -0.65584  -0.65235  -0.64777  -0.64459
 Alpha  occ. eigenvalues --   -0.64065  -0.62288  -0.62063  -0.61633  -0.61395
 Alpha  occ. eigenvalues --   -0.60865  -0.60642  -0.59571  -0.59498  -0.59254
 Alpha  occ. eigenvalues --   -0.58415  -0.57405  -0.56235  -0.55928  -0.54338
 Alpha  occ. eigenvalues --   -0.53649  -0.53439  -0.52734  -0.52373  -0.51506
 Alpha  occ. eigenvalues --   -0.51213  -0.51031  -0.50463  -0.50183  -0.49830
 Alpha  occ. eigenvalues --   -0.49507  -0.49258  -0.48702  -0.48289  -0.46542
 Alpha  occ. eigenvalues --   -0.46180  -0.45664  -0.45416  -0.45135  -0.44769
 Alpha  occ. eigenvalues --   -0.44009  -0.43721  -0.43039  -0.42796  -0.42565
 Alpha  occ. eigenvalues --   -0.42436  -0.42341  -0.41526  -0.41351  -0.41211
 Alpha  occ. eigenvalues --   -0.40936  -0.40648  -0.40522  -0.40054  -0.39974
 Alpha  occ. eigenvalues --   -0.39914  -0.39533  -0.39413  -0.39254  -0.39038
 Alpha  occ. eigenvalues --   -0.38911  -0.38733  -0.38253  -0.38001  -0.37822
 Alpha  occ. eigenvalues --   -0.37582  -0.37491  -0.37240  -0.37219  -0.37151
 Alpha  occ. eigenvalues --   -0.36919  -0.36665  -0.36590  -0.36479  -0.36316
 Alpha  occ. eigenvalues --   -0.36280  -0.35906  -0.35652  -0.35495  -0.35322
 Alpha  occ. eigenvalues --   -0.35186  -0.34918  -0.34832  -0.34732  -0.34650
 Alpha  occ. eigenvalues --   -0.34472  -0.34168  -0.33898  -0.33788  -0.33782
 Alpha  occ. eigenvalues --   -0.33557  -0.33503  -0.33313  -0.33044  -0.32878
 Alpha  occ. eigenvalues --   -0.32777  -0.32726  -0.32444  -0.32370  -0.32358
 Alpha  occ. eigenvalues --   -0.32123  -0.31907  -0.31764  -0.31503  -0.31398
 Alpha  occ. eigenvalues --   -0.31164  -0.31022  -0.30891  -0.30867  -0.30619
 Alpha  occ. eigenvalues --   -0.30562  -0.30409  -0.30234  -0.30075  -0.29845
 Alpha  occ. eigenvalues --   -0.29786  -0.29662  -0.29546  -0.29351  -0.29094
 Alpha  occ. eigenvalues --   -0.28979  -0.28826  -0.28751  -0.28237  -0.27583
 Alpha  occ. eigenvalues --   -0.27503  -0.27273  -0.27228  -0.26678  -0.26276
 Alpha  occ. eigenvalues --   -0.25942  -0.25749  -0.25636  -0.25529  -0.25452
 Alpha  occ. eigenvalues --   -0.25392  -0.25156  -0.24939  -0.24461  -0.23488
 Alpha  occ. eigenvalues --   -0.22963  -0.22273  -0.22003  -0.21958  -0.21124
 Alpha  occ. eigenvalues --   -0.20040  -0.19598  -0.18527  -0.18258  -0.16732
 Alpha  occ. eigenvalues --   -0.15671
 Alpha virt. eigenvalues --   -0.11390  -0.06776  -0.05942  -0.04657  -0.02897
 Alpha virt. eigenvalues --   -0.02775  -0.01977  -0.01371  -0.01134  -0.00017
 Alpha virt. eigenvalues --    0.01016   0.01285   0.01425   0.02333   0.02616

 Mulliken charges:
               1
     1  Mg   0.700852
     2  C    0.016257
     3  C   -0.026757
     4  C   -0.018368
     5  C   -0.063368
     6  N   -0.203644
     7  C   -0.105810
     8  C   -0.028761
     9  C    0.028448
    10  C   -0.008957
    11  C    0.168932
    12  C    0.168942
    13  C    0.133684
    14  C    0.041704
    15  O   -0.178161
    16  O   -0.284118
    17  N   -0.339387
    18  C    0.104806
    19  C   -0.146280
    20  C    0.040382
    21  C    0.092062
    22  C    0.178043
    23  C   -0.069765
    24  O   -0.175941
    25  C    0.138445
    26  N   -0.183909
    27  C   -0.028385
    28  C    0.016374
    29  C    0.013158
    30  C    0.039859
    31  C    0.133751
    32  C    0.068057
    33  C    0.064169
    34  N   -0.300930
    35  C    0.125717
    36  C   -0.218162
    37  C    0.120825
    38  C    0.096354
    39  C    0.172187
    40  C   -0.066151
    41  O   -0.164414
    42  C    0.135620
    43  C    0.117355
    44  O   -0.192172
    45  O   -0.265784
    46  C    0.214696
    47  C    0.329002
    48  C   -0.122766
    49  C   -0.154267
    50  C    0.139766
    51  C    0.148716
    52  C    0.047845
    53  C    0.099746
    54  C   -0.068740
    55  C    0.093273
    56  C    0.074460
    57  C    0.061241
    58  C    0.128206
    59  C   -0.060080
    60  C    0.081377
    61  C    0.123567
    62  C    0.058848
    63  C    0.116532
    64  C   -0.080582
    65  C    0.102054
    66  C    0.112780
    67  H   -0.081807
    68  H   -0.042120
    69  H   -0.076356
    70  H   -0.005304
    71  H   -0.027058
    72  H   -0.003184
    73  H   -0.002805
    74  H   -0.000072
    75  H   -0.039562
    76  H   -0.017648
    77  H    0.009204
    78  H    0.020276
    79  H    0.009981
    80  H   -0.011754
    81  H    0.003161
    82  H    0.004095
    83  H    0.008426
    84  H   -0.008655
    85  H   -0.014406
    86  H   -0.022621
    87  H   -0.014091
    88  H   -0.012434
    89  H    0.003607
    90  H   -0.011292
    91  H   -0.012720
    92  H    0.011718
    93  H   -0.012226
    94  H   -0.012441
    95  H   -0.013819
    96  H    0.001141
    97  H    0.014135
    98  H   -0.000088
    99  H    0.033928
   100  H    0.004460
   101  H    0.009108
   102  H   -0.019870
   103  H    0.015019
   104  H   -0.041985
   105  H   -0.003806
   106  H   -0.023683
   107  H    0.000461
   108  H    0.000184
   109  H   -0.009595
   110  H   -0.026604
   111  H   -0.034680
   112  H   -0.036090
   113  H   -0.024185
   114  H   -0.036901
   115  H   -0.027057
   116  H   -0.029225
   117  H   -0.009061
   118  H   -0.023265
   119  H   -0.032073
   120  H   -0.022437
   121  H   -0.023097
   122  H   -0.044228
   123  H   -0.032801
   124  H   -0.036257
   125  H   -0.017656
   126  H   -0.037031
   127  H   -0.018518
   128  H   -0.037902
   129  H   -0.042816
   130  H   -0.022260
   131  H   -0.040060
   132  H   -0.034325
   133  H   -0.053122
   134  H   -0.039536
   135  H   -0.009121
   136  H   -0.027767
   137  H   -0.030251
   138  H   -0.028416
   139  H   -0.012941
   140  H   -0.010243
 Sum of Mulliken charges =  -0.00000

 Dipole moment (field-independent basis, Debye):
    X=             -4.1886    Y=              1.9506    Z=              0.3476  Tot=              4.6336
 Quadrupole moment (field-independent basis, Debye-Ang):
   XX=           -379.3324   YY=           -427.5481   ZZ=           -401.8182
   XY=              2.7215   XZ=             13.7732   YZ=              3.8234

 Normal termination of Gaussian 16 at Wed May  4 04:24:25 2022.
