 Gaussian 16, Revision A.03,
 Gaussian 16:  ES64L-G16RevA.03 25-Dec-2016

 -----------------------------------
 #p cam-b3lyp/Def2SVP td=(nstates=5)
 -----------------------------------

 -------------------------------------------------------
 step_1301_chromophore_7 TDDFT with cam-b3lyp functional
 -------------------------------------------------------
 Symbolic Z-matrix:
 Charge =  0 Multiplicity = 1

                         Standard orientation:
 ---------------------------------------------------------------------
 Center     Atomic      Atomic             Coordinates (Angstroms)
 Number     Number       Type             X           Y           Z
 ---------------------------------------------------------------------
      1         12           0        6.074670    0.531310    0.134997
      2          6           0        3.586925   -2.091733    0.176288
      3          6           0        3.652500    2.544037   -0.973933
      4          6           0        8.421280    2.945721    0.307837
      5          6           0        8.563881   -1.896663    0.878446
      6          7           0        3.880734    0.165441   -0.481008
      7          6           0        3.033654   -0.895773   -0.135553
      8          6           0        1.520408   -0.598716   -0.489652
      9          6           0        1.626591    0.852377   -1.189618
     10          6           0        3.121945    1.220645   -0.865264
     11          6           0        1.307936    0.892150   -2.688960
     12          6           0        0.552921   -0.824615    0.723637
     13          6           0       -0.607377   -1.730384    0.584112
     14          6           0       -1.576783   -1.464013   -0.573465
     15          8           0       -1.478629   -0.665398   -1.471731
     16          8           0       -2.721157   -2.217964   -0.464434
     17          7           0        6.038932    2.479090   -0.216555
     18          6           0        4.971131    3.176641   -0.761741
     19          6           0        5.357918    4.505099   -1.018198
     20          6           0        6.658275    4.681431   -0.595445
     21          6           0        7.091244    3.350194   -0.103924
     22          6           0        4.442251    5.590980   -1.673319
     23          6           0        7.656369    5.843219   -0.800451
     24          8           0        8.805463    5.897419   -0.352080
     25          6           0        7.244561    7.128932   -1.464428
     26          7           0        8.291349    0.507964    0.405797
     27          6           0        8.979771    1.646872    0.572897
     28          6           0       10.412235    1.429996    1.117338
     29          6           0       10.480301   -0.131947    1.185039
     30          6           0        9.068359   -0.581483    0.706480
     31          6           0       11.498222    2.134240    0.321053
     32          6           0       10.858250   -0.606156    2.658784
     33          6           0       11.452354   -2.028834    2.599412
     34          7           0        6.105218   -1.525460    0.511707
     35          6           0        7.223791   -2.387909    0.746837
     36          6           0        6.649536   -3.690266    1.112545
     37          6           0        5.294362   -3.628304    0.844702
     38          6           0        5.002118   -2.313708    0.429724
     39          6           0        7.451562   -4.906936    1.529118
     40          6           0        4.053427   -4.404283    0.826380
     41          8           0        3.914707   -5.634011    1.031100
     42          6           0        2.964662   -3.485618    0.421448
     43          6           0        2.409915   -4.052701   -0.819355
     44          8           0        2.832211   -3.696325   -1.924844
     45          8           0        1.394660   -4.957336   -0.570057
     46          6           0        0.627786   -5.364007   -1.779955
     47          6           0       -3.808064   -2.015254   -1.478735
     48          6           0       -5.041685   -1.274094   -0.913460
     49          6           0       -6.390051   -1.311333   -1.142499
     50          6           0       -6.958910   -2.121731   -2.291302
     51          6           0       -7.276310   -0.286388   -0.505040
     52          6           0       -8.786140   -0.282492   -0.829380
     53          6           0       -9.198689    0.838544   -1.826724
     54          6           0      -10.456853    0.493756   -2.603154
     55          6           0      -10.505789    1.097305   -4.052191
     56          6           0      -11.834072    0.741755   -1.790395
     57          6           0      -12.229308   -0.460436   -0.911220
     58          6           0      -13.760591   -0.532904   -0.733410
     59          6           0      -14.178809   -0.490084    0.760849
     60          6           0      -15.661961   -0.911171    0.996151
     61          6           0      -13.918996    0.824170    1.454938
     62          6           0      -12.947313    0.756429    2.633847
     63          6           0      -13.058027    1.841732    3.690633
     64          6           0      -11.829128    2.714398    3.881676
     65          6           0      -12.233755    3.952829    4.661543
     66          6           0      -11.035365    3.136358    2.634451
     67          1           0        2.972047    3.294959   -1.379512
     68          1           0        9.171535    3.713400    0.508975
     69          1           0        9.279432   -2.637409    1.239635
     70          1           0        1.284614   -1.377290   -1.214704
     71          1           0        1.052524    1.560440   -0.592502
     72          1           0        2.130428    1.231653   -3.318352
     73          1           0        0.442861    1.550919   -2.755499
     74          1           0        1.007916   -0.104839   -3.013225
     75          1           0        0.243634    0.207861    0.885739
     76          1           0        1.146102   -1.069189    1.605639
     77          1           0       -1.320792   -1.526393    1.381724
     78          1           0       -0.355805   -2.783732    0.461498
     79          1           0        4.316675    6.396008   -0.949085
     80          1           0        3.479370    5.172963   -1.967607
     81          1           0        4.955871    5.936829   -2.570948
     82          1           0        6.476537    7.496077   -0.784150
     83          1           0        6.900196    6.993797   -2.489262
     84          1           0        8.070655    7.838082   -1.437484
     85          1           0       10.520978    1.802557    2.136064
     86          1           0       11.252160   -0.522288    0.522796
     87          1           0       12.101543    1.411371   -0.228799
     88          1           0       12.105937    2.722470    1.009320
     89          1           0       11.062574    2.845352   -0.380415
     90          1           0        9.974138   -0.683568    3.290993
     91          1           0       11.544611    0.122900    3.089212
     92          1           0       10.642125   -2.685796    2.914468
     93          1           0       12.426725   -2.069112    3.085182
     94          1           0       11.770705   -2.408599    1.628329
     95          1           0        8.199657   -4.618756    2.268772
     96          1           0        8.059812   -5.273051    0.702926
     97          1           0        6.740461   -5.664573    1.857238
     98          1           0        2.190097   -3.442360    1.187348
     99          1           0        1.206852   -5.528191   -2.689602
    100          1           0       -0.204457   -4.712516   -2.046099
    101          1           0        0.046320   -6.235025   -1.477734
    102          1           0       -4.139657   -3.038715   -1.654672
    103          1           0       -3.654480   -1.740298   -2.522136
    104          1           0       -4.698532   -0.475283   -0.255628
    105          1           0       -7.643574   -2.915318   -1.993028
    106          1           0       -6.196325   -2.625292   -2.884826
    107          1           0       -7.571303   -1.480096   -2.924115
    108          1           0       -6.809075    0.621769   -0.885530
    109          1           0       -7.185322   -0.433443    0.570855
    110          1           0       -9.439838   -0.099111    0.023068
    111          1           0       -9.056440   -1.284859   -1.161115
    112          1           0       -8.410549    0.952949   -2.571546
    113          1           0       -9.212270    1.777139   -1.273563
    114          1           0      -10.437132   -0.569098   -2.842960
    115          1           0       -9.668205    1.786239   -4.158548
    116          1           0      -11.429616    1.670063   -4.138739
    117          1           0      -10.515014    0.479682   -4.950208
    118          1           0      -12.658082    1.080774   -2.417003
    119          1           0      -11.640240    1.552909   -1.087877
    120          1           0      -11.814777   -0.200677    0.063418
    121          1           0      -11.782908   -1.409204   -1.207625
    122          1           0      -14.082488   -1.475153   -1.177966
    123          1           0      -14.266625    0.249101   -1.299560
    124          1           0      -13.701201   -1.350198    1.231857
    125          1           0      -15.742140   -1.653970    1.790270
    126          1           0      -16.041493   -1.375365    0.086261
    127          1           0      -16.458323   -0.193089    1.194016
    128          1           0      -14.890523    1.230486    1.736193
    129          1           0      -13.473719    1.611988    0.846427
    130          1           0      -11.955439    0.775609    2.182075
    131          1           0      -13.129577   -0.161788    3.193103
    132          1           0      -13.488853    1.417432    4.597176
    133          1           0      -13.830513    2.523894    3.332792
    134          1           0      -11.124639    2.146372    4.490552
    135          1           0      -12.989344    4.584988    4.195151
    136          1           0      -11.385177    4.573696    4.949933
    137          1           0      -12.586094    3.626346    5.640173
    138          1           0      -11.067854    4.223453    2.574953
    139          1           0      -11.470748    2.799557    1.693630
    140          1           0       -9.988441    2.846274    2.718335
 ---------------------------------------------------------------------

 SCF Done:  E(RCAM-B3LYP) =  -3007.16529271     A.U. after   19 cycles

 Excitation energies and oscillator strengths:

 Excited State   1:      Singlet-A      1.6803 eV  737.86 nm  f=0.3526  <S**2>=0.000
     245 -> 248       -0.18186
     246 -> 247        0.68398
     245 <- 248       -0.10686
 This state for optimization and/or second-order correction.
 Total Energy, E(TD-HF/TD-DFT) =  -3007.10354224
 Copying the excited state density for this state as the 1-particle RhoCI density.

 Excited State   2:      Singlet-A      2.1610 eV  573.73 nm  f=0.1574  <S**2>=0.000
     245 -> 247        0.65312
     246 -> 248        0.25709

 Excited State   3:      Singlet-A      3.3769 eV  367.15 nm  f=0.0023  <S**2>=0.000
     242 -> 247       -0.11128
     243 -> 247        0.67560

 Excited State   4:      Singlet-A      3.5122 eV  353.01 nm  f=0.2508  <S**2>=0.000
     239 -> 247       -0.10511
     240 -> 247       -0.12609
     241 -> 247        0.28021
     241 -> 248       -0.11997
     241 -> 249        0.13797
     241 -> 250        0.16784
     242 -> 247       -0.31368
     245 -> 247       -0.15327
     246 -> 248        0.42311

 Excited State   5:      Singlet-A      3.5662 eV  347.66 nm  f=0.2255  <S**2>=0.000
     240 -> 249       -0.17765
     241 -> 247        0.45096
     241 -> 248       -0.10372
     241 -> 250        0.21591
     242 -> 247        0.11640
     245 -> 247        0.13793
     246 -> 248       -0.35108

 The electronic state is 1-A.
 Alpha  occ. eigenvalues --  -46.88599 -19.25939 -19.25429 -19.20254 -19.20036
 Alpha  occ. eigenvalues --  -19.18869 -19.18393 -14.41849 -14.41452 -14.39787
 Alpha  occ. eigenvalues --  -14.39059 -10.39793 -10.39674 -10.35445 -10.34675
 Alpha  occ. eigenvalues --  -10.33028 -10.31998 -10.31196 -10.30831 -10.30781
 Alpha  occ. eigenvalues --  -10.30713 -10.30585 -10.30336 -10.29562 -10.28666
 Alpha  occ. eigenvalues --  -10.28568 -10.28407 -10.28326 -10.28275 -10.28224
 Alpha  occ. eigenvalues --  -10.27671 -10.27605 -10.27527 -10.27446 -10.27436
 Alpha  occ. eigenvalues --  -10.27427 -10.27387 -10.27318 -10.27243 -10.27216
 Alpha  occ. eigenvalues --  -10.26628 -10.26614 -10.26265 -10.26248 -10.26124
 Alpha  occ. eigenvalues --  -10.25977 -10.25862 -10.25685 -10.25654 -10.25564
 Alpha  occ. eigenvalues --  -10.25497 -10.25347 -10.25332 -10.25297 -10.25250
 Alpha  occ. eigenvalues --  -10.25050 -10.24887 -10.24846 -10.24697 -10.24561
 Alpha  occ. eigenvalues --  -10.24448 -10.24381 -10.24337 -10.24321 -10.24258
 Alpha  occ. eigenvalues --  -10.24204  -3.17084  -1.91991  -1.91546  -1.91388
 Alpha  occ. eigenvalues --   -1.16877  -1.15730  -1.09591  -1.07952  -1.07882
 Alpha  occ. eigenvalues --   -1.07548  -1.03589  -1.02859  -1.02278  -1.01119
 Alpha  occ. eigenvalues --   -0.92382  -0.90894  -0.90378  -0.89927  -0.88962
 Alpha  occ. eigenvalues --   -0.88487  -0.87824  -0.87774  -0.86908  -0.86450
 Alpha  occ. eigenvalues --   -0.85418  -0.85227  -0.84390  -0.83486  -0.83307
 Alpha  occ. eigenvalues --   -0.82751  -0.81563  -0.81338  -0.80774  -0.80201
 Alpha  occ. eigenvalues --   -0.79919  -0.77878  -0.77832  -0.77093  -0.76817
 Alpha  occ. eigenvalues --   -0.76271  -0.76014  -0.74856  -0.74766  -0.74518
 Alpha  occ. eigenvalues --   -0.73471  -0.72389  -0.71081  -0.70724  -0.68892
 Alpha  occ. eigenvalues --   -0.68296  -0.68011  -0.67090  -0.66830  -0.65747
 Alpha  occ. eigenvalues --   -0.65311  -0.65205  -0.64322  -0.64233  -0.63896
 Alpha  occ. eigenvalues --   -0.63460  -0.62865  -0.62547  -0.61896  -0.60011
 Alpha  occ. eigenvalues --   -0.59886  -0.59276  -0.59070  -0.58694  -0.58100
 Alpha  occ. eigenvalues --   -0.57233  -0.57037  -0.56092  -0.55929  -0.55738
 Alpha  occ. eigenvalues --   -0.55545  -0.55341  -0.54761  -0.54379  -0.54114
 Alpha  occ. eigenvalues --   -0.53859  -0.53712  -0.53121  -0.53019  -0.52628
 Alpha  occ. eigenvalues --   -0.52387  -0.52138  -0.52045  -0.51947  -0.51777
 Alpha  occ. eigenvalues --   -0.51393  -0.51124  -0.50859  -0.50438  -0.50262
 Alpha  occ. eigenvalues --   -0.50098  -0.49961  -0.49516  -0.49417  -0.49331
 Alpha  occ. eigenvalues --   -0.49230  -0.49029  -0.48986  -0.48709  -0.48663
 Alpha  occ. eigenvalues --   -0.48391  -0.48280  -0.47916  -0.47768  -0.47518
 Alpha  occ. eigenvalues --   -0.47369  -0.47228  -0.46904  -0.46477  -0.46415
 Alpha  occ. eigenvalues --   -0.46277  -0.45884  -0.45758  -0.45547  -0.45487
 Alpha  occ. eigenvalues --   -0.45285  -0.45128  -0.45115  -0.44961  -0.44606
 Alpha  occ. eigenvalues --   -0.44467  -0.44365  -0.44308  -0.43863  -0.43806
 Alpha  occ. eigenvalues --   -0.43732  -0.43648  -0.43493  -0.43208  -0.43104
 Alpha  occ. eigenvalues --   -0.42788  -0.42728  -0.42333  -0.42214  -0.42177
 Alpha  occ. eigenvalues --   -0.41855  -0.41757  -0.41703  -0.41617  -0.41323
 Alpha  occ. eigenvalues --   -0.41010  -0.40903  -0.40766  -0.40571  -0.40152
 Alpha  occ. eigenvalues --   -0.40041  -0.39967  -0.39755  -0.39182  -0.38592
 Alpha  occ. eigenvalues --   -0.38416  -0.38086  -0.38004  -0.37851  -0.37274
 Alpha  occ. eigenvalues --   -0.36919  -0.36879  -0.36552  -0.36399  -0.36204
 Alpha  occ. eigenvalues --   -0.36041  -0.35957  -0.35439  -0.34856  -0.34570
 Alpha  occ. eigenvalues --   -0.34282  -0.33935  -0.32303  -0.31603  -0.30818
 Alpha  occ. eigenvalues --   -0.30743  -0.30414  -0.29201  -0.29172  -0.23356
 Alpha  occ. eigenvalues --   -0.21038
 Alpha virt. eigenvalues --   -0.08571  -0.01467   0.00597   0.02243   0.03719
 Alpha virt. eigenvalues --    0.04752   0.05044   0.05700   0.06069   0.06690
 Alpha virt. eigenvalues --    0.07021   0.07526   0.08354   0.08840   0.08986

 Mulliken charges:
               1
     1  Mg   0.832713
     2  C   -0.005865
     3  C   -0.047403
     4  C   -0.037894
     5  C   -0.075666
     6  N   -0.271606
     7  C   -0.063569
     8  C   -0.072302
     9  C   -0.019231
    10  C    0.013670
    11  C    0.107534
    12  C    0.112866
    13  C    0.060891
    14  C    0.124276
    15  O   -0.218721
    16  O   -0.348391
    17  N   -0.430969
    18  C    0.118105
    19  C   -0.157555
    20  C   -0.023353
    21  C    0.116091
    22  C    0.128309
    23  C    0.008259
    24  O   -0.215016
    25  C    0.057425
    26  N   -0.252070
    27  C   -0.005806
    28  C   -0.036910
    29  C   -0.037841
    30  C    0.061162
    31  C    0.072012
    32  C    0.014810
    33  C   -0.003041
    34  N   -0.384790
    35  C    0.126631
    36  C   -0.206817
    37  C    0.030520
    38  C    0.134810
    39  C    0.119787
    40  C    0.033808
    41  O   -0.202682
    42  C    0.053475
    43  C    0.204327
    44  O   -0.228764
    45  O   -0.329752
    46  C    0.176507
    47  C    0.298106
    48  C   -0.144128
    49  C   -0.168945
    50  C    0.074916
    51  C    0.086700
    52  C   -0.004972
    53  C    0.047645
    54  C   -0.126416
    55  C    0.038159
    56  C    0.029448
    57  C    0.008693
    58  C    0.076404
    59  C   -0.122389
    60  C    0.025964
    61  C    0.069837
    62  C    0.003959
    63  C    0.065567
    64  C   -0.141243
    65  C    0.038220
    66  C    0.052311
    67  H   -0.049634
    68  H   -0.001414
    69  H   -0.040107
    70  H    0.025034
    71  H    0.007414
    72  H    0.022813
    73  H    0.021485
    74  H    0.025582
    75  H   -0.007411
    76  H    0.015428
    77  H    0.043531
    78  H    0.047932
    79  H    0.035893
    80  H    0.016736
    81  H    0.027915
    82  H    0.029635
    83  H    0.035405
    84  H    0.028098
    85  H    0.020218
    86  H    0.010600
    87  H    0.011528
    88  H    0.012745
    89  H    0.028840
    90  H    0.018333
    91  H    0.014404
    92  H    0.031349
    93  H    0.014502
    94  H    0.010842
    95  H    0.008099
    96  H    0.026962
    97  H    0.041265
    98  H    0.041799
    99  H    0.059317
   100  H    0.023021
   101  H    0.033567
   102  H    0.008834
   103  H    0.045444
   104  H   -0.011121
   105  H    0.021257
   106  H    0.001452
   107  H    0.021973
   108  H    0.028660
   109  H    0.021288
   110  H    0.001556
   111  H   -0.007165
   112  H   -0.009061
   113  H    0.004438
   114  H   -0.005315
   115  H   -0.002555
   116  H   -0.004993
   117  H    0.015158
   118  H    0.004135
   119  H   -0.007949
   120  H   -0.001639
   121  H    0.004717
   122  H   -0.013084
   123  H   -0.004799
   124  H   -0.002702
   125  H    0.006694
   126  H   -0.011379
   127  H    0.005528
   128  H   -0.007887
   129  H   -0.016934
   130  H    0.002674
   131  H   -0.010386
   132  H   -0.003810
   133  H   -0.024443
   134  H   -0.007334
   135  H    0.014751
   136  H   -0.000803
   137  H   -0.004687
   138  H   -0.001486
   139  H    0.005007
   140  H    0.014433
 Sum of Mulliken charges =  -0.00000

 Dipole moment (field-independent basis, Debye):
    X=             -4.2379    Y=              2.8136    Z=              0.1713  Tot=              5.0897
 Quadrupole moment (field-independent basis, Debye-Ang):
   XX=           -375.6239   YY=           -423.1459   ZZ=           -401.2288
   XY=              7.4897   XZ=             13.8757   YZ=              2.9597

 Normal termination of Gaussian 16 at Wed May  4 03:28:34 2022.
