 Gaussian 16, Revision A.03,
 Gaussian 16:  ES64L-G16RevA.03 25-Dec-2016

 ---------------------------------
 #p PBE1PBE/Def2SVP td=(nstates=5)
 ---------------------------------

 -----------------------------------------------------
 step_1301_chromophore_7 TDDFT with PBE1PBE functional
 -----------------------------------------------------
 Symbolic Z-matrix:
 Charge =  0 Multiplicity = 1

                         Standard orientation:
 ---------------------------------------------------------------------
 Center     Atomic      Atomic             Coordinates (Angstroms)
 Number     Number       Type             X           Y           Z
 ---------------------------------------------------------------------
      1         12           0        6.074670    0.531310    0.134997
      2          6           0        3.586925   -2.091733    0.176288
      3          6           0        3.652500    2.544037   -0.973933
      4          6           0        8.421280    2.945721    0.307837
      5          6           0        8.563881   -1.896663    0.878446
      6          7           0        3.880734    0.165441   -0.481008
      7          6           0        3.033654   -0.895773   -0.135553
      8          6           0        1.520408   -0.598716   -0.489652
      9          6           0        1.626591    0.852377   -1.189618
     10          6           0        3.121945    1.220645   -0.865264
     11          6           0        1.307936    0.892150   -2.688960
     12          6           0        0.552921   -0.824615    0.723637
     13          6           0       -0.607377   -1.730384    0.584112
     14          6           0       -1.576783   -1.464013   -0.573465
     15          8           0       -1.478629   -0.665398   -1.471731
     16          8           0       -2.721157   -2.217964   -0.464434
     17          7           0        6.038932    2.479090   -0.216555
     18          6           0        4.971131    3.176641   -0.761741
     19          6           0        5.357918    4.505099   -1.018198
     20          6           0        6.658275    4.681431   -0.595445
     21          6           0        7.091244    3.350194   -0.103924
     22          6           0        4.442251    5.590980   -1.673319
     23          6           0        7.656369    5.843219   -0.800451
     24          8           0        8.805463    5.897419   -0.352080
     25          6           0        7.244561    7.128932   -1.464428
     26          7           0        8.291349    0.507964    0.405797
     27          6           0        8.979771    1.646872    0.572897
     28          6           0       10.412235    1.429996    1.117338
     29          6           0       10.480301   -0.131947    1.185039
     30          6           0        9.068359   -0.581483    0.706480
     31          6           0       11.498222    2.134240    0.321053
     32          6           0       10.858250   -0.606156    2.658784
     33          6           0       11.452354   -2.028834    2.599412
     34          7           0        6.105218   -1.525460    0.511707
     35          6           0        7.223791   -2.387909    0.746837
     36          6           0        6.649536   -3.690266    1.112545
     37          6           0        5.294362   -3.628304    0.844702
     38          6           0        5.002118   -2.313708    0.429724
     39          6           0        7.451562   -4.906936    1.529118
     40          6           0        4.053427   -4.404283    0.826380
     41          8           0        3.914707   -5.634011    1.031100
     42          6           0        2.964662   -3.485618    0.421448
     43          6           0        2.409915   -4.052701   -0.819355
     44          8           0        2.832211   -3.696325   -1.924844
     45          8           0        1.394660   -4.957336   -0.570057
     46          6           0        0.627786   -5.364007   -1.779955
     47          6           0       -3.808064   -2.015254   -1.478735
     48          6           0       -5.041685   -1.274094   -0.913460
     49          6           0       -6.390051   -1.311333   -1.142499
     50          6           0       -6.958910   -2.121731   -2.291302
     51          6           0       -7.276310   -0.286388   -0.505040
     52          6           0       -8.786140   -0.282492   -0.829380
     53          6           0       -9.198689    0.838544   -1.826724
     54          6           0      -10.456853    0.493756   -2.603154
     55          6           0      -10.505789    1.097305   -4.052191
     56          6           0      -11.834072    0.741755   -1.790395
     57          6           0      -12.229308   -0.460436   -0.911220
     58          6           0      -13.760591   -0.532904   -0.733410
     59          6           0      -14.178809   -0.490084    0.760849
     60          6           0      -15.661961   -0.911171    0.996151
     61          6           0      -13.918996    0.824170    1.454938
     62          6           0      -12.947313    0.756429    2.633847
     63          6           0      -13.058027    1.841732    3.690633
     64          6           0      -11.829128    2.714398    3.881676
     65          6           0      -12.233755    3.952829    4.661543
     66          6           0      -11.035365    3.136358    2.634451
     67          1           0        2.972047    3.294959   -1.379512
     68          1           0        9.171535    3.713400    0.508975
     69          1           0        9.279432   -2.637409    1.239635
     70          1           0        1.284614   -1.377290   -1.214704
     71          1           0        1.052524    1.560440   -0.592502
     72          1           0        2.130428    1.231653   -3.318352
     73          1           0        0.442861    1.550919   -2.755499
     74          1           0        1.007916   -0.104839   -3.013225
     75          1           0        0.243634    0.207861    0.885739
     76          1           0        1.146102   -1.069189    1.605639
     77          1           0       -1.320792   -1.526393    1.381724
     78          1           0       -0.355805   -2.783732    0.461498
     79          1           0        4.316675    6.396008   -0.949085
     80          1           0        3.479370    5.172963   -1.967607
     81          1           0        4.955871    5.936829   -2.570948
     82          1           0        6.476537    7.496077   -0.784150
     83          1           0        6.900196    6.993797   -2.489262
     84          1           0        8.070655    7.838082   -1.437484
     85          1           0       10.520978    1.802557    2.136064
     86          1           0       11.252160   -0.522288    0.522796
     87          1           0       12.101543    1.411371   -0.228799
     88          1           0       12.105937    2.722470    1.009320
     89          1           0       11.062574    2.845352   -0.380415
     90          1           0        9.974138   -0.683568    3.290993
     91          1           0       11.544611    0.122900    3.089212
     92          1           0       10.642125   -2.685796    2.914468
     93          1           0       12.426725   -2.069112    3.085182
     94          1           0       11.770705   -2.408599    1.628329
     95          1           0        8.199657   -4.618756    2.268772
     96          1           0        8.059812   -5.273051    0.702926
     97          1           0        6.740461   -5.664573    1.857238
     98          1           0        2.190097   -3.442360    1.187348
     99          1           0        1.206852   -5.528191   -2.689602
    100          1           0       -0.204457   -4.712516   -2.046099
    101          1           0        0.046320   -6.235025   -1.477734
    102          1           0       -4.139657   -3.038715   -1.654672
    103          1           0       -3.654480   -1.740298   -2.522136
    104          1           0       -4.698532   -0.475283   -0.255628
    105          1           0       -7.643574   -2.915318   -1.993028
    106          1           0       -6.196325   -2.625292   -2.884826
    107          1           0       -7.571303   -1.480096   -2.924115
    108          1           0       -6.809075    0.621769   -0.885530
    109          1           0       -7.185322   -0.433443    0.570855
    110          1           0       -9.439838   -0.099111    0.023068
    111          1           0       -9.056440   -1.284859   -1.161115
    112          1           0       -8.410549    0.952949   -2.571546
    113          1           0       -9.212270    1.777139   -1.273563
    114          1           0      -10.437132   -0.569098   -2.842960
    115          1           0       -9.668205    1.786239   -4.158548
    116          1           0      -11.429616    1.670063   -4.138739
    117          1           0      -10.515014    0.479682   -4.950208
    118          1           0      -12.658082    1.080774   -2.417003
    119          1           0      -11.640240    1.552909   -1.087877
    120          1           0      -11.814777   -0.200677    0.063418
    121          1           0      -11.782908   -1.409204   -1.207625
    122          1           0      -14.082488   -1.475153   -1.177966
    123          1           0      -14.266625    0.249101   -1.299560
    124          1           0      -13.701201   -1.350198    1.231857
    125          1           0      -15.742140   -1.653970    1.790270
    126          1           0      -16.041493   -1.375365    0.086261
    127          1           0      -16.458323   -0.193089    1.194016
    128          1           0      -14.890523    1.230486    1.736193
    129          1           0      -13.473719    1.611988    0.846427
    130          1           0      -11.955439    0.775609    2.182075
    131          1           0      -13.129577   -0.161788    3.193103
    132          1           0      -13.488853    1.417432    4.597176
    133          1           0      -13.830513    2.523894    3.332792
    134          1           0      -11.124639    2.146372    4.490552
    135          1           0      -12.989344    4.584988    4.195151
    136          1           0      -11.385177    4.573696    4.949933
    137          1           0      -12.586094    3.626346    5.640173
    138          1           0      -11.067854    4.223453    2.574953
    139          1           0      -11.470748    2.799557    1.693630
    140          1           0       -9.988441    2.846274    2.718335
 ---------------------------------------------------------------------

 SCF Done:  E(RPBE1PBE) =  -3005.35321789     A.U. after   15 cycles

 Excitation energies and oscillator strengths:

 Excited State   1:      Singlet-A      1.8371 eV  674.90 nm  f=0.3410  <S**2>=0.000
     245 -> 248       -0.17069
     246 -> 247        0.69073
     246 <- 247       -0.10275
 This state for optimization and/or second-order correction.
 Total Energy, E(TD-HF/TD-DFT) =  -3005.28570712
 Copying the excited state density for this state as the 1-particle RhoCI density.

 Excited State   2:      Singlet-A      2.1750 eV  570.05 nm  f=0.1467  <S**2>=0.000
     245 -> 247        0.66092
     246 -> 248        0.23431

 Excited State   3:      Singlet-A      2.9989 eV  413.43 nm  f=0.0047  <S**2>=0.000
     241 -> 247        0.13559
     242 -> 247        0.11344
     243 -> 247        0.66679

 Excited State   4:      Singlet-A      3.0122 eV  411.60 nm  f=0.0000  <S**2>=0.000
     242 -> 247        0.66281
     242 -> 248       -0.11684
     242 -> 250        0.13974
     243 -> 247       -0.10886

 Excited State   5:      Singlet-A      3.0965 eV  400.40 nm  f=0.0014  <S**2>=0.000
     241 -> 247        0.64871
     241 -> 249       -0.17428
     243 -> 247       -0.16456

 The electronic state is 1-A.
 Alpha  occ. eigenvalues --  -46.92024 -19.26617 -19.26143 -19.20498 -19.20323
 Alpha  occ. eigenvalues --  -19.18960 -19.18737 -14.41288 -14.41052 -14.39390
 Alpha  occ. eigenvalues --  -14.38833 -10.36829 -10.36732 -10.32469 -10.31914
 Alpha  occ. eigenvalues --  -10.30484 -10.29250 -10.28832 -10.28614 -10.28437
 Alpha  occ. eigenvalues --  -10.28424 -10.28180 -10.28105 -10.27568 -10.26406
 Alpha  occ. eigenvalues --  -10.26147 -10.26144 -10.26017 -10.25995 -10.25901
 Alpha  occ. eigenvalues --  -10.25511 -10.25371 -10.25322 -10.25227 -10.25051
 Alpha  occ. eigenvalues --  -10.25047 -10.25040 -10.24955 -10.24954 -10.24770
 Alpha  occ. eigenvalues --  -10.24330 -10.24210 -10.23985 -10.23699 -10.23650
 Alpha  occ. eigenvalues --  -10.23540 -10.23356 -10.23254 -10.23200 -10.23060
 Alpha  occ. eigenvalues --  -10.23044 -10.22889 -10.22861 -10.22859 -10.22711
 Alpha  occ. eigenvalues --  -10.22504 -10.22435 -10.22414 -10.22212 -10.22092
 Alpha  occ. eigenvalues --  -10.21986 -10.21983 -10.21903 -10.21860 -10.21644
 Alpha  occ. eigenvalues --  -10.21628  -3.14092  -1.86939  -1.86472  -1.86319
 Alpha  occ. eigenvalues --   -1.11690  -1.10507  -1.04189  -1.02763  -1.02757
 Alpha  occ. eigenvalues --   -1.02388  -0.98164  -0.97453  -0.96954  -0.95863
 Alpha  occ. eigenvalues --   -0.86826  -0.85008  -0.84472  -0.84131  -0.83071
 Alpha  occ. eigenvalues --   -0.82770  -0.81996  -0.81950  -0.81167  -0.80798
 Alpha  occ. eigenvalues --   -0.79748  -0.79560  -0.78566  -0.77830  -0.77570
 Alpha  occ. eigenvalues --   -0.76977  -0.75758  -0.75474  -0.74992  -0.74426
 Alpha  occ. eigenvalues --   -0.74243  -0.72151  -0.72056  -0.71454  -0.70971
 Alpha  occ. eigenvalues --   -0.70611  -0.70095  -0.69145  -0.68999  -0.68688
 Alpha  occ. eigenvalues --   -0.67793  -0.66854  -0.65430  -0.65171  -0.63273
 Alpha  occ. eigenvalues --   -0.62683  -0.62278  -0.61413  -0.61263  -0.59992
 Alpha  occ. eigenvalues --   -0.59726  -0.59629  -0.58938  -0.58490  -0.58342
 Alpha  occ. eigenvalues --   -0.57616  -0.57441  -0.56759  -0.56535  -0.54381
 Alpha  occ. eigenvalues --   -0.54377  -0.53816  -0.53513  -0.53209  -0.52710
 Alpha  occ. eigenvalues --   -0.51774  -0.51589  -0.50561  -0.50290  -0.50187
 Alpha  occ. eigenvalues --   -0.50135  -0.49892  -0.49349  -0.48969  -0.48549
 Alpha  occ. eigenvalues --   -0.48402  -0.48363  -0.47590  -0.47361  -0.47154
 Alpha  occ. eigenvalues --   -0.46912  -0.46744  -0.46570  -0.46509  -0.46350
 Alpha  occ. eigenvalues --   -0.45935  -0.45655  -0.45449  -0.45092  -0.44838
 Alpha  occ. eigenvalues --   -0.44632  -0.44517  -0.44174  -0.44056  -0.43931
 Alpha  occ. eigenvalues --   -0.43790  -0.43648  -0.43548  -0.43369  -0.43208
 Alpha  occ. eigenvalues --   -0.42987  -0.42912  -0.42603  -0.42416  -0.42224
 Alpha  occ. eigenvalues --   -0.41998  -0.41811  -0.41574  -0.41058  -0.41031
 Alpha  occ. eigenvalues --   -0.40938  -0.40557  -0.40445  -0.40303  -0.40159
 Alpha  occ. eigenvalues --   -0.40037  -0.39910  -0.39780  -0.39693  -0.39360
 Alpha  occ. eigenvalues --   -0.39266  -0.39075  -0.39034  -0.38708  -0.38536
 Alpha  occ. eigenvalues --   -0.38485  -0.38385  -0.38229  -0.38084  -0.37921
 Alpha  occ. eigenvalues --   -0.37642  -0.37460  -0.37251  -0.37074  -0.36900
 Alpha  occ. eigenvalues --   -0.36682  -0.36561  -0.36503  -0.36368  -0.36225
 Alpha  occ. eigenvalues --   -0.35825  -0.35732  -0.35517  -0.35502  -0.35078
 Alpha  occ. eigenvalues --   -0.34964  -0.34901  -0.34518  -0.33975  -0.33580
 Alpha  occ. eigenvalues --   -0.33196  -0.32874  -0.32852  -0.32776  -0.32300
 Alpha  occ. eigenvalues --   -0.31872  -0.31820  -0.31356  -0.31288  -0.31205
 Alpha  occ. eigenvalues --   -0.31080  -0.30939  -0.30353  -0.29841  -0.29662
 Alpha  occ. eigenvalues --   -0.29062  -0.28908  -0.27974  -0.27134  -0.26156
 Alpha  occ. eigenvalues --   -0.25625  -0.25342  -0.24914  -0.24467  -0.20352
 Alpha  occ. eigenvalues --   -0.18645
 Alpha virt. eigenvalues --   -0.11011  -0.05034  -0.03659  -0.02118   0.00208
 Alpha virt. eigenvalues --    0.00329   0.01124   0.01374   0.01478   0.02870
 Alpha virt. eigenvalues --    0.03770   0.03959   0.04339   0.05313   0.05651

 Mulliken charges:
               1
     1  Mg   0.985152
     2  C   -0.012215
     3  C   -0.044275
     4  C   -0.034703
     5  C   -0.089130
     6  N   -0.364079
     7  C   -0.002389
     8  C   -0.130473
     9  C   -0.096794
    10  C    0.047285
    11  C    0.050844
    12  C    0.061817
    13  C   -0.025752
    14  C    0.196906
    15  O   -0.251713
    16  O   -0.379109
    17  N   -0.550362
    18  C    0.140611
    19  C   -0.189184
    20  C   -0.073067
    21  C    0.150788
    22  C    0.069741
    23  C    0.058227
    24  O   -0.251380
    25  C   -0.018722
    26  N   -0.356531
    27  C    0.031807
    28  C   -0.112427
    29  C   -0.112388
    30  C    0.110725
    31  C    0.015044
    32  C   -0.046338
    33  C   -0.076295
    34  N   -0.502984
    35  C    0.151383
    36  C   -0.216582
    37  C   -0.024509
    38  C    0.188453
    39  C    0.063191
    40  C    0.125180
    41  O   -0.246507
    42  C   -0.058309
    43  C    0.294219
    44  O   -0.260620
    45  O   -0.361432
    46  C    0.120594
    47  C    0.253040
    48  C   -0.154554
    49  C   -0.207996
    50  C    0.006450
    51  C    0.023864
    52  C   -0.072118
    53  C   -0.008837
    54  C   -0.212056
    55  C   -0.019555
    56  C   -0.023766
    57  C   -0.062292
    58  C    0.024478
    59  C   -0.214803
    60  C   -0.029817
    61  C    0.017422
    62  C   -0.067764
    63  C    0.017876
    64  C   -0.237106
    65  C   -0.027274
    66  C   -0.011282
    67  H   -0.013488
    68  H    0.030144
    69  H   -0.003468
    70  H    0.066722
    71  H    0.043331
    72  H    0.050019
    73  H    0.048486
    74  H    0.052440
    75  H    0.027153
    76  H    0.048143
    77  H    0.076222
    78  H    0.081843
    79  H    0.062867
    80  H    0.043122
    81  H    0.055662
    82  H    0.057099
    83  H    0.060982
    84  H    0.055462
    85  H    0.057034
    86  H    0.047983
    87  H    0.038758
    88  H    0.039937
    89  H    0.056348
    90  H    0.051561
    91  H    0.047513
    92  H    0.058153
    93  H    0.043313
    94  H    0.037252
    95  H    0.036545
    96  H    0.055707
    97  H    0.069217
    98  H    0.078567
    99  H    0.080286
   100  H    0.044929
   101  H    0.055398
   102  H    0.037252
   103  H    0.071119
   104  H    0.019607
   105  H    0.049057
   106  H    0.029491
   107  H    0.052678
   108  H    0.060327
   109  H    0.053929
   110  H    0.037252
   111  H    0.025143
   112  H    0.023952
   113  H    0.036337
   114  H    0.033936
   115  H    0.024943
   116  H    0.022837
   117  H    0.041551
   118  H    0.034238
   119  H    0.027524
   120  H    0.038895
   121  H    0.035550
   122  H    0.020338
   123  H    0.027265
   124  H    0.035211
   125  H    0.034186
   126  H    0.016242
   127  H    0.031738
   128  H    0.024326
   129  H    0.018378
   130  H    0.037388
   131  H    0.023861
   132  H    0.027706
   133  H    0.009498
   134  H    0.031442
   135  H    0.042002
   136  H    0.028312
   137  H    0.024690
   138  H    0.027140
   139  H    0.034125
   140  H    0.041693
 Sum of Mulliken charges =  -0.00000

 Dipole moment (field-independent basis, Debye):
    X=             -4.2377    Y=              2.5089    Z=              0.2505  Tot=              4.9311
 Quadrupole moment (field-independent basis, Debye-Ang):
   XX=           -369.2878   YY=           -421.0007   ZZ=           -398.4958
   XY=              4.8933   XZ=             15.2739   YZ=              2.9484

 Normal termination of Gaussian 16 at Wed May  4 03:44:25 2022.
