 Gaussian 16, Revision A.03,
 Gaussian 16:  ES64L-G16RevA.03 25-Dec-2016

 --------------------------------
 #p wB97XD/Def2SVP td=(nstates=5)
 --------------------------------

 ----------------------------------------------------
 step_1301_chromophore_7 TDDFT with wB97XD functional
 ----------------------------------------------------
 Symbolic Z-matrix:
 Charge =  0 Multiplicity = 1

                         Standard orientation:
 ---------------------------------------------------------------------
 Center     Atomic      Atomic             Coordinates (Angstroms)
 Number     Number       Type             X           Y           Z
 ---------------------------------------------------------------------
      1         12           0        6.074670    0.531310    0.134997
      2          6           0        3.586925   -2.091733    0.176288
      3          6           0        3.652500    2.544037   -0.973933
      4          6           0        8.421280    2.945721    0.307837
      5          6           0        8.563881   -1.896663    0.878446
      6          7           0        3.880734    0.165441   -0.481008
      7          6           0        3.033654   -0.895773   -0.135553
      8          6           0        1.520408   -0.598716   -0.489652
      9          6           0        1.626591    0.852377   -1.189618
     10          6           0        3.121945    1.220645   -0.865264
     11          6           0        1.307936    0.892150   -2.688960
     12          6           0        0.552921   -0.824615    0.723637
     13          6           0       -0.607377   -1.730384    0.584112
     14          6           0       -1.576783   -1.464013   -0.573465
     15          8           0       -1.478629   -0.665398   -1.471731
     16          8           0       -2.721157   -2.217964   -0.464434
     17          7           0        6.038932    2.479090   -0.216555
     18          6           0        4.971131    3.176641   -0.761741
     19          6           0        5.357918    4.505099   -1.018198
     20          6           0        6.658275    4.681431   -0.595445
     21          6           0        7.091244    3.350194   -0.103924
     22          6           0        4.442251    5.590980   -1.673319
     23          6           0        7.656369    5.843219   -0.800451
     24          8           0        8.805463    5.897419   -0.352080
     25          6           0        7.244561    7.128932   -1.464428
     26          7           0        8.291349    0.507964    0.405797
     27          6           0        8.979771    1.646872    0.572897
     28          6           0       10.412235    1.429996    1.117338
     29          6           0       10.480301   -0.131947    1.185039
     30          6           0        9.068359   -0.581483    0.706480
     31          6           0       11.498222    2.134240    0.321053
     32          6           0       10.858250   -0.606156    2.658784
     33          6           0       11.452354   -2.028834    2.599412
     34          7           0        6.105218   -1.525460    0.511707
     35          6           0        7.223791   -2.387909    0.746837
     36          6           0        6.649536   -3.690266    1.112545
     37          6           0        5.294362   -3.628304    0.844702
     38          6           0        5.002118   -2.313708    0.429724
     39          6           0        7.451562   -4.906936    1.529118
     40          6           0        4.053427   -4.404283    0.826380
     41          8           0        3.914707   -5.634011    1.031100
     42          6           0        2.964662   -3.485618    0.421448
     43          6           0        2.409915   -4.052701   -0.819355
     44          8           0        2.832211   -3.696325   -1.924844
     45          8           0        1.394660   -4.957336   -0.570057
     46          6           0        0.627786   -5.364007   -1.779955
     47          6           0       -3.808064   -2.015254   -1.478735
     48          6           0       -5.041685   -1.274094   -0.913460
     49          6           0       -6.390051   -1.311333   -1.142499
     50          6           0       -6.958910   -2.121731   -2.291302
     51          6           0       -7.276310   -0.286388   -0.505040
     52          6           0       -8.786140   -0.282492   -0.829380
     53          6           0       -9.198689    0.838544   -1.826724
     54          6           0      -10.456853    0.493756   -2.603154
     55          6           0      -10.505789    1.097305   -4.052191
     56          6           0      -11.834072    0.741755   -1.790395
     57          6           0      -12.229308   -0.460436   -0.911220
     58          6           0      -13.760591   -0.532904   -0.733410
     59          6           0      -14.178809   -0.490084    0.760849
     60          6           0      -15.661961   -0.911171    0.996151
     61          6           0      -13.918996    0.824170    1.454938
     62          6           0      -12.947313    0.756429    2.633847
     63          6           0      -13.058027    1.841732    3.690633
     64          6           0      -11.829128    2.714398    3.881676
     65          6           0      -12.233755    3.952829    4.661543
     66          6           0      -11.035365    3.136358    2.634451
     67          1           0        2.972047    3.294959   -1.379512
     68          1           0        9.171535    3.713400    0.508975
     69          1           0        9.279432   -2.637409    1.239635
     70          1           0        1.284614   -1.377290   -1.214704
     71          1           0        1.052524    1.560440   -0.592502
     72          1           0        2.130428    1.231653   -3.318352
     73          1           0        0.442861    1.550919   -2.755499
     74          1           0        1.007916   -0.104839   -3.013225
     75          1           0        0.243634    0.207861    0.885739
     76          1           0        1.146102   -1.069189    1.605639
     77          1           0       -1.320792   -1.526393    1.381724
     78          1           0       -0.355805   -2.783732    0.461498
     79          1           0        4.316675    6.396008   -0.949085
     80          1           0        3.479370    5.172963   -1.967607
     81          1           0        4.955871    5.936829   -2.570948
     82          1           0        6.476537    7.496077   -0.784150
     83          1           0        6.900196    6.993797   -2.489262
     84          1           0        8.070655    7.838082   -1.437484
     85          1           0       10.520978    1.802557    2.136064
     86          1           0       11.252160   -0.522288    0.522796
     87          1           0       12.101543    1.411371   -0.228799
     88          1           0       12.105937    2.722470    1.009320
     89          1           0       11.062574    2.845352   -0.380415
     90          1           0        9.974138   -0.683568    3.290993
     91          1           0       11.544611    0.122900    3.089212
     92          1           0       10.642125   -2.685796    2.914468
     93          1           0       12.426725   -2.069112    3.085182
     94          1           0       11.770705   -2.408599    1.628329
     95          1           0        8.199657   -4.618756    2.268772
     96          1           0        8.059812   -5.273051    0.702926
     97          1           0        6.740461   -5.664573    1.857238
     98          1           0        2.190097   -3.442360    1.187348
     99          1           0        1.206852   -5.528191   -2.689602
    100          1           0       -0.204457   -4.712516   -2.046099
    101          1           0        0.046320   -6.235025   -1.477734
    102          1           0       -4.139657   -3.038715   -1.654672
    103          1           0       -3.654480   -1.740298   -2.522136
    104          1           0       -4.698532   -0.475283   -0.255628
    105          1           0       -7.643574   -2.915318   -1.993028
    106          1           0       -6.196325   -2.625292   -2.884826
    107          1           0       -7.571303   -1.480096   -2.924115
    108          1           0       -6.809075    0.621769   -0.885530
    109          1           0       -7.185322   -0.433443    0.570855
    110          1           0       -9.439838   -0.099111    0.023068
    111          1           0       -9.056440   -1.284859   -1.161115
    112          1           0       -8.410549    0.952949   -2.571546
    113          1           0       -9.212270    1.777139   -1.273563
    114          1           0      -10.437132   -0.569098   -2.842960
    115          1           0       -9.668205    1.786239   -4.158548
    116          1           0      -11.429616    1.670063   -4.138739
    117          1           0      -10.515014    0.479682   -4.950208
    118          1           0      -12.658082    1.080774   -2.417003
    119          1           0      -11.640240    1.552909   -1.087877
    120          1           0      -11.814777   -0.200677    0.063418
    121          1           0      -11.782908   -1.409204   -1.207625
    122          1           0      -14.082488   -1.475153   -1.177966
    123          1           0      -14.266625    0.249101   -1.299560
    124          1           0      -13.701201   -1.350198    1.231857
    125          1           0      -15.742140   -1.653970    1.790270
    126          1           0      -16.041493   -1.375365    0.086261
    127          1           0      -16.458323   -0.193089    1.194016
    128          1           0      -14.890523    1.230486    1.736193
    129          1           0      -13.473719    1.611988    0.846427
    130          1           0      -11.955439    0.775609    2.182075
    131          1           0      -13.129577   -0.161788    3.193103
    132          1           0      -13.488853    1.417432    4.597176
    133          1           0      -13.830513    2.523894    3.332792
    134          1           0      -11.124639    2.146372    4.490552
    135          1           0      -12.989344    4.584988    4.195151
    136          1           0      -11.385177    4.573696    4.949933
    137          1           0      -12.586094    3.626346    5.640173
    138          1           0      -11.067854    4.223453    2.574953
    139          1           0      -11.470748    2.799557    1.693630
    140          1           0       -9.988441    2.846274    2.718335
 ---------------------------------------------------------------------

 SCF Done:  E(RwB97XD) =  -3007.86433871     A.U. after   20 cycles

 Excitation energies and oscillator strengths:

 Excited State   1:      Singlet-A      1.6242 eV  763.34 nm  f=0.3512  <S**2>=0.000
     245 -> 248       -0.18820
     246 -> 247        0.68197
     245 <- 248       -0.11671
 This state for optimization and/or second-order correction.
 Total Energy, E(TD-HF/TD-DFT) =  -3007.80464915
 Copying the excited state density for this state as the 1-particle RhoCI density.

 Excited State   2:      Singlet-A      2.1079 eV  588.18 nm  f=0.1542  <S**2>=0.000
     245 -> 247        0.65120
     246 -> 248        0.25991

 Excited State   3:      Singlet-A      3.4006 eV  364.59 nm  f=0.0012  <S**2>=0.000
     240 -> 247        0.11603
     242 -> 247       -0.10092
     243 -> 247        0.66664

 Excited State   4:      Singlet-A      3.5223 eV  351.99 nm  f=0.2517  <S**2>=0.000
     239 -> 247       -0.11145
     241 -> 247        0.27204
     241 -> 248       -0.11414
     241 -> 249        0.14563
     241 -> 250        0.16114
     242 -> 247       -0.33777
     242 -> 250       -0.10453
     245 -> 247       -0.15087
     246 -> 248        0.41979

 Excited State   5:      Singlet-A      3.5796 eV  346.36 nm  f=0.2679  <S**2>=0.000
     239 -> 247       -0.10422
     240 -> 247        0.25715
     240 -> 249        0.11832
     241 -> 247       -0.36694
     241 -> 248        0.10829
     241 -> 250       -0.20429
     245 -> 247       -0.14825
     246 -> 248        0.38136

 The electronic state is 1-A.
 Alpha  occ. eigenvalues --  -46.94930 -19.31140 -19.30684 -19.25162 -19.24958
 Alpha  occ. eigenvalues --  -19.23939 -19.23428 -14.46459 -14.46062 -14.44427
 Alpha  occ. eigenvalues --  -14.43653 -10.43579 -10.43508 -10.39464 -10.38666
 Alpha  occ. eigenvalues --  -10.36963 -10.35735 -10.35280 -10.34948 -10.34840
 Alpha  occ. eigenvalues --  -10.34711 -10.34709 -10.34366 -10.33579 -10.32583
 Alpha  occ. eigenvalues --  -10.32573 -10.32550 -10.32370 -10.32341 -10.32291
 Alpha  occ. eigenvalues --  -10.31678 -10.31671 -10.31658 -10.31535 -10.31474
 Alpha  occ. eigenvalues --  -10.31430 -10.31395 -10.31376 -10.31321 -10.31285
 Alpha  occ. eigenvalues --  -10.30752 -10.30568 -10.30262 -10.30102 -10.30094
 Alpha  occ. eigenvalues --  -10.29917 -10.29761 -10.29643 -10.29640 -10.29485
 Alpha  occ. eigenvalues --  -10.29440 -10.29249 -10.29202 -10.29187 -10.29115
 Alpha  occ. eigenvalues --  -10.28905 -10.28818 -10.28790 -10.28505 -10.28396
 Alpha  occ. eigenvalues --  -10.28367 -10.28319 -10.28285 -10.28235 -10.28078
 Alpha  occ. eigenvalues --  -10.28042  -3.20870  -1.94466  -1.93999  -1.93837
 Alpha  occ. eigenvalues --   -1.19046  -1.17873  -1.11843  -1.10145  -1.10087
 Alpha  occ. eigenvalues --   -1.09723  -1.05632  -1.04914  -1.04284  -1.03140
 Alpha  occ. eigenvalues --   -0.94354  -0.92689  -0.92137  -0.91771  -0.90735
 Alpha  occ. eigenvalues --   -0.90344  -0.89744  -0.89613  -0.88872  -0.88369
 Alpha  occ. eigenvalues --   -0.87315  -0.87170  -0.86227  -0.85417  -0.85191
 Alpha  occ. eigenvalues --   -0.84618  -0.83486  -0.83206  -0.82682  -0.82076
 Alpha  occ. eigenvalues --   -0.81885  -0.79866  -0.79729  -0.79033  -0.78653
 Alpha  occ. eigenvalues --   -0.78188  -0.77789  -0.76726  -0.76667  -0.76359
 Alpha  occ. eigenvalues --   -0.75395  -0.74364  -0.73019  -0.72712  -0.70804
 Alpha  occ. eigenvalues --   -0.70290  -0.69901  -0.68992  -0.68848  -0.67613
 Alpha  occ. eigenvalues --   -0.67232  -0.67166  -0.66339  -0.66042  -0.65921
 Alpha  occ. eigenvalues --   -0.65277  -0.64858  -0.64375  -0.63885  -0.61902
 Alpha  occ. eigenvalues --   -0.61883  -0.61290  -0.61004  -0.60646  -0.60082
 Alpha  occ. eigenvalues --   -0.59165  -0.59018  -0.58050  -0.57788  -0.57651
 Alpha  occ. eigenvalues --   -0.57488  -0.57274  -0.56723  -0.56317  -0.55980
 Alpha  occ. eigenvalues --   -0.55782  -0.55663  -0.55019  -0.54950  -0.54541
 Alpha  occ. eigenvalues --   -0.54275  -0.54091  -0.53978  -0.53857  -0.53686
 Alpha  occ. eigenvalues --   -0.53280  -0.53003  -0.52769  -0.52362  -0.52155
 Alpha  occ. eigenvalues --   -0.52094  -0.51871  -0.51485  -0.51341  -0.51237
 Alpha  occ. eigenvalues --   -0.51129  -0.50993  -0.50916  -0.50625  -0.50589
 Alpha  occ. eigenvalues --   -0.50284  -0.50197  -0.49836  -0.49745  -0.49482
 Alpha  occ. eigenvalues --   -0.49321  -0.49091  -0.48843  -0.48305  -0.48265
 Alpha  occ. eigenvalues --   -0.48161  -0.47758  -0.47640  -0.47494  -0.47368
 Alpha  occ. eigenvalues --   -0.47207  -0.47029  -0.46989  -0.46891  -0.46542
 Alpha  occ. eigenvalues --   -0.46416  -0.46243  -0.46220  -0.45771  -0.45691
 Alpha  occ. eigenvalues --   -0.45617  -0.45567  -0.45397  -0.45159  -0.45042
 Alpha  occ. eigenvalues --   -0.44725  -0.44596  -0.44274  -0.44150  -0.44040
 Alpha  occ. eigenvalues --   -0.43920  -0.43689  -0.43631  -0.43478  -0.43294
 Alpha  occ. eigenvalues --   -0.42893  -0.42793  -0.42606  -0.42490  -0.42078
 Alpha  occ. eigenvalues --   -0.41968  -0.41876  -0.41606  -0.41019  -0.40495
 Alpha  occ. eigenvalues --   -0.40269  -0.39937  -0.39837  -0.39773  -0.39200
 Alpha  occ. eigenvalues --   -0.38899  -0.38833  -0.38401  -0.38241  -0.38231
 Alpha  occ. eigenvalues --   -0.38024  -0.37898  -0.37257  -0.36701  -0.36526
 Alpha  occ. eigenvalues --   -0.36170  -0.35869  -0.34598  -0.33823  -0.32864
 Alpha  occ. eigenvalues --   -0.32697  -0.32544  -0.31330  -0.31222  -0.25281
 Alpha  occ. eigenvalues --   -0.22857
 Alpha virt. eigenvalues --   -0.06933   0.00453   0.02655   0.04323   0.06709
 Alpha virt. eigenvalues --    0.07000   0.07295   0.08182   0.08322   0.09341
 Alpha virt. eigenvalues --    0.10298   0.10357   0.11141   0.12110   0.12414

 Mulliken charges:
               1
     1  Mg   0.974686
     2  C   -0.012566
     3  C   -0.060477
     4  C   -0.049837
     5  C   -0.085378
     6  N   -0.335861
     7  C   -0.026895
     8  C   -0.109111
     9  C   -0.068847
    10  C    0.037428
    11  C    0.057909
    12  C    0.071786
    13  C   -0.002948
    14  C    0.182231
    15  O   -0.248176
    16  O   -0.377834
    17  N   -0.520911
    18  C    0.136166
    19  C   -0.177785
    20  C   -0.066076
    21  C    0.141123
    22  C    0.083672
    23  C    0.055246
    24  O   -0.245111
    25  C   -0.006326
    26  N   -0.321155
    27  C    0.020400
    28  C   -0.089010
    29  C   -0.083612
    30  C    0.086419
    31  C    0.024836
    32  C   -0.031485
    33  C   -0.060260
    34  N   -0.470428
    35  C    0.138489
    36  C   -0.214811
    37  C   -0.018320
    38  C    0.167778
    39  C    0.074978
    40  C    0.105510
    41  O   -0.236858
    42  C   -0.018552
    43  C    0.270074
    44  O   -0.255868
    45  O   -0.360572
    46  C    0.135974
    47  C    0.268315
    48  C   -0.164209
    49  C   -0.196625
    50  C    0.023666
    51  C    0.040633
    52  C   -0.046696
    53  C    0.004568
    54  C   -0.179816
    55  C   -0.006481
    56  C   -0.007293
    57  C   -0.032991
    58  C    0.035995
    59  C   -0.181738
    60  C   -0.018974
    61  C    0.034108
    62  C   -0.042343
    63  C    0.029014
    64  C   -0.206864
    65  C   -0.013826
    66  C    0.002580
    67  H   -0.024210
    68  H    0.024598
    69  H   -0.017266
    70  H    0.047347
    71  H    0.033424
    72  H    0.044859
    73  H    0.044232
    74  H    0.048153
    75  H    0.018308
    76  H    0.041243
    77  H    0.071113
    78  H    0.073327
    79  H    0.058267
    80  H    0.040607
    81  H    0.049172
    82  H    0.050673
    83  H    0.056883
    84  H    0.055081
    85  H    0.046779
    86  H    0.034928
    87  H    0.033779
    88  H    0.035313
    89  H    0.049375
    90  H    0.043199
    91  H    0.038805
    92  H    0.050987
    93  H    0.038936
    94  H    0.030423
    95  H    0.029269
    96  H    0.050099
    97  H    0.065462
    98  H    0.071142
    99  H    0.077038
   100  H    0.040120
   101  H    0.051911
   102  H    0.031009
   103  H    0.067954
   104  H    0.015243
   105  H    0.043635
   106  H    0.024581
   107  H    0.042469
   108  H    0.051481
   109  H    0.047656
   110  H    0.026817
   111  H    0.011204
   112  H    0.011905
   113  H    0.029435
   114  H    0.018652
   115  H    0.018363
   116  H    0.015770
   117  H    0.037056
   118  H    0.024677
   119  H    0.014699
   120  H    0.014155
   121  H    0.028056
   122  H    0.012916
   123  H    0.017990
   124  H    0.023076
   125  H    0.028853
   126  H    0.009683
   127  H    0.026046
   128  H    0.014161
   129  H    0.003573
   130  H    0.022245
   131  H    0.015083
   132  H    0.021860
   133  H   -0.003179
   134  H    0.021355
   135  H    0.035911
   136  H    0.022247
   137  H    0.017687
   138  H    0.021117
   139  H    0.023390
   140  H    0.037135
 Sum of Mulliken charges =  -0.00000

 Dipole moment (field-independent basis, Debye):
    X=             -4.2581    Y=              2.9903    Z=              0.1371  Tot=              5.2050
 Quadrupole moment (field-independent basis, Debye-Ang):
   XX=           -369.9911   YY=           -418.6943   ZZ=           -398.0711
   XY=              8.2865   XZ=             14.4588   YZ=              2.5880

 Normal termination of Gaussian 16 at Wed May  4 04:11:43 2022.
