 Gaussian 16, Revision A.03,
 Gaussian 16:  ES64L-G16RevA.03 25-Dec-2016

 --------------------
 #p ZINDO=(nstates=5)
 --------------------

 -----------------------------
 step_1301_chromophore_7 ZINDO
 -----------------------------
 Symbolic Z-matrix:
 Charge =  0 Multiplicity = 1

                         Standard orientation:
 ---------------------------------------------------------------------
 Center     Atomic      Atomic             Coordinates (Angstroms)
 Number     Number       Type             X           Y           Z
 ---------------------------------------------------------------------
      1         12           0        6.074670    0.531310    0.134997
      2          6           0        3.586925   -2.091733    0.176288
      3          6           0        3.652500    2.544037   -0.973933
      4          6           0        8.421280    2.945721    0.307837
      5          6           0        8.563881   -1.896663    0.878446
      6          7           0        3.880734    0.165441   -0.481008
      7          6           0        3.033654   -0.895773   -0.135553
      8          6           0        1.520408   -0.598716   -0.489652
      9          6           0        1.626591    0.852377   -1.189618
     10          6           0        3.121945    1.220645   -0.865264
     11          6           0        1.307936    0.892150   -2.688960
     12          6           0        0.552921   -0.824615    0.723637
     13          6           0       -0.607377   -1.730384    0.584112
     14          6           0       -1.576783   -1.464013   -0.573465
     15          8           0       -1.478629   -0.665398   -1.471731
     16          8           0       -2.721157   -2.217964   -0.464434
     17          7           0        6.038932    2.479090   -0.216555
     18          6           0        4.971131    3.176641   -0.761741
     19          6           0        5.357918    4.505099   -1.018198
     20          6           0        6.658275    4.681431   -0.595445
     21          6           0        7.091244    3.350194   -0.103924
     22          6           0        4.442251    5.590980   -1.673319
     23          6           0        7.656369    5.843219   -0.800451
     24          8           0        8.805463    5.897419   -0.352080
     25          6           0        7.244561    7.128932   -1.464428
     26          7           0        8.291349    0.507964    0.405797
     27          6           0        8.979771    1.646872    0.572897
     28          6           0       10.412235    1.429996    1.117338
     29          6           0       10.480301   -0.131947    1.185039
     30          6           0        9.068359   -0.581483    0.706480
     31          6           0       11.498222    2.134240    0.321053
     32          6           0       10.858250   -0.606156    2.658784
     33          6           0       11.452354   -2.028834    2.599412
     34          7           0        6.105218   -1.525460    0.511707
     35          6           0        7.223791   -2.387909    0.746837
     36          6           0        6.649536   -3.690266    1.112545
     37          6           0        5.294362   -3.628304    0.844702
     38          6           0        5.002118   -2.313708    0.429724
     39          6           0        7.451562   -4.906936    1.529118
     40          6           0        4.053427   -4.404283    0.826380
     41          8           0        3.914707   -5.634011    1.031100
     42          6           0        2.964662   -3.485618    0.421448
     43          6           0        2.409915   -4.052701   -0.819355
     44          8           0        2.832211   -3.696325   -1.924844
     45          8           0        1.394660   -4.957336   -0.570057
     46          6           0        0.627786   -5.364007   -1.779955
     47          6           0       -3.808064   -2.015254   -1.478735
     48          6           0       -5.041685   -1.274094   -0.913460
     49          6           0       -6.390051   -1.311333   -1.142499
     50          6           0       -6.958910   -2.121731   -2.291302
     51          6           0       -7.276310   -0.286388   -0.505040
     52          6           0       -8.786140   -0.282492   -0.829380
     53          6           0       -9.198689    0.838544   -1.826724
     54          6           0      -10.456853    0.493756   -2.603154
     55          6           0      -10.505789    1.097305   -4.052191
     56          6           0      -11.834072    0.741755   -1.790395
     57          6           0      -12.229308   -0.460436   -0.911220
     58          6           0      -13.760591   -0.532904   -0.733410
     59          6           0      -14.178809   -0.490084    0.760849
     60          6           0      -15.661961   -0.911171    0.996151
     61          6           0      -13.918996    0.824170    1.454938
     62          6           0      -12.947313    0.756429    2.633847
     63          6           0      -13.058027    1.841732    3.690633
     64          6           0      -11.829128    2.714398    3.881676
     65          6           0      -12.233755    3.952829    4.661543
     66          6           0      -11.035365    3.136358    2.634451
     67          1           0        2.972047    3.294959   -1.379512
     68          1           0        9.171535    3.713400    0.508975
     69          1           0        9.279432   -2.637409    1.239635
     70          1           0        1.284614   -1.377290   -1.214704
     71          1           0        1.052524    1.560440   -0.592502
     72          1           0        2.130428    1.231653   -3.318352
     73          1           0        0.442861    1.550919   -2.755499
     74          1           0        1.007916   -0.104839   -3.013225
     75          1           0        0.243634    0.207861    0.885739
     76          1           0        1.146102   -1.069189    1.605639
     77          1           0       -1.320792   -1.526393    1.381724
     78          1           0       -0.355805   -2.783732    0.461498
     79          1           0        4.316675    6.396008   -0.949085
     80          1           0        3.479370    5.172963   -1.967607
     81          1           0        4.955871    5.936829   -2.570948
     82          1           0        6.476537    7.496077   -0.784150
     83          1           0        6.900196    6.993797   -2.489262
     84          1           0        8.070655    7.838082   -1.437484
     85          1           0       10.520978    1.802557    2.136064
     86          1           0       11.252160   -0.522288    0.522796
     87          1           0       12.101543    1.411371   -0.228799
     88          1           0       12.105937    2.722470    1.009320
     89          1           0       11.062574    2.845352   -0.380415
     90          1           0        9.974138   -0.683568    3.290993
     91          1           0       11.544611    0.122900    3.089212
     92          1           0       10.642125   -2.685796    2.914468
     93          1           0       12.426725   -2.069112    3.085182
     94          1           0       11.770705   -2.408599    1.628329
     95          1           0        8.199657   -4.618756    2.268772
     96          1           0        8.059812   -5.273051    0.702926
     97          1           0        6.740461   -5.664573    1.857238
     98          1           0        2.190097   -3.442360    1.187348
     99          1           0        1.206852   -5.528191   -2.689602
    100          1           0       -0.204457   -4.712516   -2.046099
    101          1           0        0.046320   -6.235025   -1.477734
    102          1           0       -4.139657   -3.038715   -1.654672
    103          1           0       -3.654480   -1.740298   -2.522136
    104          1           0       -4.698532   -0.475283   -0.255628
    105          1           0       -7.643574   -2.915318   -1.993028
    106          1           0       -6.196325   -2.625292   -2.884826
    107          1           0       -7.571303   -1.480096   -2.924115
    108          1           0       -6.809075    0.621769   -0.885530
    109          1           0       -7.185322   -0.433443    0.570855
    110          1           0       -9.439838   -0.099111    0.023068
    111          1           0       -9.056440   -1.284859   -1.161115
    112          1           0       -8.410549    0.952949   -2.571546
    113          1           0       -9.212270    1.777139   -1.273563
    114          1           0      -10.437132   -0.569098   -2.842960
    115          1           0       -9.668205    1.786239   -4.158548
    116          1           0      -11.429616    1.670063   -4.138739
    117          1           0      -10.515014    0.479682   -4.950208
    118          1           0      -12.658082    1.080774   -2.417003
    119          1           0      -11.640240    1.552909   -1.087877
    120          1           0      -11.814777   -0.200677    0.063418
    121          1           0      -11.782908   -1.409204   -1.207625
    122          1           0      -14.082488   -1.475153   -1.177966
    123          1           0      -14.266625    0.249101   -1.299560
    124          1           0      -13.701201   -1.350198    1.231857
    125          1           0      -15.742140   -1.653970    1.790270
    126          1           0      -16.041493   -1.375365    0.086261
    127          1           0      -16.458323   -0.193089    1.194016
    128          1           0      -14.890523    1.230486    1.736193
    129          1           0      -13.473719    1.611988    0.846427
    130          1           0      -11.955439    0.775609    2.182075
    131          1           0      -13.129577   -0.161788    3.193103
    132          1           0      -13.488853    1.417432    4.597176
    133          1           0      -13.830513    2.523894    3.332792
    134          1           0      -11.124639    2.146372    4.490552
    135          1           0      -12.989344    4.584988    4.195151
    136          1           0      -11.385177    4.573696    4.949933
    137          1           0      -12.586094    3.626346    5.640173
    138          1           0      -11.067854    4.223453    2.574953
    139          1           0      -11.470748    2.799557    1.693630
    140          1           0       -9.988441    2.846274    2.718335
 ---------------------------------------------------------------------

 SCF Done:  E(RZINDO/S) =  -474.027963589     A.U. after   20 cycles

 Excitation energies and oscillator strengths:

 Excited State   1:      Singlet-A      1.2470 eV  994.26 nm  f=0.5440  <S**2>=0.000
     175 ->178         0.19008
     176 ->177         0.66282
 This state for optimization and/or second-order correction.
 Total Energy, E(CIS/TDA) =  -473.982137028
 Copying the excited state density for this state as the 1-particle RhoCI density.

 Excited State   2:      Singlet-A      1.8925 eV  655.14 nm  f=0.0955  <S**2>=0.000
     175 ->177         0.57653
     176 ->178        -0.37888

 Excited State   3:      Singlet-A      2.8617 eV  433.26 nm  f=0.0067  <S**2>=0.000
     168 ->177         0.31960
     168 ->178        -0.16970
     168 ->179        -0.26063
     168 ->180        -0.41456
     168 ->183        -0.14316
     168 ->186        -0.20837
     168 ->187        -0.11198

 Excited State   4:      Singlet-A      2.9913 eV  414.48 nm  f=0.3291  <S**2>=0.000
     169 ->177        -0.15871
     169 ->179        -0.29504
     169 ->180         0.12944
     169 ->186        -0.11275
     175 ->177        -0.20423
     176 ->178        -0.31886
     176 ->179         0.36947

 Excited State   5:      Singlet-A      3.0171 eV  410.93 nm  f=0.3948  <S**2>=0.000
     169 ->177         0.21193
     169 ->179         0.37574
     169 ->180        -0.17701
     169 ->186         0.14766
     175 ->177        -0.21380
     176 ->178        -0.33462
     176 ->179         0.15316

 The electronic state is 1-A.
 Alpha  occ. eigenvalues --   -1.81451  -1.80471  -1.77050  -1.72449  -1.70832
 Alpha  occ. eigenvalues --   -1.68537  -1.66603  -1.61837  -1.59252  -1.57041
 Alpha  occ. eigenvalues --   -1.56494  -1.51267  -1.48805  -1.48338  -1.46731
 Alpha  occ. eigenvalues --   -1.42084  -1.41821  -1.39434  -1.38211  -1.38023
 Alpha  occ. eigenvalues --   -1.35577  -1.32804  -1.31848  -1.31121  -1.29953
 Alpha  occ. eigenvalues --   -1.26852  -1.23870  -1.21304  -1.20314  -1.17480
 Alpha  occ. eigenvalues --   -1.17125  -1.16948  -1.16605  -1.14751  -1.12443
 Alpha  occ. eigenvalues --   -1.11596  -1.10493  -1.09861  -1.05233  -1.04077
 Alpha  occ. eigenvalues --   -1.03030  -1.00516  -0.98950  -0.97265  -0.96651
 Alpha  occ. eigenvalues --   -0.96153  -0.93913  -0.93395  -0.92161  -0.90925
 Alpha  occ. eigenvalues --   -0.90752  -0.90540  -0.89227  -0.88596  -0.86276
 Alpha  occ. eigenvalues --   -0.85479  -0.83790  -0.82357  -0.81587  -0.80757
 Alpha  occ. eigenvalues --   -0.80240  -0.79744  -0.78919  -0.76993  -0.76827
 Alpha  occ. eigenvalues --   -0.75965  -0.75770  -0.75552  -0.73999  -0.73450
 Alpha  occ. eigenvalues --   -0.72567  -0.72343  -0.71882  -0.70965  -0.70745
 Alpha  occ. eigenvalues --   -0.70320  -0.69696  -0.68867  -0.68502  -0.68235
 Alpha  occ. eigenvalues --   -0.67743  -0.67662  -0.67369  -0.66256  -0.65599
 Alpha  occ. eigenvalues --   -0.65395  -0.64556  -0.63728  -0.62984  -0.62706
 Alpha  occ. eigenvalues --   -0.62530  -0.62402  -0.61827  -0.61436  -0.61063
 Alpha  occ. eigenvalues --   -0.60834  -0.60452  -0.60330  -0.59747  -0.59549
 Alpha  occ. eigenvalues --   -0.59419  -0.58826  -0.58410  -0.57981  -0.57865
 Alpha  occ. eigenvalues --   -0.57810  -0.57355  -0.56850  -0.56658  -0.55896
 Alpha  occ. eigenvalues --   -0.55555  -0.55486  -0.54804  -0.54626  -0.54433
 Alpha  occ. eigenvalues --   -0.54053  -0.53712  -0.53668  -0.53061  -0.52857
 Alpha  occ. eigenvalues --   -0.52212  -0.51952  -0.51880  -0.51599  -0.51384
 Alpha  occ. eigenvalues --   -0.50955  -0.50829  -0.50670  -0.50511  -0.50386
 Alpha  occ. eigenvalues --   -0.50115  -0.49958  -0.49780  -0.49414  -0.49131
 Alpha  occ. eigenvalues --   -0.48954  -0.48321  -0.48192  -0.47830  -0.47634
 Alpha  occ. eigenvalues --   -0.47276  -0.46916  -0.46741  -0.46463  -0.46266
 Alpha  occ. eigenvalues --   -0.45930  -0.45891  -0.45706  -0.45606  -0.45231
 Alpha  occ. eigenvalues --   -0.44870  -0.44520  -0.44080  -0.44059  -0.43784
 Alpha  occ. eigenvalues --   -0.43352  -0.43341  -0.43012  -0.42753  -0.42640
 Alpha  occ. eigenvalues --   -0.42300  -0.42059  -0.41354  -0.38893  -0.38199
 Alpha  occ. eigenvalues --   -0.37800  -0.37366  -0.35397  -0.34749  -0.34397
 Alpha  occ. eigenvalues --   -0.33902  -0.32237  -0.31958  -0.31599  -0.26081
 Alpha  occ. eigenvalues --   -0.21786
 Alpha virt. eigenvalues --   -0.08408  -0.01728  -0.00578   0.01009   0.02324
 Alpha virt. eigenvalues --    0.02960   0.03218   0.03601   0.04110   0.04920
 Alpha virt. eigenvalues --    0.06241   0.06617   0.07037   0.07722   0.08162

 Mulliken charges:
               1
     1  Mg   0.431605
     2  C   -0.038427
     3  C   -0.112180
     4  C   -0.066173
     5  C   -0.040860
     6  N   -0.304322
     7  C    0.103870
     8  C   -0.003901
     9  C    0.017918
    10  C    0.164666
    11  C   -0.040138
    12  C   -0.017716
    13  C    0.020105
    14  C    0.464325
    15  O   -0.520351
    16  O   -0.275799
    17  N   -0.316995
    18  C    0.129587
    19  C    0.021671
    20  C   -0.030194
    21  C    0.131273
    22  C   -0.049589
    23  C    0.325740
    24  O   -0.522265
    25  C   -0.026573
    26  N   -0.249525
    27  C    0.146817
    28  C    0.003922
    29  C   -0.001513
    30  C    0.081317
    31  C   -0.050028
    32  C   -0.031632
    33  C   -0.066520
    34  N   -0.322453
    35  C    0.046833
    36  C    0.033949
    37  C   -0.057743
    38  C    0.115456
    39  C   -0.042678
    40  C    0.340952
    41  O   -0.547408
    42  C    0.067995
    43  C    0.496001
    44  O   -0.530332
    45  O   -0.259626
    46  C    0.071041
    47  C    0.105662
    48  C   -0.089294
    49  C   -0.006553
    50  C   -0.042551
    51  C   -0.018632
    52  C   -0.041905
    53  C   -0.023810
    54  C   -0.014449
    55  C   -0.067681
    56  C   -0.038903
    57  C   -0.039696
    58  C   -0.031178
    59  C   -0.002969
    60  C   -0.067323
    61  C   -0.026304
    62  C   -0.038013
    63  C   -0.030548
    64  C    0.000744
    65  C   -0.053631
    66  C   -0.055894
    67  H    0.012840
    68  H    0.045703
    69  H    0.030639
    70  H    0.039730
    71  H    0.032995
    72  H    0.029705
    73  H    0.023775
    74  H    0.033184
    75  H    0.021975
    76  H    0.020959
    77  H    0.045249
    78  H    0.053599
    79  H    0.033052
    80  H    0.028980
    81  H    0.030582
    82  H    0.037604
    83  H    0.037281
    84  H    0.039165
    85  H    0.034487
    86  H    0.033574
    87  H    0.023009
    88  H    0.019855
    89  H    0.027575
    90  H    0.025738
    91  H    0.022154
    92  H    0.028379
    93  H    0.021109
    94  H    0.014801
    95  H    0.023377
    96  H    0.031413
    97  H    0.038491
    98  H    0.051861
    99  H    0.060029
   100  H    0.033365
   101  H    0.028526
   102  H    0.020587
   103  H    0.071795
   104  H    0.018848
   105  H    0.023633
   106  H    0.017942
   107  H    0.028362
   108  H    0.035810
   109  H    0.027660
   110  H    0.016220
   111  H    0.022806
   112  H    0.012636
   113  H    0.024370
   114  H    0.015734
   115  H    0.014031
   116  H    0.011325
   117  H    0.026112
   118  H    0.027171
   119  H    0.014255
   120  H    0.015705
   121  H    0.027076
   122  H    0.011912
   123  H    0.022641
   124  H    0.020616
   125  H    0.014517
   126  H    0.006481
   127  H    0.021120
   128  H    0.017402
   129  H    0.014396
   130  H    0.022498
   131  H    0.012911
   132  H    0.021926
   133  H    0.008596
   134  H    0.013965
   135  H    0.025924
   136  H    0.009560
   137  H    0.005133
   138  H    0.013627
   139  H    0.021875
   140  H    0.020892
 Sum of Mulliken charges =  -0.00000

 Dipole moment (field-independent basis, Debye):
    X=             -5.0024    Y=              5.8442    Z=              0.9338  Tot=              7.7492
 N-N= 4.222971305538D+03 E-N= 0.000000000000D+00  KE=-9.120506499081D+03
 Leave Link  601 at Wed May  4 04:24:32 2022, MaxMem=  6710886400 cpu:               0.8 elap:               0.0
 (Enter /sw/apps/gaussian-16.0/g16/l9999.exe)
 1\1\GINC-BP1-COMPUTE121\SP\RZINDO CIS\STO-3G\C55H74Mg1N4O6\OF15641\04-
 May-2022\0\\#p ZINDO=(nstates=5)\\step_1301_chromophore_7 ZINDO\\0,1\M
 g,0,26.168,-0.767,29.431\C,0,28.145,-1.147,32.434\C,0,23.536,-0.372,31
 .447\C,0,24.448,-0.244,26.579\C,0,29.021,-1.665,27.508\N,0,25.898,-0.9
 2,31.718\C,0,26.864,-0.821,32.728\C,0,26.22,-0.649,34.163\C,0,24.643,-
 0.729,33.826\C,0,24.68,-0.663,32.254\C,0,23.911,-1.966,34.36\C,0,26.80
 1,0.576,34.951\C,0,27.372,0.382,36.301\C,0,26.489,-0.304,37.35\O,0,25.

 Normal termination of Gaussian 16 at Wed May  4 04:24:32 2022.
