 Gaussian 16, Revision A.03,
 Gaussian 16:  ES64L-G16RevA.03 25-Dec-2016

 ------------------------------
 #p blyp/Def2SVP td=(nstates=5)
 ------------------------------

 --------------------------------------------------
 step_1801_chromophore_4 TDDFT with blyp functional
 --------------------------------------------------
 Symbolic Z-matrix:
 Charge =  0 Multiplicity = 1

                         Standard orientation:
 ---------------------------------------------------------------------
 Center     Atomic      Atomic             Coordinates (Angstroms)
 Number     Number       Type             X           Y           Z
 ---------------------------------------------------------------------
      1         12           0        5.791229    0.618300    0.283735
      2          6           0        3.548661   -2.180297    0.446246
      3          6           0        3.209830    2.590250   -0.396602
      4          6           0        8.104660    3.038195   -0.291069
      5          6           0        8.319487   -1.781106    0.545432
      6          7           0        3.649938    0.242006    0.123224
      7          6           0        2.982641   -0.953849    0.257333
      8          6           0        1.476566   -0.700229    0.067388
      9          6           0        1.374655    0.726489   -0.561590
     10          6           0        2.780255    1.303936   -0.175181
     11          6           0        1.133533    0.801926   -2.087468
     12          6           0        0.639043   -0.758574    1.441500
     13          6           0       -0.571229   -1.695841    1.427663
     14          6           0       -1.374776   -1.938667    0.217723
     15          8           0       -1.247118   -2.898223   -0.510418
     16          8           0       -2.225544   -0.863911   -0.083639
     17          7           0        5.734649    2.530958   -0.179479
     18          6           0        4.502790    3.174606   -0.333530
     19          6           0        4.753027    4.587080   -0.445676
     20          6           0        6.177977    4.794011   -0.388125
     21          6           0        6.753994    3.378089   -0.246940
     22          6           0        3.597656    5.595909   -0.600218
     23          6           0        7.021525    6.100020   -0.432761
     24          8           0        8.236327    6.130377   -0.541479
     25          6           0        6.328705    7.416436   -0.349525
     26          7           0        7.907681    0.599838    0.131379
     27          6           0        8.616849    1.773225   -0.116450
     28          6           0       10.087884    1.461998   -0.283910
     29          6           0       10.169618   -0.101760   -0.086301
     30          6           0        8.701068   -0.472005    0.145242
     31          6           0       10.798419    2.018863   -1.525391
     32          6           0       11.115022   -0.412731    1.091891
     33          6           0       12.657166   -0.102842    1.003379
     34          7           0        5.910554   -1.497769    0.525678
     35          6           0        7.037607   -2.294951    0.679536
     36          6           0        6.667656   -3.680230    0.913953
     37          6           0        5.257896   -3.684291    0.807801
     38          6           0        4.877607   -2.327650    0.562686
     39          6           0        7.515326   -4.774386    1.118427
     40          6           0        4.081733   -4.547601    0.893654
     41          8           0        4.026433   -5.765677    1.150047
     42          6           0        2.825764   -3.541917    0.647074
     43          6           0        2.101331   -4.051610   -0.529528
     44          8           0        2.373994   -3.788566   -1.706954
     45          8           0        1.172214   -4.967128   -0.149029
     46          6           0        0.297106   -5.448133   -1.216365
     47          6           0       -3.090700   -0.881836   -1.177806
     48          6           0       -4.453551   -1.112325   -0.568861
     49          6           0       -5.282970   -2.192426   -0.686677
     50          6           0       -4.685464   -3.496294   -1.080719
     51          6           0       -6.730097   -2.155424   -0.187057
     52          6           0       -7.620826   -1.199233   -1.002741
     53          6           0       -7.758809    0.089581   -0.150203
     54          6           0       -9.139625    0.661427   -0.056774
     55          6           0       -9.568042    1.008157   -1.503494
     56          6           0       -9.445856    1.836901    0.899939
     57          6           0      -10.482447    1.635646    2.040596
     58          6           0      -11.501998    2.752961    2.072896
     59          6           0      -12.966351    2.263178    2.275406
     60          6           0      -13.554686    2.885611    3.603482
     61          6           0      -13.857320    2.576882    1.076811
     62          6           0      -13.559307    1.794482   -0.168394
     63          6           0      -14.765578    1.005227   -0.639857
     64          6           0      -14.389380   -0.218735   -1.644451
     65          6           0      -15.650097   -0.549410   -2.506274
     66          6           0      -13.955994   -1.434882   -0.764678
     67          1           0        2.356677    3.181126   -0.735289
     68          1           0        8.818082    3.826265   -0.537412
     69          1           0        9.062305   -2.579868    0.595502
     70          1           0        1.175918   -1.461903   -0.651997
     71          1           0        0.705699    1.496556   -0.178362
     72          1           0        2.034282    1.206948   -2.548529
     73          1           0        0.323811    1.513938   -2.245816
     74          1           0        0.930305   -0.179264   -2.516929
     75          1           0        0.335898    0.240327    1.756442
     76          1           0        1.387683   -1.279725    2.037087
     77          1           0       -1.324892   -1.345880    2.133428
     78          1           0       -0.234069   -2.711505    1.635102
     79          1           0        3.285840    5.823448    0.419468
     80          1           0        2.807795    5.114872   -1.177100
     81          1           0        3.774498    6.527890   -1.137551
     82          1           0        5.681898    7.503324    0.523656
     83          1           0        5.785153    7.551884   -1.284002
     84          1           0        7.170674    8.100372   -0.235377
     85          1           0       10.551107    1.887982    0.605763
     86          1           0       10.579880   -0.603234   -0.963395
     87          1           0       11.123107    3.026737   -1.265530
     88          1           0       10.026581    2.058214   -2.293594
     89          1           0       11.636140    1.355245   -1.738008
     90          1           0       11.087852   -1.482447    1.299213
     91          1           0       10.690073    0.133899    1.933939
     92          1           0       13.257713   -1.007077    0.905380
     93          1           0       12.921298    0.479904    1.885938
     94          1           0       12.792714    0.639940    0.217203
     95          1           0        6.954737   -5.515667    1.688093
     96          1           0        8.498393   -4.640924    1.570631
     97          1           0        7.902565   -5.202828    0.194738
     98          1           0        2.086551   -3.693826    1.433453
     99          1           0       -0.614272   -5.732331   -0.690817
    100          1           0        0.824946   -6.311710   -1.620397
    101          1           0        0.151312   -4.719003   -2.013888
    102          1           0       -2.829234   -1.703610   -1.844355
    103          1           0       -3.049684    0.073207   -1.701696
    104          1           0       -5.025450   -0.236538   -0.261833
    105          1           0       -4.249127   -3.424636   -2.076813
    106          1           0       -5.470162   -4.252639   -1.071567
    107          1           0       -3.949727   -3.760253   -0.320513
    108          1           0       -6.760532   -2.007360    0.892770
    109          1           0       -7.174289   -3.122654   -0.423253
    110          1           0       -8.553158   -1.711260   -1.242470
    111          1           0       -7.135766   -0.925083   -1.940079
    112          1           0       -7.148133    0.924568   -0.494173
    113          1           0       -7.549485   -0.059028    0.908573
    114          1           0       -9.881248   -0.104832    0.168712
    115          1           0       -8.738923    1.350456   -2.123640
    116          1           0      -10.321629    1.795563   -1.526619
    117          1           0      -10.000632    0.116883   -1.956959
    118          1           0       -9.461786    2.731225    0.275967
    119          1           0       -8.586939    2.093909    1.520038
    120          1           0       -9.977984    1.413849    2.981547
    121          1           0      -11.008767    0.711526    1.802884
    122          1           0      -11.296838    3.316585    1.162843
    123          1           0      -11.094705    3.419347    2.832855
    124          1           0      -13.014803    1.199246    2.504606
    125          1           0      -14.455133    3.476229    3.437023
    126          1           0      -12.757108    3.457292    4.078066
    127          1           0      -13.788458    2.097444    4.319327
    128          1           0      -13.851715    3.649746    0.885207
    129          1           0      -14.854106    2.325007    1.440713
    130          1           0      -12.676172    1.163918   -0.066809
    131          1           0      -13.381833    2.588974   -0.893273
    132          1           0      -15.472754    1.654753   -1.155009
    133          1           0      -15.333893    0.570473    0.183273
    134          1           0      -13.565580    0.070962   -2.297502
    135          1           0      -16.060317   -1.553097   -2.390027
    136          1           0      -15.376719   -0.375417   -3.546929
    137          1           0      -16.436790    0.191455   -2.366740
    138          1           0      -13.107717   -1.910934   -1.256905
    139          1           0      -14.729343   -2.201743   -0.723470
    140          1           0      -13.674303   -1.056133    0.217875
 ---------------------------------------------------------------------

 SCF Done:  E(RB-LYP) =  -3007.37415777     A.U. after   21 cycles

 Excitation energies and oscillator strengths:

 Excited State   1:      Singlet-A      1.7896 eV  692.80 nm  f=0.3158  <S**2>=0.000
     245 -> 248       -0.16071
     246 -> 247        0.69570
     246 <- 247       -0.15469
 This state for optimization and/or second-order correction.
 Total Energy, E(TD-HF/TD-DFT) =  -3007.30839099
 Copying the excited state density for this state as the 1-particle RhoCI density.

 Excited State   2:      Singlet-A      2.0226 eV  612.99 nm  f=0.0030  <S**2>=0.000
     244 -> 247        0.69948

 Excited State   3:      Singlet-A      2.0868 eV  594.14 nm  f=0.0206  <S**2>=0.000
     243 -> 247        0.57904
     245 -> 247       -0.36599
     246 -> 248       -0.12956

 Excited State   4:      Singlet-A      2.1199 eV  584.85 nm  f=0.0480  <S**2>=0.000
     243 -> 247        0.40281
     245 -> 247        0.51574
     246 -> 248        0.21576

 Excited State   5:      Singlet-A      2.2874 eV  542.04 nm  f=0.0003  <S**2>=0.000
     242 -> 247        0.70696

 The electronic state is 1-A.
 Alpha  occ. eigenvalues --  -46.25941 -18.81468 -18.80956 -18.77777 -18.76350
 Alpha  occ. eigenvalues --  -18.75696 -18.75298 -14.03154 -14.02931 -14.01296
 Alpha  occ. eigenvalues --  -14.00615 -10.04503 -10.02701 -10.00402  -9.99840
 Alpha  occ. eigenvalues --   -9.97665  -9.96743  -9.96183  -9.96030  -9.95977
 Alpha  occ. eigenvalues --   -9.95872  -9.95848  -9.95762  -9.95261  -9.94310
 Alpha  occ. eigenvalues --   -9.94269  -9.93991  -9.93977  -9.93928  -9.93906
 Alpha  occ. eigenvalues --   -9.93684  -9.93562  -9.93445  -9.93212  -9.92983
 Alpha  occ. eigenvalues --   -9.92931  -9.92899  -9.92840  -9.92745  -9.92647
 Alpha  occ. eigenvalues --   -9.92616  -9.92385  -9.92283  -9.92152  -9.92104
 Alpha  occ. eigenvalues --   -9.92085  -9.91968  -9.91915  -9.91908  -9.91839
 Alpha  occ. eigenvalues --   -9.91589  -9.91382  -9.91320  -9.91303  -9.91172
 Alpha  occ. eigenvalues --   -9.91148  -9.91127  -9.90943  -9.90816  -9.90805
 Alpha  occ. eigenvalues --   -9.90764  -9.90706  -9.90704  -9.90626  -9.90530
 Alpha  occ. eigenvalues --   -9.90332  -2.90799  -1.71231  -1.70648  -1.70540
 Alpha  occ. eigenvalues --   -0.98399  -0.96771  -0.91830  -0.91412  -0.90323
 Alpha  occ. eigenvalues --   -0.88119  -0.86665  -0.85909  -0.85254  -0.84149
 Alpha  occ. eigenvalues --   -0.75495  -0.74019  -0.73255  -0.72869  -0.72308
 Alpha  occ. eigenvalues --   -0.72104  -0.71996  -0.71606  -0.70899  -0.70522
 Alpha  occ. eigenvalues --   -0.69725  -0.69183  -0.68336  -0.67732  -0.67128
 Alpha  occ. eigenvalues --   -0.66660  -0.65774  -0.65506  -0.65253  -0.64699
 Alpha  occ. eigenvalues --   -0.64448  -0.62915  -0.62188  -0.61654  -0.60471
 Alpha  occ. eigenvalues --   -0.60095  -0.60012  -0.59714  -0.59287  -0.58844
 Alpha  occ. eigenvalues --   -0.58646  -0.57832  -0.57094  -0.56108  -0.54288
 Alpha  occ. eigenvalues --   -0.54026  -0.53737  -0.52659  -0.52265  -0.51542
 Alpha  occ. eigenvalues --   -0.51324  -0.50834  -0.50729  -0.50291  -0.49874
 Alpha  occ. eigenvalues --   -0.49478  -0.49069  -0.48575  -0.47408  -0.46438
 Alpha  occ. eigenvalues --   -0.46316  -0.45616  -0.45585  -0.44971  -0.44551
 Alpha  occ. eigenvalues --   -0.44035  -0.43543  -0.43276  -0.43007  -0.42637
 Alpha  occ. eigenvalues --   -0.42238  -0.41770  -0.41619  -0.41487  -0.41325
 Alpha  occ. eigenvalues --   -0.41033  -0.40803  -0.40270  -0.40217  -0.40083
 Alpha  occ. eigenvalues --   -0.39913  -0.39774  -0.39638  -0.39306  -0.39228
 Alpha  occ. eigenvalues --   -0.38945  -0.38698  -0.38547  -0.38302  -0.38168
 Alpha  occ. eigenvalues --   -0.38032  -0.37642  -0.37619  -0.37459  -0.37386
 Alpha  occ. eigenvalues --   -0.37116  -0.36892  -0.36648  -0.36612  -0.36477
 Alpha  occ. eigenvalues --   -0.36287  -0.36146  -0.35833  -0.35773  -0.35653
 Alpha  occ. eigenvalues --   -0.35584  -0.35246  -0.35134  -0.35030  -0.34611
 Alpha  occ. eigenvalues --   -0.34495  -0.34245  -0.34215  -0.33989  -0.33966
 Alpha  occ. eigenvalues --   -0.33618  -0.33501  -0.33344  -0.33208  -0.33134
 Alpha  occ. eigenvalues --   -0.33061  -0.32849  -0.32807  -0.32484  -0.32094
 Alpha  occ. eigenvalues --   -0.31992  -0.31917  -0.31663  -0.31615  -0.31252
 Alpha  occ. eigenvalues --   -0.31201  -0.30993  -0.30932  -0.30595  -0.30548
 Alpha  occ. eigenvalues --   -0.30415  -0.30346  -0.30211  -0.29957  -0.29693
 Alpha  occ. eigenvalues --   -0.29223  -0.29197  -0.29033  -0.28968  -0.28837
 Alpha  occ. eigenvalues --   -0.28829  -0.28558  -0.28140  -0.27839  -0.27655
 Alpha  occ. eigenvalues --   -0.27535  -0.27183  -0.27106  -0.26695  -0.26498
 Alpha  occ. eigenvalues --   -0.26210  -0.26011  -0.25363  -0.25154  -0.25103
 Alpha  occ. eigenvalues --   -0.24786  -0.24262  -0.23955  -0.23744  -0.23483
 Alpha  occ. eigenvalues --   -0.23057  -0.22781  -0.22209  -0.20749  -0.20651
 Alpha  occ. eigenvalues --   -0.20466  -0.19889  -0.19058  -0.18845  -0.17643
 Alpha  occ. eigenvalues --   -0.15669
 Alpha virt. eigenvalues --   -0.11484  -0.06824  -0.06089  -0.04707  -0.03985
 Alpha virt. eigenvalues --   -0.02847  -0.01986  -0.01607  -0.01074   0.00638
 Alpha virt. eigenvalues --    0.01326   0.01553   0.01783   0.02450   0.03075

 Mulliken charges:
               1
     1  Mg   0.710668
     2  C    0.050768
     3  C   -0.059908
     4  C   -0.061345
     5  C   -0.081427
     6  N   -0.245893
     7  C   -0.106946
     8  C   -0.015831
     9  C   -0.022665
    10  C   -0.023203
    11  C    0.131961
    12  C    0.176141
    13  C    0.143736
    14  C    0.052461
    15  O   -0.181864
    16  O   -0.279641
    17  N   -0.326511
    18  C    0.207796
    19  C   -0.143233
    20  C   -0.000827
    21  C    0.101430
    22  C    0.155755
    23  C   -0.073291
    24  O   -0.161102
    25  C    0.124034
    26  N   -0.224101
    27  C    0.029430
    28  C    0.016431
    29  C    0.035642
    30  C    0.050919
    31  C    0.145633
    32  C    0.032326
    33  C    0.085722
    34  N   -0.209136
    35  C    0.111423
    36  C   -0.123088
    37  C    0.071385
    38  C    0.104745
    39  C    0.153984
    40  C   -0.029040
    41  O   -0.142650
    42  C    0.030159
    43  C    0.101297
    44  O   -0.213073
    45  O   -0.265832
    46  C    0.238777
    47  C    0.351133
    48  C   -0.094860
    49  C   -0.240422
    50  C    0.163993
    51  C    0.172181
    52  C    0.090646
    53  C    0.097479
    54  C   -0.091852
    55  C    0.086031
    56  C    0.095096
    57  C    0.057837
    58  C    0.130140
    59  C   -0.082143
    60  C    0.105013
    61  C    0.100906
    62  C    0.115992
    63  C    0.042727
    64  C   -0.107614
    65  C    0.110069
    66  C    0.103860
    67  H   -0.070445
    68  H   -0.047461
    69  H   -0.067730
    70  H    0.007033
    71  H   -0.031680
    72  H   -0.005462
    73  H   -0.012703
    74  H    0.010697
    75  H   -0.000278
    76  H   -0.015375
    77  H   -0.004730
    78  H    0.000862
    79  H    0.010072
    80  H   -0.000258
    81  H   -0.012340
    82  H    0.005473
    83  H    0.021074
    84  H   -0.006100
    85  H   -0.025813
    86  H   -0.031765
    87  H    0.006161
    88  H   -0.000623
    89  H    0.002249
    90  H   -0.023047
    91  H   -0.019691
    92  H    0.009291
    93  H   -0.010780
    94  H   -0.019875
    95  H    0.018293
    96  H   -0.023975
    97  H   -0.001709
    98  H   -0.004310
    99  H    0.014026
   100  H    0.003929
   101  H    0.024972
   102  H   -0.023296
   103  H   -0.012391
   104  H   -0.049450
   105  H    0.009831
   106  H   -0.030206
   107  H    0.017104
   108  H    0.001508
   109  H   -0.054195
   110  H   -0.020111
   111  H   -0.022422
   112  H   -0.018973
   113  H   -0.032346
   114  H   -0.047824
   115  H   -0.028170
   116  H   -0.019123
   117  H   -0.016282
   118  H   -0.038397
   119  H   -0.057963
   120  H   -0.025656
   121  H   -0.035069
   122  H   -0.036064
   123  H   -0.036167
   124  H   -0.029613
   125  H   -0.014647
   126  H   -0.026059
   127  H   -0.024326
   128  H   -0.034724
   129  H   -0.039985
   130  H   -0.013857
   131  H   -0.032905
   132  H   -0.033057
   133  H   -0.029327
   134  H   -0.025369
   135  H   -0.009986
   136  H   -0.023079
   137  H   -0.023773
   138  H   -0.018269
   139  H   -0.014554
   140  H   -0.007010
 Sum of Mulliken charges =  -0.00000

 Dipole moment (field-independent basis, Debye):
    X=             -2.5608    Y=              2.8076    Z=              1.0285  Tot=              3.9368
 Quadrupole moment (field-independent basis, Debye-Ang):
   XX=           -378.3177   YY=           -431.8910   ZZ=           -406.4778
   XY=             -7.2504   XZ=             10.0469   YZ=              1.1102

 Normal termination of Gaussian 16 at Fri Apr 29 03:03:25 2022.
