 Gaussian 16, Revision A.03,
 Gaussian 16:  ES64L-G16RevA.03 25-Dec-2016

 -----------------------------------
 #p cam-b3lyp/Def2SVP td=(nstates=5)
 -----------------------------------

 -------------------------------------------------------
 step_1801_chromophore_4 TDDFT with cam-b3lyp functional
 -------------------------------------------------------
 Symbolic Z-matrix:
 Charge =  0 Multiplicity = 1

                         Standard orientation:
 ---------------------------------------------------------------------
 Center     Atomic      Atomic             Coordinates (Angstroms)
 Number     Number       Type             X           Y           Z
 ---------------------------------------------------------------------
      1         12           0        5.791229    0.618300    0.283735
      2          6           0        3.548661   -2.180297    0.446246
      3          6           0        3.209830    2.590250   -0.396602
      4          6           0        8.104660    3.038195   -0.291069
      5          6           0        8.319487   -1.781106    0.545432
      6          7           0        3.649938    0.242006    0.123224
      7          6           0        2.982641   -0.953849    0.257333
      8          6           0        1.476566   -0.700229    0.067388
      9          6           0        1.374655    0.726489   -0.561590
     10          6           0        2.780255    1.303936   -0.175181
     11          6           0        1.133533    0.801926   -2.087468
     12          6           0        0.639043   -0.758574    1.441500
     13          6           0       -0.571229   -1.695841    1.427663
     14          6           0       -1.374776   -1.938667    0.217723
     15          8           0       -1.247118   -2.898223   -0.510418
     16          8           0       -2.225544   -0.863911   -0.083639
     17          7           0        5.734649    2.530958   -0.179479
     18          6           0        4.502790    3.174606   -0.333530
     19          6           0        4.753027    4.587080   -0.445676
     20          6           0        6.177977    4.794011   -0.388125
     21          6           0        6.753994    3.378089   -0.246940
     22          6           0        3.597656    5.595909   -0.600218
     23          6           0        7.021525    6.100020   -0.432761
     24          8           0        8.236327    6.130377   -0.541479
     25          6           0        6.328705    7.416436   -0.349525
     26          7           0        7.907681    0.599838    0.131379
     27          6           0        8.616849    1.773225   -0.116450
     28          6           0       10.087884    1.461998   -0.283910
     29          6           0       10.169618   -0.101760   -0.086301
     30          6           0        8.701068   -0.472005    0.145242
     31          6           0       10.798419    2.018863   -1.525391
     32          6           0       11.115022   -0.412731    1.091891
     33          6           0       12.657166   -0.102842    1.003379
     34          7           0        5.910554   -1.497769    0.525678
     35          6           0        7.037607   -2.294951    0.679536
     36          6           0        6.667656   -3.680230    0.913953
     37          6           0        5.257896   -3.684291    0.807801
     38          6           0        4.877607   -2.327650    0.562686
     39          6           0        7.515326   -4.774386    1.118427
     40          6           0        4.081733   -4.547601    0.893654
     41          8           0        4.026433   -5.765677    1.150047
     42          6           0        2.825764   -3.541917    0.647074
     43          6           0        2.101331   -4.051610   -0.529528
     44          8           0        2.373994   -3.788566   -1.706954
     45          8           0        1.172214   -4.967128   -0.149029
     46          6           0        0.297106   -5.448133   -1.216365
     47          6           0       -3.090700   -0.881836   -1.177806
     48          6           0       -4.453551   -1.112325   -0.568861
     49          6           0       -5.282970   -2.192426   -0.686677
     50          6           0       -4.685464   -3.496294   -1.080719
     51          6           0       -6.730097   -2.155424   -0.187057
     52          6           0       -7.620826   -1.199233   -1.002741
     53          6           0       -7.758809    0.089581   -0.150203
     54          6           0       -9.139625    0.661427   -0.056774
     55          6           0       -9.568042    1.008157   -1.503494
     56          6           0       -9.445856    1.836901    0.899939
     57          6           0      -10.482447    1.635646    2.040596
     58          6           0      -11.501998    2.752961    2.072896
     59          6           0      -12.966351    2.263178    2.275406
     60          6           0      -13.554686    2.885611    3.603482
     61          6           0      -13.857320    2.576882    1.076811
     62          6           0      -13.559307    1.794482   -0.168394
     63          6           0      -14.765578    1.005227   -0.639857
     64          6           0      -14.389380   -0.218735   -1.644451
     65          6           0      -15.650097   -0.549410   -2.506274
     66          6           0      -13.955994   -1.434882   -0.764678
     67          1           0        2.356677    3.181126   -0.735289
     68          1           0        8.818082    3.826265   -0.537412
     69          1           0        9.062305   -2.579868    0.595502
     70          1           0        1.175918   -1.461903   -0.651997
     71          1           0        0.705699    1.496556   -0.178362
     72          1           0        2.034282    1.206948   -2.548529
     73          1           0        0.323811    1.513938   -2.245816
     74          1           0        0.930305   -0.179264   -2.516929
     75          1           0        0.335898    0.240327    1.756442
     76          1           0        1.387683   -1.279725    2.037087
     77          1           0       -1.324892   -1.345880    2.133428
     78          1           0       -0.234069   -2.711505    1.635102
     79          1           0        3.285840    5.823448    0.419468
     80          1           0        2.807795    5.114872   -1.177100
     81          1           0        3.774498    6.527890   -1.137551
     82          1           0        5.681898    7.503324    0.523656
     83          1           0        5.785153    7.551884   -1.284002
     84          1           0        7.170674    8.100372   -0.235377
     85          1           0       10.551107    1.887982    0.605763
     86          1           0       10.579880   -0.603234   -0.963395
     87          1           0       11.123107    3.026737   -1.265530
     88          1           0       10.026581    2.058214   -2.293594
     89          1           0       11.636140    1.355245   -1.738008
     90          1           0       11.087852   -1.482447    1.299213
     91          1           0       10.690073    0.133899    1.933939
     92          1           0       13.257713   -1.007077    0.905380
     93          1           0       12.921298    0.479904    1.885938
     94          1           0       12.792714    0.639940    0.217203
     95          1           0        6.954737   -5.515667    1.688093
     96          1           0        8.498393   -4.640924    1.570631
     97          1           0        7.902565   -5.202828    0.194738
     98          1           0        2.086551   -3.693826    1.433453
     99          1           0       -0.614272   -5.732331   -0.690817
    100          1           0        0.824946   -6.311710   -1.620397
    101          1           0        0.151312   -4.719003   -2.013888
    102          1           0       -2.829234   -1.703610   -1.844355
    103          1           0       -3.049684    0.073207   -1.701696
    104          1           0       -5.025450   -0.236538   -0.261833
    105          1           0       -4.249127   -3.424636   -2.076813
    106          1           0       -5.470162   -4.252639   -1.071567
    107          1           0       -3.949727   -3.760253   -0.320513
    108          1           0       -6.760532   -2.007360    0.892770
    109          1           0       -7.174289   -3.122654   -0.423253
    110          1           0       -8.553158   -1.711260   -1.242470
    111          1           0       -7.135766   -0.925083   -1.940079
    112          1           0       -7.148133    0.924568   -0.494173
    113          1           0       -7.549485   -0.059028    0.908573
    114          1           0       -9.881248   -0.104832    0.168712
    115          1           0       -8.738923    1.350456   -2.123640
    116          1           0      -10.321629    1.795563   -1.526619
    117          1           0      -10.000632    0.116883   -1.956959
    118          1           0       -9.461786    2.731225    0.275967
    119          1           0       -8.586939    2.093909    1.520038
    120          1           0       -9.977984    1.413849    2.981547
    121          1           0      -11.008767    0.711526    1.802884
    122          1           0      -11.296838    3.316585    1.162843
    123          1           0      -11.094705    3.419347    2.832855
    124          1           0      -13.014803    1.199246    2.504606
    125          1           0      -14.455133    3.476229    3.437023
    126          1           0      -12.757108    3.457292    4.078066
    127          1           0      -13.788458    2.097444    4.319327
    128          1           0      -13.851715    3.649746    0.885207
    129          1           0      -14.854106    2.325007    1.440713
    130          1           0      -12.676172    1.163918   -0.066809
    131          1           0      -13.381833    2.588974   -0.893273
    132          1           0      -15.472754    1.654753   -1.155009
    133          1           0      -15.333893    0.570473    0.183273
    134          1           0      -13.565580    0.070962   -2.297502
    135          1           0      -16.060317   -1.553097   -2.390027
    136          1           0      -15.376719   -0.375417   -3.546929
    137          1           0      -16.436790    0.191455   -2.366740
    138          1           0      -13.107717   -1.910934   -1.256905
    139          1           0      -14.729343   -2.201743   -0.723470
    140          1           0      -13.674303   -1.056133    0.217875
 ---------------------------------------------------------------------

 SCF Done:  E(RCAM-B3LYP) =  -3007.17722990     A.U. after   18 cycles

 Excitation energies and oscillator strengths:

 Excited State   1:      Singlet-A      1.7036 eV  727.80 nm  f=0.3850  <S**2>=0.000
     245 -> 248       -0.16454
     246 -> 247        0.68908
     245 <- 248       -0.10424
 This state for optimization and/or second-order correction.
 Total Energy, E(TD-HF/TD-DFT) =  -3007.11462549
 Copying the excited state density for this state as the 1-particle RhoCI density.

 Excited State   2:      Singlet-A      2.3395 eV  529.96 nm  f=0.0893  <S**2>=0.000
     245 -> 247        0.62110
     246 -> 248        0.32270

 Excited State   3:      Singlet-A      3.4356 eV  360.88 nm  f=0.0002  <S**2>=0.000
     240 -> 247        0.56348
     240 -> 249       -0.35247
     240 -> 250        0.11420
     242 -> 247        0.11552

 Excited State   4:      Singlet-A      3.4601 eV  358.33 nm  f=0.1113  <S**2>=0.000
     242 -> 247        0.54107
     243 -> 247       -0.25609
     245 -> 247        0.11702
     246 -> 248       -0.31876

 Excited State   5:      Singlet-A      3.5846 eV  345.88 nm  f=0.5861  <S**2>=0.000
     242 -> 247        0.17020
     243 -> 247       -0.35812
     245 -> 247       -0.27540
     246 -> 248        0.50426

 The electronic state is 1-A.
 Alpha  occ. eigenvalues --  -46.87405 -19.24276 -19.24072 -19.20921 -19.19931
 Alpha  occ. eigenvalues --  -19.18608 -19.18562 -14.42112 -14.41713 -14.39576
 Alpha  occ. eigenvalues --  -14.39190 -10.39951 -10.38386 -10.36271 -10.34711
 Alpha  occ. eigenvalues --  -10.31650 -10.31501 -10.30941 -10.30125 -10.30032
 Alpha  occ. eigenvalues --  -10.30002 -10.29985 -10.29724 -10.29615 -10.29048
 Alpha  occ. eigenvalues --  -10.28653 -10.28625 -10.28310 -10.28165 -10.27990
 Alpha  occ. eigenvalues --  -10.27808 -10.27679 -10.27433 -10.27072 -10.26933
 Alpha  occ. eigenvalues --  -10.26876 -10.26859 -10.26841 -10.26820 -10.26727
 Alpha  occ. eigenvalues --  -10.26468 -10.26175 -10.25984 -10.25944 -10.25902
 Alpha  occ. eigenvalues --  -10.25825 -10.25793 -10.25737 -10.25661 -10.25655
 Alpha  occ. eigenvalues --  -10.25500 -10.25358 -10.25008 -10.24939 -10.24882
 Alpha  occ. eigenvalues --  -10.24792 -10.24783 -10.24626 -10.24546 -10.24476
 Alpha  occ. eigenvalues --  -10.24416 -10.24346 -10.24313 -10.24237 -10.24154
 Alpha  occ. eigenvalues --  -10.23942  -3.16176  -1.91081  -1.90601  -1.90519
 Alpha  occ. eigenvalues --   -1.16928  -1.15493  -1.09929  -1.09373  -1.09027
 Alpha  occ. eigenvalues --   -1.06266  -1.04616  -1.03572  -1.02607  -1.01620
 Alpha  occ. eigenvalues --   -0.92853  -0.90911  -0.90084  -0.89668  -0.89140
 Alpha  occ. eigenvalues --   -0.88745  -0.88702  -0.88433  -0.87400  -0.87085
 Alpha  occ. eigenvalues --   -0.86085  -0.85493  -0.84614  -0.84117  -0.83215
 Alpha  occ. eigenvalues --   -0.82719  -0.81784  -0.81465  -0.81147  -0.80612
 Alpha  occ. eigenvalues --   -0.80300  -0.78685  -0.77740  -0.77067  -0.75884
 Alpha  occ. eigenvalues --   -0.75443  -0.75369  -0.75020  -0.74573  -0.74085
 Alpha  occ. eigenvalues --   -0.73729  -0.72948  -0.71967  -0.70974  -0.68883
 Alpha  occ. eigenvalues --   -0.68603  -0.68508  -0.67083  -0.66553  -0.65798
 Alpha  occ. eigenvalues --   -0.65566  -0.64790  -0.64718  -0.64241  -0.63862
 Alpha  occ. eigenvalues --   -0.63319  -0.63018  -0.62446  -0.61295  -0.60169
 Alpha  occ. eigenvalues --   -0.59928  -0.59101  -0.59033  -0.58398  -0.57963
 Alpha  occ. eigenvalues --   -0.57601  -0.56937  -0.56639  -0.56423  -0.56030
 Alpha  occ. eigenvalues --   -0.55226  -0.54804  -0.54550  -0.54326  -0.54147
 Alpha  occ. eigenvalues --   -0.54017  -0.53769  -0.53323  -0.53067  -0.52795
 Alpha  occ. eigenvalues --   -0.52587  -0.52388  -0.52237  -0.51912  -0.51799
 Alpha  occ. eigenvalues --   -0.51548  -0.51391  -0.51070  -0.50923  -0.50581
 Alpha  occ. eigenvalues --   -0.50478  -0.50079  -0.49895  -0.49849  -0.49603
 Alpha  occ. eigenvalues --   -0.49296  -0.49086  -0.49014  -0.49001  -0.48693
 Alpha  occ. eigenvalues --   -0.48579  -0.48371  -0.48270  -0.47982  -0.47784
 Alpha  occ. eigenvalues --   -0.47734  -0.47558  -0.47091  -0.46948  -0.46704
 Alpha  occ. eigenvalues --   -0.46483  -0.46333  -0.45986  -0.45860  -0.45676
 Alpha  occ. eigenvalues --   -0.45413  -0.45276  -0.45142  -0.45083  -0.44872
 Alpha  occ. eigenvalues --   -0.44763  -0.44524  -0.44472  -0.44143  -0.43966
 Alpha  occ. eigenvalues --   -0.43568  -0.43523  -0.43279  -0.43053  -0.42925
 Alpha  occ. eigenvalues --   -0.42553  -0.42494  -0.42362  -0.42184  -0.42009
 Alpha  occ. eigenvalues --   -0.41848  -0.41688  -0.41608  -0.41369  -0.41127
 Alpha  occ. eigenvalues --   -0.40932  -0.40445  -0.40428  -0.40136  -0.40055
 Alpha  occ. eigenvalues --   -0.39849  -0.39807  -0.39161  -0.38855  -0.38696
 Alpha  occ. eigenvalues --   -0.38484  -0.38027  -0.38004  -0.37471  -0.37426
 Alpha  occ. eigenvalues --   -0.36995  -0.36906  -0.36095  -0.36081  -0.35889
 Alpha  occ. eigenvalues --   -0.35648  -0.35490  -0.34841  -0.34681  -0.33958
 Alpha  occ. eigenvalues --   -0.33918  -0.33464  -0.33148  -0.31455  -0.31213
 Alpha  occ. eigenvalues --   -0.30731  -0.30195  -0.29687  -0.29521  -0.24526
 Alpha  occ. eigenvalues --   -0.20874
 Alpha virt. eigenvalues --   -0.08505  -0.01554   0.00208   0.02395   0.03278
 Alpha virt. eigenvalues --    0.03610   0.04668   0.05458   0.05912   0.06811
 Alpha virt. eigenvalues --    0.07736   0.08224   0.08316   0.09210   0.09354

 Mulliken charges:
               1
     1  Mg   0.846872
     2  C    0.011267
     3  C   -0.077329
     4  C   -0.071475
     5  C   -0.090637
     6  N   -0.318207
     7  C   -0.048140
     8  C   -0.077155
     9  C   -0.069022
    10  C   -0.002374
    11  C    0.075023
    12  C    0.128290
    13  C    0.071188
    14  C    0.138222
    15  O   -0.222485
    16  O   -0.343428
    17  N   -0.415543
    18  C    0.205024
    19  C   -0.154833
    20  C   -0.067745
    21  C    0.119683
    22  C    0.103641
    23  C    0.006506
    24  O   -0.205510
    25  C    0.042765
    26  N   -0.296746
    27  C    0.046227
    28  C   -0.042514
    29  C   -0.021048
    30  C    0.078954
    31  C    0.086975
    32  C   -0.020112
    33  C    0.026263
    34  N   -0.299974
    35  C    0.121127
    36  C   -0.115705
    37  C   -0.001336
    38  C    0.141221
    39  C    0.089141
    40  C    0.071060
    41  O   -0.178392
    42  C   -0.038884
    43  C    0.191060
    44  O   -0.248418
    45  O   -0.327022
    46  C    0.196814
    47  C    0.307624
    48  C   -0.110955
    49  C   -0.250502
    50  C    0.095105
    51  C    0.107434
    52  C    0.030503
    53  C    0.045190
    54  C   -0.139753
    55  C    0.028819
    56  C    0.034196
    57  C    0.010342
    58  C    0.070702
    59  C   -0.139497
    60  C    0.049547
    61  C    0.050329
    62  C    0.060691
    63  C   -0.008030
    64  C   -0.162687
    65  C    0.049935
    66  C    0.048205
    67  H   -0.036587
    68  H   -0.004977
    69  H   -0.031986
    70  H    0.036712
    71  H    0.003004
    72  H    0.021648
    73  H    0.010017
    74  H    0.032793
    75  H    0.030548
    76  H    0.015650
    77  H    0.029950
    78  H    0.029032
    79  H    0.035155
    80  H    0.023081
    81  H    0.012549
    82  H    0.032707
    83  H    0.045099
    84  H    0.027862
    85  H    0.008881
    86  H    0.003744
    87  H    0.029648
    88  H    0.025256
    89  H    0.022363
    90  H    0.004096
    91  H    0.008497
    92  H    0.032427
    93  H    0.014498
    94  H    0.001455
    95  H    0.047314
    96  H    0.005892
    97  H    0.030161
    98  H    0.038101
    99  H    0.037689
   100  H    0.028382
   101  H    0.050080
   102  H    0.010992
   103  H    0.016551
   104  H   -0.018925
   105  H    0.033006
   106  H   -0.003169
   107  H    0.040370
   108  H    0.031338
   109  H   -0.020742
   110  H    0.008733
   111  H    0.008429
   112  H    0.006377
   113  H   -0.005064
   114  H   -0.017750
   115  H   -0.003297
   116  H    0.004108
   117  H    0.005899
   118  H   -0.008082
   119  H   -0.025467
   120  H    0.002649
   121  H   -0.009725
   122  H   -0.007001
   123  H   -0.006080
   124  H    0.001200
   125  H    0.009555
   126  H   -0.001487
   127  H    0.000270
   128  H   -0.005649
   129  H   -0.010757
   130  H    0.005537
   131  H   -0.003504
   132  H   -0.004778
   133  H   -0.001926
   134  H    0.004583
   135  H    0.013369
   136  H    0.001360
   137  H    0.000754
   138  H    0.004934
   139  H    0.009016
   140  H    0.013150
 Sum of Mulliken charges =  -0.00000

 Dipole moment (field-independent basis, Debye):
    X=             -2.6924    Y=              2.2751    Z=              1.2310  Tot=              3.7337
 Quadrupole moment (field-independent basis, Debye-Ang):
   XX=           -375.6860   YY=           -428.9787   ZZ=           -406.3870
   XY=            -11.5583   XZ=             11.3499   YZ=              0.8043

 Normal termination of Gaussian 16 at Fri Apr 29 01:54:21 2022.
