 Gaussian 16, Revision A.03,
 Gaussian 16:  ES64L-G16RevA.03 25-Dec-2016

 ---------------------------------
 #p PBE1PBE/Def2SVP td=(nstates=5)
 ---------------------------------

 -----------------------------------------------------
 step_1801_chromophore_4 TDDFT with PBE1PBE functional
 -----------------------------------------------------
 Symbolic Z-matrix:
 Charge =  0 Multiplicity = 1

                         Standard orientation:
 ---------------------------------------------------------------------
 Center     Atomic      Atomic             Coordinates (Angstroms)
 Number     Number       Type             X           Y           Z
 ---------------------------------------------------------------------
      1         12           0        5.791229    0.618300    0.283735
      2          6           0        3.548661   -2.180297    0.446246
      3          6           0        3.209830    2.590250   -0.396602
      4          6           0        8.104660    3.038195   -0.291069
      5          6           0        8.319487   -1.781106    0.545432
      6          7           0        3.649938    0.242006    0.123224
      7          6           0        2.982641   -0.953849    0.257333
      8          6           0        1.476566   -0.700229    0.067388
      9          6           0        1.374655    0.726489   -0.561590
     10          6           0        2.780255    1.303936   -0.175181
     11          6           0        1.133533    0.801926   -2.087468
     12          6           0        0.639043   -0.758574    1.441500
     13          6           0       -0.571229   -1.695841    1.427663
     14          6           0       -1.374776   -1.938667    0.217723
     15          8           0       -1.247118   -2.898223   -0.510418
     16          8           0       -2.225544   -0.863911   -0.083639
     17          7           0        5.734649    2.530958   -0.179479
     18          6           0        4.502790    3.174606   -0.333530
     19          6           0        4.753027    4.587080   -0.445676
     20          6           0        6.177977    4.794011   -0.388125
     21          6           0        6.753994    3.378089   -0.246940
     22          6           0        3.597656    5.595909   -0.600218
     23          6           0        7.021525    6.100020   -0.432761
     24          8           0        8.236327    6.130377   -0.541479
     25          6           0        6.328705    7.416436   -0.349525
     26          7           0        7.907681    0.599838    0.131379
     27          6           0        8.616849    1.773225   -0.116450
     28          6           0       10.087884    1.461998   -0.283910
     29          6           0       10.169618   -0.101760   -0.086301
     30          6           0        8.701068   -0.472005    0.145242
     31          6           0       10.798419    2.018863   -1.525391
     32          6           0       11.115022   -0.412731    1.091891
     33          6           0       12.657166   -0.102842    1.003379
     34          7           0        5.910554   -1.497769    0.525678
     35          6           0        7.037607   -2.294951    0.679536
     36          6           0        6.667656   -3.680230    0.913953
     37          6           0        5.257896   -3.684291    0.807801
     38          6           0        4.877607   -2.327650    0.562686
     39          6           0        7.515326   -4.774386    1.118427
     40          6           0        4.081733   -4.547601    0.893654
     41          8           0        4.026433   -5.765677    1.150047
     42          6           0        2.825764   -3.541917    0.647074
     43          6           0        2.101331   -4.051610   -0.529528
     44          8           0        2.373994   -3.788566   -1.706954
     45          8           0        1.172214   -4.967128   -0.149029
     46          6           0        0.297106   -5.448133   -1.216365
     47          6           0       -3.090700   -0.881836   -1.177806
     48          6           0       -4.453551   -1.112325   -0.568861
     49          6           0       -5.282970   -2.192426   -0.686677
     50          6           0       -4.685464   -3.496294   -1.080719
     51          6           0       -6.730097   -2.155424   -0.187057
     52          6           0       -7.620826   -1.199233   -1.002741
     53          6           0       -7.758809    0.089581   -0.150203
     54          6           0       -9.139625    0.661427   -0.056774
     55          6           0       -9.568042    1.008157   -1.503494
     56          6           0       -9.445856    1.836901    0.899939
     57          6           0      -10.482447    1.635646    2.040596
     58          6           0      -11.501998    2.752961    2.072896
     59          6           0      -12.966351    2.263178    2.275406
     60          6           0      -13.554686    2.885611    3.603482
     61          6           0      -13.857320    2.576882    1.076811
     62          6           0      -13.559307    1.794482   -0.168394
     63          6           0      -14.765578    1.005227   -0.639857
     64          6           0      -14.389380   -0.218735   -1.644451
     65          6           0      -15.650097   -0.549410   -2.506274
     66          6           0      -13.955994   -1.434882   -0.764678
     67          1           0        2.356677    3.181126   -0.735289
     68          1           0        8.818082    3.826265   -0.537412
     69          1           0        9.062305   -2.579868    0.595502
     70          1           0        1.175918   -1.461903   -0.651997
     71          1           0        0.705699    1.496556   -0.178362
     72          1           0        2.034282    1.206948   -2.548529
     73          1           0        0.323811    1.513938   -2.245816
     74          1           0        0.930305   -0.179264   -2.516929
     75          1           0        0.335898    0.240327    1.756442
     76          1           0        1.387683   -1.279725    2.037087
     77          1           0       -1.324892   -1.345880    2.133428
     78          1           0       -0.234069   -2.711505    1.635102
     79          1           0        3.285840    5.823448    0.419468
     80          1           0        2.807795    5.114872   -1.177100
     81          1           0        3.774498    6.527890   -1.137551
     82          1           0        5.681898    7.503324    0.523656
     83          1           0        5.785153    7.551884   -1.284002
     84          1           0        7.170674    8.100372   -0.235377
     85          1           0       10.551107    1.887982    0.605763
     86          1           0       10.579880   -0.603234   -0.963395
     87          1           0       11.123107    3.026737   -1.265530
     88          1           0       10.026581    2.058214   -2.293594
     89          1           0       11.636140    1.355245   -1.738008
     90          1           0       11.087852   -1.482447    1.299213
     91          1           0       10.690073    0.133899    1.933939
     92          1           0       13.257713   -1.007077    0.905380
     93          1           0       12.921298    0.479904    1.885938
     94          1           0       12.792714    0.639940    0.217203
     95          1           0        6.954737   -5.515667    1.688093
     96          1           0        8.498393   -4.640924    1.570631
     97          1           0        7.902565   -5.202828    0.194738
     98          1           0        2.086551   -3.693826    1.433453
     99          1           0       -0.614272   -5.732331   -0.690817
    100          1           0        0.824946   -6.311710   -1.620397
    101          1           0        0.151312   -4.719003   -2.013888
    102          1           0       -2.829234   -1.703610   -1.844355
    103          1           0       -3.049684    0.073207   -1.701696
    104          1           0       -5.025450   -0.236538   -0.261833
    105          1           0       -4.249127   -3.424636   -2.076813
    106          1           0       -5.470162   -4.252639   -1.071567
    107          1           0       -3.949727   -3.760253   -0.320513
    108          1           0       -6.760532   -2.007360    0.892770
    109          1           0       -7.174289   -3.122654   -0.423253
    110          1           0       -8.553158   -1.711260   -1.242470
    111          1           0       -7.135766   -0.925083   -1.940079
    112          1           0       -7.148133    0.924568   -0.494173
    113          1           0       -7.549485   -0.059028    0.908573
    114          1           0       -9.881248   -0.104832    0.168712
    115          1           0       -8.738923    1.350456   -2.123640
    116          1           0      -10.321629    1.795563   -1.526619
    117          1           0      -10.000632    0.116883   -1.956959
    118          1           0       -9.461786    2.731225    0.275967
    119          1           0       -8.586939    2.093909    1.520038
    120          1           0       -9.977984    1.413849    2.981547
    121          1           0      -11.008767    0.711526    1.802884
    122          1           0      -11.296838    3.316585    1.162843
    123          1           0      -11.094705    3.419347    2.832855
    124          1           0      -13.014803    1.199246    2.504606
    125          1           0      -14.455133    3.476229    3.437023
    126          1           0      -12.757108    3.457292    4.078066
    127          1           0      -13.788458    2.097444    4.319327
    128          1           0      -13.851715    3.649746    0.885207
    129          1           0      -14.854106    2.325007    1.440713
    130          1           0      -12.676172    1.163918   -0.066809
    131          1           0      -13.381833    2.588974   -0.893273
    132          1           0      -15.472754    1.654753   -1.155009
    133          1           0      -15.333893    0.570473    0.183273
    134          1           0      -13.565580    0.070962   -2.297502
    135          1           0      -16.060317   -1.553097   -2.390027
    136          1           0      -15.376719   -0.375417   -3.546929
    137          1           0      -16.436790    0.191455   -2.366740
    138          1           0      -13.107717   -1.910934   -1.256905
    139          1           0      -14.729343   -2.201743   -0.723470
    140          1           0      -13.674303   -1.056133    0.217875
 ---------------------------------------------------------------------

 SCF Done:  E(RPBE1PBE) =  -3005.36488874     A.U. after   15 cycles

 Excitation energies and oscillator strengths:

 Excited State   1:      Singlet-A      1.8380 eV  674.56 nm  f=0.3765  <S**2>=0.000
     245 -> 248       -0.15655
     246 -> 247        0.69702
     246 <- 247       -0.11146
 This state for optimization and/or second-order correction.
 Total Energy, E(TD-HF/TD-DFT) =  -3005.29734352
 Copying the excited state density for this state as the 1-particle RhoCI density.

 Excited State   2:      Singlet-A      2.3370 eV  530.53 nm  f=0.0917  <S**2>=0.000
     245 -> 247        0.63603
     246 -> 248        0.29045

 Excited State   3:      Singlet-A      3.0423 eV  407.53 nm  f=0.0002  <S**2>=0.000
     240 -> 247        0.66347
     240 -> 249       -0.19973

 Excited State   4:      Singlet-A      3.1547 eV  393.02 nm  f=0.0051  <S**2>=0.000
     242 -> 247        0.19025
     243 -> 247        0.65451
     246 -> 248        0.11373

 Excited State   5:      Singlet-A      3.1975 eV  387.75 nm  f=0.0010  <S**2>=0.000
     241 -> 247        0.38625
     241 -> 250        0.10472
     242 -> 247        0.54952
     243 -> 247       -0.10102

 The electronic state is 1-A.
 Alpha  occ. eigenvalues --  -46.90816 -19.24917 -19.24615 -19.21052 -19.19931
 Alpha  occ. eigenvalues --  -19.19002 -19.18724 -14.41574 -14.41336 -14.39365
 Alpha  occ. eigenvalues --  -14.38730 -10.36855 -10.35260 -10.33227 -10.32064
 Alpha  occ. eigenvalues --  -10.29003 -10.28980 -10.28484 -10.28135 -10.27902
 Alpha  occ. eigenvalues --  -10.27735 -10.27709 -10.27388 -10.27195 -10.26537
 Alpha  occ. eigenvalues --  -10.26028 -10.26019 -10.25947 -10.25878 -10.25868
 Alpha  occ. eigenvalues --  -10.25704 -10.25203 -10.25087 -10.24974 -10.24811
 Alpha  occ. eigenvalues --  -10.24655 -10.24595 -10.24532 -10.24468 -10.24415
 Alpha  occ. eigenvalues --  -10.24064 -10.23874 -10.23451 -10.23413 -10.23405
 Alpha  occ. eigenvalues --  -10.23396 -10.23369 -10.23358 -10.23202 -10.23089
 Alpha  occ. eigenvalues --  -10.23049 -10.22803 -10.22701 -10.22453 -10.22365
 Alpha  occ. eigenvalues --  -10.22326 -10.22295 -10.22201 -10.22074 -10.21935
 Alpha  occ. eigenvalues --  -10.21917 -10.21907 -10.21775 -10.21713 -10.21570
 Alpha  occ. eigenvalues --  -10.21358  -3.13161  -1.86009  -1.85506  -1.85428
 Alpha  occ. eigenvalues --   -1.11646  -1.10152  -1.04880  -1.04156  -1.03535
 Alpha  occ. eigenvalues --   -1.00950  -0.99103  -0.98193  -0.97413  -0.96274
 Alpha  occ. eigenvalues --   -0.87076  -0.85021  -0.84191  -0.83798  -0.83409
 Alpha  occ. eigenvalues --   -0.83028  -0.82851  -0.82668  -0.81778  -0.81186
 Alpha  occ. eigenvalues --   -0.80431  -0.79865  -0.78784  -0.78353  -0.77511
 Alpha  occ. eigenvalues --   -0.76936  -0.76058  -0.75767  -0.75374  -0.74947
 Alpha  occ. eigenvalues --   -0.74480  -0.72924  -0.72060  -0.71481  -0.70186
 Alpha  occ. eigenvalues --   -0.69769  -0.69447  -0.69196  -0.68713  -0.68247
 Alpha  occ. eigenvalues --   -0.68057  -0.67313  -0.66440  -0.65253  -0.63249
 Alpha  occ. eigenvalues --   -0.62937  -0.62790  -0.61306  -0.61089  -0.60031
 Alpha  occ. eigenvalues --   -0.59947  -0.59350  -0.59253  -0.58789  -0.58053
 Alpha  occ. eigenvalues --   -0.57664  -0.57207  -0.56650  -0.55771  -0.54680
 Alpha  occ. eigenvalues --   -0.54442  -0.53657  -0.53433  -0.52931  -0.52553
 Alpha  occ. eigenvalues --   -0.51920  -0.51343  -0.51066  -0.50961  -0.50428
 Alpha  occ. eigenvalues --   -0.49684  -0.49442  -0.49102  -0.48732  -0.48572
 Alpha  occ. eigenvalues --   -0.48502  -0.48204  -0.47870  -0.47677  -0.47284
 Alpha  occ. eigenvalues --   -0.47132  -0.46946  -0.46773  -0.46413  -0.46276
 Alpha  occ. eigenvalues --   -0.46044  -0.45862  -0.45620  -0.45470  -0.45128
 Alpha  occ. eigenvalues --   -0.45043  -0.44713  -0.44519  -0.44408  -0.44274
 Alpha  occ. eigenvalues --   -0.43854  -0.43673  -0.43620  -0.43547  -0.43273
 Alpha  occ. eigenvalues --   -0.43202  -0.43016  -0.42924  -0.42679  -0.42412
 Alpha  occ. eigenvalues --   -0.42389  -0.42216  -0.41748  -0.41684  -0.41328
 Alpha  occ. eigenvalues --   -0.41232  -0.41005  -0.40703  -0.40615  -0.40317
 Alpha  occ. eigenvalues --   -0.40173  -0.39942  -0.39810  -0.39740  -0.39466
 Alpha  occ. eigenvalues --   -0.39406  -0.39291  -0.39207  -0.38851  -0.38559
 Alpha  occ. eigenvalues --   -0.38328  -0.38248  -0.38076  -0.37755  -0.37681
 Alpha  occ. eigenvalues --   -0.37564  -0.37255  -0.37130  -0.36978  -0.36859
 Alpha  occ. eigenvalues --   -0.36772  -0.36485  -0.36391  -0.36177  -0.35892
 Alpha  occ. eigenvalues --   -0.35856  -0.35292  -0.35195  -0.34900  -0.34844
 Alpha  occ. eigenvalues --   -0.34659  -0.34637  -0.33919  -0.33666  -0.33636
 Alpha  occ. eigenvalues --   -0.33279  -0.33030  -0.32774  -0.32493  -0.32287
 Alpha  occ. eigenvalues --   -0.32063  -0.31713  -0.31149  -0.30974  -0.30760
 Alpha  occ. eigenvalues --   -0.30540  -0.30284  -0.29648  -0.29608  -0.29174
 Alpha  occ. eigenvalues --   -0.29019  -0.28846  -0.27854  -0.27117  -0.25936
 Alpha  occ. eigenvalues --   -0.25766  -0.25649  -0.25471  -0.24814  -0.21401
 Alpha  occ. eigenvalues --   -0.18548
 Alpha virt. eigenvalues --   -0.11039  -0.05108  -0.03913  -0.02101  -0.00889
 Alpha virt. eigenvalues --    0.00207   0.00589   0.01080   0.01616   0.03467
 Alpha virt. eigenvalues --    0.04037   0.04539   0.04618   0.05435   0.06030

 Mulliken charges:
               1
     1  Mg   0.999725
     2  C    0.004329
     3  C   -0.082107
     4  C   -0.062044
     5  C   -0.078749
     6  N   -0.420178
     7  C    0.036677
     8  C   -0.155647
     9  C   -0.141116
    10  C    0.043392
    11  C    0.020608
    12  C    0.075142
    13  C   -0.006939
    14  C    0.208865
    15  O   -0.257066
    16  O   -0.374438
    17  N   -0.541678
    18  C    0.226700
    19  C   -0.183551
    20  C   -0.107032
    21  C    0.158410
    22  C    0.045326
    23  C    0.054235
    24  O   -0.240978
    25  C   -0.029738
    26  N   -0.406956
    27  C    0.083081
    28  C   -0.116793
    29  C   -0.100642
    30  C    0.127884
    31  C    0.022413
    32  C   -0.082171
    33  C   -0.045553
    34  N   -0.429352
    35  C    0.134300
    36  C   -0.147555
    37  C   -0.033767
    38  C    0.176582
    39  C    0.039458
    40  C    0.161413
    41  O   -0.224810
    42  C   -0.143916
    43  C    0.281545
    44  O   -0.283099
    45  O   -0.360403
    46  C    0.143279
    47  C    0.261170
    48  C   -0.120363
    49  C   -0.287093
    50  C    0.027440
    51  C    0.039417
    52  C   -0.029878
    53  C   -0.015400
    54  C   -0.222467
    55  C   -0.030898
    56  C   -0.017131
    57  C   -0.051440
    58  C    0.020656
    59  C   -0.231450
    60  C   -0.007484
    61  C   -0.003360
    62  C   -0.008606
    63  C   -0.065781
    64  C   -0.251439
    65  C   -0.008660
    66  C   -0.012990
    67  H   -0.003538
    68  H    0.026870
    69  H   -0.000450
    70  H    0.079896
    71  H    0.038454
    72  H    0.049953
    73  H    0.036967
    74  H    0.060536
    75  H    0.059300
    76  H    0.052143
    77  H    0.061811
    78  H    0.062385
    79  H    0.064848
    80  H    0.050401
    81  H    0.040810
    82  H    0.059796
    83  H    0.071793
    84  H    0.056136
    85  H    0.048271
    86  H    0.040986
    87  H    0.056466
    88  H    0.054616
    89  H    0.049888
    90  H    0.038389
    91  H    0.040966
    92  H    0.059019
    93  H    0.042467
    94  H    0.031033
    95  H    0.073281
    96  H    0.031190
    97  H    0.056585
    98  H    0.074291
    99  H    0.058718
   100  H    0.051791
   101  H    0.070255
   102  H    0.037382
   103  H    0.042888
   104  H    0.016157
   105  H    0.059531
   106  H    0.024779
   107  H    0.069776
   108  H    0.062949
   109  H    0.012921
   110  H    0.039297
   111  H    0.041296
   112  H    0.037829
   113  H    0.028531
   114  H    0.021224
   115  H    0.024915
   116  H    0.032540
   117  H    0.033555
   118  H    0.022383
   119  H    0.008511
   120  H    0.034128
   121  H    0.022000
   122  H    0.025194
   123  H    0.026193
   124  H    0.039328
   125  H    0.035892
   126  H    0.026025
   127  H    0.028005
   128  H    0.026734
   129  H    0.022504
   130  H    0.043798
   131  H    0.030345
   132  H    0.028128
   133  H    0.030637
   134  H    0.040798
   135  H    0.039574
   136  H    0.029414
   137  H    0.027540
   138  H    0.032824
   139  H    0.036031
   140  H    0.040798
 Sum of Mulliken charges =  -0.00000

 Dipole moment (field-independent basis, Debye):
    X=             -2.6586    Y=              2.8895    Z=              1.1054  Tot=              4.0791
 Quadrupole moment (field-independent basis, Debye-Ang):
   XX=           -370.0632   YY=           -425.4319   ZZ=           -404.1531
   XY=             -8.7370   XZ=             10.8103   YZ=              0.8138

 Normal termination of Gaussian 16 at Fri Apr 29 02:17:29 2022.
