 Gaussian 16, Revision A.03,
 Gaussian 16:  ES64L-G16RevA.03 25-Dec-2016

 --------------------------------
 #p wB97XD/Def2SVP td=(nstates=5)
 --------------------------------

 ----------------------------------------------------
 step_1801_chromophore_4 TDDFT with wB97XD functional
 ----------------------------------------------------
 Symbolic Z-matrix:
 Charge =  0 Multiplicity = 1

                         Standard orientation:
 ---------------------------------------------------------------------
 Center     Atomic      Atomic             Coordinates (Angstroms)
 Number     Number       Type             X           Y           Z
 ---------------------------------------------------------------------
      1         12           0        5.791229    0.618300    0.283735
      2          6           0        3.548661   -2.180297    0.446246
      3          6           0        3.209830    2.590250   -0.396602
      4          6           0        8.104660    3.038195   -0.291069
      5          6           0        8.319487   -1.781106    0.545432
      6          7           0        3.649938    0.242006    0.123224
      7          6           0        2.982641   -0.953849    0.257333
      8          6           0        1.476566   -0.700229    0.067388
      9          6           0        1.374655    0.726489   -0.561590
     10          6           0        2.780255    1.303936   -0.175181
     11          6           0        1.133533    0.801926   -2.087468
     12          6           0        0.639043   -0.758574    1.441500
     13          6           0       -0.571229   -1.695841    1.427663
     14          6           0       -1.374776   -1.938667    0.217723
     15          8           0       -1.247118   -2.898223   -0.510418
     16          8           0       -2.225544   -0.863911   -0.083639
     17          7           0        5.734649    2.530958   -0.179479
     18          6           0        4.502790    3.174606   -0.333530
     19          6           0        4.753027    4.587080   -0.445676
     20          6           0        6.177977    4.794011   -0.388125
     21          6           0        6.753994    3.378089   -0.246940
     22          6           0        3.597656    5.595909   -0.600218
     23          6           0        7.021525    6.100020   -0.432761
     24          8           0        8.236327    6.130377   -0.541479
     25          6           0        6.328705    7.416436   -0.349525
     26          7           0        7.907681    0.599838    0.131379
     27          6           0        8.616849    1.773225   -0.116450
     28          6           0       10.087884    1.461998   -0.283910
     29          6           0       10.169618   -0.101760   -0.086301
     30          6           0        8.701068   -0.472005    0.145242
     31          6           0       10.798419    2.018863   -1.525391
     32          6           0       11.115022   -0.412731    1.091891
     33          6           0       12.657166   -0.102842    1.003379
     34          7           0        5.910554   -1.497769    0.525678
     35          6           0        7.037607   -2.294951    0.679536
     36          6           0        6.667656   -3.680230    0.913953
     37          6           0        5.257896   -3.684291    0.807801
     38          6           0        4.877607   -2.327650    0.562686
     39          6           0        7.515326   -4.774386    1.118427
     40          6           0        4.081733   -4.547601    0.893654
     41          8           0        4.026433   -5.765677    1.150047
     42          6           0        2.825764   -3.541917    0.647074
     43          6           0        2.101331   -4.051610   -0.529528
     44          8           0        2.373994   -3.788566   -1.706954
     45          8           0        1.172214   -4.967128   -0.149029
     46          6           0        0.297106   -5.448133   -1.216365
     47          6           0       -3.090700   -0.881836   -1.177806
     48          6           0       -4.453551   -1.112325   -0.568861
     49          6           0       -5.282970   -2.192426   -0.686677
     50          6           0       -4.685464   -3.496294   -1.080719
     51          6           0       -6.730097   -2.155424   -0.187057
     52          6           0       -7.620826   -1.199233   -1.002741
     53          6           0       -7.758809    0.089581   -0.150203
     54          6           0       -9.139625    0.661427   -0.056774
     55          6           0       -9.568042    1.008157   -1.503494
     56          6           0       -9.445856    1.836901    0.899939
     57          6           0      -10.482447    1.635646    2.040596
     58          6           0      -11.501998    2.752961    2.072896
     59          6           0      -12.966351    2.263178    2.275406
     60          6           0      -13.554686    2.885611    3.603482
     61          6           0      -13.857320    2.576882    1.076811
     62          6           0      -13.559307    1.794482   -0.168394
     63          6           0      -14.765578    1.005227   -0.639857
     64          6           0      -14.389380   -0.218735   -1.644451
     65          6           0      -15.650097   -0.549410   -2.506274
     66          6           0      -13.955994   -1.434882   -0.764678
     67          1           0        2.356677    3.181126   -0.735289
     68          1           0        8.818082    3.826265   -0.537412
     69          1           0        9.062305   -2.579868    0.595502
     70          1           0        1.175918   -1.461903   -0.651997
     71          1           0        0.705699    1.496556   -0.178362
     72          1           0        2.034282    1.206948   -2.548529
     73          1           0        0.323811    1.513938   -2.245816
     74          1           0        0.930305   -0.179264   -2.516929
     75          1           0        0.335898    0.240327    1.756442
     76          1           0        1.387683   -1.279725    2.037087
     77          1           0       -1.324892   -1.345880    2.133428
     78          1           0       -0.234069   -2.711505    1.635102
     79          1           0        3.285840    5.823448    0.419468
     80          1           0        2.807795    5.114872   -1.177100
     81          1           0        3.774498    6.527890   -1.137551
     82          1           0        5.681898    7.503324    0.523656
     83          1           0        5.785153    7.551884   -1.284002
     84          1           0        7.170674    8.100372   -0.235377
     85          1           0       10.551107    1.887982    0.605763
     86          1           0       10.579880   -0.603234   -0.963395
     87          1           0       11.123107    3.026737   -1.265530
     88          1           0       10.026581    2.058214   -2.293594
     89          1           0       11.636140    1.355245   -1.738008
     90          1           0       11.087852   -1.482447    1.299213
     91          1           0       10.690073    0.133899    1.933939
     92          1           0       13.257713   -1.007077    0.905380
     93          1           0       12.921298    0.479904    1.885938
     94          1           0       12.792714    0.639940    0.217203
     95          1           0        6.954737   -5.515667    1.688093
     96          1           0        8.498393   -4.640924    1.570631
     97          1           0        7.902565   -5.202828    0.194738
     98          1           0        2.086551   -3.693826    1.433453
     99          1           0       -0.614272   -5.732331   -0.690817
    100          1           0        0.824946   -6.311710   -1.620397
    101          1           0        0.151312   -4.719003   -2.013888
    102          1           0       -2.829234   -1.703610   -1.844355
    103          1           0       -3.049684    0.073207   -1.701696
    104          1           0       -5.025450   -0.236538   -0.261833
    105          1           0       -4.249127   -3.424636   -2.076813
    106          1           0       -5.470162   -4.252639   -1.071567
    107          1           0       -3.949727   -3.760253   -0.320513
    108          1           0       -6.760532   -2.007360    0.892770
    109          1           0       -7.174289   -3.122654   -0.423253
    110          1           0       -8.553158   -1.711260   -1.242470
    111          1           0       -7.135766   -0.925083   -1.940079
    112          1           0       -7.148133    0.924568   -0.494173
    113          1           0       -7.549485   -0.059028    0.908573
    114          1           0       -9.881248   -0.104832    0.168712
    115          1           0       -8.738923    1.350456   -2.123640
    116          1           0      -10.321629    1.795563   -1.526619
    117          1           0      -10.000632    0.116883   -1.956959
    118          1           0       -9.461786    2.731225    0.275967
    119          1           0       -8.586939    2.093909    1.520038
    120          1           0       -9.977984    1.413849    2.981547
    121          1           0      -11.008767    0.711526    1.802884
    122          1           0      -11.296838    3.316585    1.162843
    123          1           0      -11.094705    3.419347    2.832855
    124          1           0      -13.014803    1.199246    2.504606
    125          1           0      -14.455133    3.476229    3.437023
    126          1           0      -12.757108    3.457292    4.078066
    127          1           0      -13.788458    2.097444    4.319327
    128          1           0      -13.851715    3.649746    0.885207
    129          1           0      -14.854106    2.325007    1.440713
    130          1           0      -12.676172    1.163918   -0.066809
    131          1           0      -13.381833    2.588974   -0.893273
    132          1           0      -15.472754    1.654753   -1.155009
    133          1           0      -15.333893    0.570473    0.183273
    134          1           0      -13.565580    0.070962   -2.297502
    135          1           0      -16.060317   -1.553097   -2.390027
    136          1           0      -15.376719   -0.375417   -3.546929
    137          1           0      -16.436790    0.191455   -2.366740
    138          1           0      -13.107717   -1.910934   -1.256905
    139          1           0      -14.729343   -2.201743   -0.723470
    140          1           0      -13.674303   -1.056133    0.217875
 ---------------------------------------------------------------------

 SCF Done:  E(RwB97XD) =  -3007.87727200     A.U. after   19 cycles

 Excitation energies and oscillator strengths:

 Excited State   1:      Singlet-A      1.6592 eV  747.24 nm  f=0.3837  <S**2>=0.000
     245 -> 248       -0.16897
     246 -> 247        0.68662
     245 <- 248       -0.11246
 This state for optimization and/or second-order correction.
 Total Energy, E(TD-HF/TD-DFT) =  -3007.81629639
 Copying the excited state density for this state as the 1-particle RhoCI density.

 Excited State   2:      Singlet-A      2.2865 eV  542.24 nm  f=0.0873  <S**2>=0.000
     245 -> 247        0.61934
     246 -> 248        0.32411

 Excited State   3:      Singlet-A      3.4483 eV  359.55 nm  f=0.0046  <S**2>=0.000
     240 -> 247        0.53180
     240 -> 249       -0.35319
     240 -> 250        0.10496
     242 -> 247        0.20692

 Excited State   4:      Singlet-A      3.4614 eV  358.19 nm  f=0.1221  <S**2>=0.000
     240 -> 247       -0.17486
     240 -> 249        0.12326
     242 -> 247        0.52270
     243 -> 247       -0.18511
     245 -> 247        0.11881
     246 -> 248       -0.33086

 Excited State   5:      Singlet-A      3.6134 eV  343.12 nm  f=0.6414  <S**2>=0.000
     242 -> 247        0.23319
     243 -> 247       -0.32295
     245 -> 247       -0.28414
     246 -> 248        0.49663

 The electronic state is 1-A.
 Alpha  occ. eigenvalues --  -46.93753 -19.29493 -19.29324 -19.25801 -19.25092
 Alpha  occ. eigenvalues --  -19.23594 -19.23500 -14.46730 -14.46323 -14.44130
 Alpha  occ. eigenvalues --  -14.43848 -10.43728 -10.42265 -10.40411 -10.38596
 Alpha  occ. eigenvalues --  -10.35572 -10.35493 -10.35014 -10.34134 -10.34102
 Alpha  occ. eigenvalues --  -10.33951 -10.33810 -10.33654 -10.33558 -10.33165
 Alpha  occ. eigenvalues --  -10.32863 -10.32712 -10.32298 -10.32252 -10.32035
 Alpha  occ. eigenvalues --  -10.31835 -10.31572 -10.31484 -10.31183 -10.31031
 Alpha  occ. eigenvalues --  -10.30882 -10.30856 -10.30838 -10.30736 -10.30692
 Alpha  occ. eigenvalues --  -10.30435 -10.30137 -10.30114 -10.29851 -10.29834
 Alpha  occ. eigenvalues --  -10.29763 -10.29737 -10.29725 -10.29639 -10.29512
 Alpha  occ. eigenvalues --  -10.29319 -10.29158 -10.28972 -10.28816 -10.28768
 Alpha  occ. eigenvalues --  -10.28730 -10.28684 -10.28558 -10.28411 -10.28354
 Alpha  occ. eigenvalues --  -10.28311 -10.28270 -10.28148 -10.28126 -10.27980
 Alpha  occ. eigenvalues --  -10.27773  -3.19927  -1.93529  -1.93028  -1.92943
 Alpha  occ. eigenvalues --   -1.19064  -1.17700  -1.12062  -1.11542  -1.11362
 Alpha  occ. eigenvalues --   -1.08486  -1.06701  -1.05588  -1.04577  -1.03622
 Alpha  occ. eigenvalues --   -0.94881  -0.92685  -0.91866  -0.91485  -0.91135
 Alpha  occ. eigenvalues --   -0.90601  -0.90503  -0.90377  -0.89327  -0.88851
 Alpha  occ. eigenvalues --   -0.87961  -0.87366  -0.86431  -0.86086  -0.85092
 Alpha  occ. eigenvalues --   -0.84571  -0.83691  -0.83410  -0.83021  -0.82555
 Alpha  occ. eigenvalues --   -0.82156  -0.80619  -0.79643  -0.78949  -0.77862
 Alpha  occ. eigenvalues --   -0.77381  -0.77148  -0.76856  -0.76383  -0.75913
 Alpha  occ. eigenvalues --   -0.75652  -0.74945  -0.73932  -0.72886  -0.70812
 Alpha  occ. eigenvalues --   -0.70590  -0.70441  -0.68938  -0.68504  -0.67634
 Alpha  occ. eigenvalues --   -0.67541  -0.66734  -0.66682  -0.66233  -0.65686
 Alpha  occ. eigenvalues --   -0.65227  -0.64854  -0.64277  -0.63318  -0.62218
 Alpha  occ. eigenvalues --   -0.61911  -0.61038  -0.60948  -0.60357  -0.59933
 Alpha  occ. eigenvalues --   -0.59545  -0.58890  -0.58580  -0.58375  -0.57971
 Alpha  occ. eigenvalues --   -0.57114  -0.56765  -0.56458  -0.56189  -0.56041
 Alpha  occ. eigenvalues --   -0.55955  -0.55635  -0.55255  -0.55046  -0.54664
 Alpha  occ. eigenvalues --   -0.54462  -0.54264  -0.54108  -0.53841  -0.53665
 Alpha  occ. eigenvalues --   -0.53559  -0.53284  -0.52962  -0.52820  -0.52538
 Alpha  occ. eigenvalues --   -0.52397  -0.51993  -0.51792  -0.51738  -0.51518
 Alpha  occ. eigenvalues --   -0.51189  -0.50984  -0.50951  -0.50909  -0.50575
 Alpha  occ. eigenvalues --   -0.50504  -0.50278  -0.50154  -0.49875  -0.49670
 Alpha  occ. eigenvalues --   -0.49624  -0.49497  -0.48982  -0.48866  -0.48643
 Alpha  occ. eigenvalues --   -0.48415  -0.48276  -0.47849  -0.47767  -0.47534
 Alpha  occ. eigenvalues --   -0.47360  -0.47192  -0.47097  -0.46964  -0.46753
 Alpha  occ. eigenvalues --   -0.46683  -0.46470  -0.46360  -0.46071  -0.45969
 Alpha  occ. eigenvalues --   -0.45474  -0.45408  -0.45222  -0.44908  -0.44816
 Alpha  occ. eigenvalues --   -0.44452  -0.44414  -0.44249  -0.44075  -0.43898
 Alpha  occ. eigenvalues --   -0.43787  -0.43592  -0.43526  -0.43356  -0.42989
 Alpha  occ. eigenvalues --   -0.42839  -0.42325  -0.42310  -0.41987  -0.41926
 Alpha  occ. eigenvalues --   -0.41733  -0.41709  -0.40997  -0.40701  -0.40641
 Alpha  occ. eigenvalues --   -0.40328  -0.39953  -0.39835  -0.39418  -0.39317
 Alpha  occ. eigenvalues --   -0.39019  -0.38741  -0.37995  -0.37987  -0.37744
 Alpha  occ. eigenvalues --   -0.37536  -0.37457  -0.36751  -0.36517  -0.35955
 Alpha  occ. eigenvalues --   -0.35743  -0.35670  -0.35156  -0.33673  -0.33280
 Alpha  occ. eigenvalues --   -0.32589  -0.32451  -0.31791  -0.31568  -0.26472
 Alpha  occ. eigenvalues --   -0.22691
 Alpha virt. eigenvalues --   -0.06844   0.00374   0.02216   0.04528   0.05804
 Alpha virt. eigenvalues --    0.06485   0.06957   0.07565   0.08310   0.09686
 Alpha virt. eigenvalues --    0.10658   0.11175   0.11535   0.12270   0.12751

 Mulliken charges:
               1
     1  Mg   0.988103
     2  C   -0.005807
     3  C   -0.090618
     4  C   -0.076259
     5  C   -0.096763
     6  N   -0.389037
     7  C    0.005434
     8  C   -0.123654
     9  C   -0.114615
    10  C    0.024558
    11  C    0.028945
    12  C    0.087020
    13  C    0.012452
    14  C    0.191332
    15  O   -0.250745
    16  O   -0.372808
    17  N   -0.503731
    18  C    0.213729
    19  C   -0.173797
    20  C   -0.107786
    21  C    0.143067
    22  C    0.058692
    23  C    0.052904
    24  O   -0.238033
    25  C   -0.020166
    26  N   -0.370778
    27  C    0.065815
    28  C   -0.090997
    29  C   -0.074394
    30  C    0.109750
    31  C    0.035753
    32  C   -0.064785
    33  C   -0.028643
    34  N   -0.389890
    35  C    0.134035
    36  C   -0.132270
    37  C   -0.036991
    38  C    0.170877
    39  C    0.042623
    40  C    0.144108
    41  O   -0.212368
    42  C   -0.103027
    43  C    0.255537
    44  O   -0.276017
    45  O   -0.356861
    46  C    0.153412
    47  C    0.279515
    48  C   -0.130034
    49  C   -0.272663
    50  C    0.041233
    51  C    0.059942
    52  C   -0.016809
    53  C    0.004305
    54  C   -0.189535
    55  C   -0.016617
    56  C   -0.007676
    57  C   -0.029801
    58  C    0.032125
    59  C   -0.198393
    60  C    0.004355
    61  C    0.012262
    62  C    0.013994
    63  C   -0.045003
    64  C   -0.225439
    65  C    0.003232
    66  C    0.001041
    67  H   -0.012497
    68  H    0.021870
    69  H   -0.007344
    70  H    0.057517
    71  H    0.028560
    72  H    0.043056
    73  H    0.031807
    74  H    0.054974
    75  H    0.055366
    76  H    0.040341
    77  H    0.057754
    78  H    0.053481
    79  H    0.058518
    80  H    0.043915
    81  H    0.034316
    82  H    0.055242
    83  H    0.065730
    84  H    0.053417
    85  H    0.034928
    86  H    0.031765
    87  H    0.051870
    88  H    0.048109
    89  H    0.042307
    90  H    0.028470
    91  H    0.031777
    92  H    0.054794
    93  H    0.037150
    94  H    0.021253
    95  H    0.071394
    96  H    0.028549
    97  H    0.054788
    98  H    0.066695
    99  H    0.057495
   100  H    0.048538
   101  H    0.067749
   102  H    0.030198
   103  H    0.040427
   104  H    0.006739
   105  H    0.054108
   106  H    0.019557
   107  H    0.062811
   108  H    0.055332
   109  H    0.005050
   110  H    0.032317
   111  H    0.032199
   112  H    0.027652
   113  H    0.016353
   114  H    0.005758
   115  H    0.018108
   116  H    0.024403
   117  H    0.026617
   118  H    0.013658
   119  H    0.000296
   120  H    0.028458
   121  H    0.007170
   122  H    0.013617
   123  H    0.018072
   124  H    0.026039
   125  H    0.030544
   126  H    0.019038
   127  H    0.022707
   128  H    0.019317
   129  H    0.011343
   130  H    0.021845
   131  H    0.022598
   132  H    0.018868
   133  H    0.019373
   134  H    0.031050
   135  H    0.034115
   136  H    0.023543
   137  H    0.020718
   138  H    0.027135
   139  H    0.029906
   140  H    0.031974
 Sum of Mulliken charges =  -0.00000

 Dipole moment (field-independent basis, Debye):
    X=             -2.6885    Y=              2.1156    Z=              1.2612  Tot=              3.6462
 Quadrupole moment (field-independent basis, Debye-Ang):
   XX=           -370.1113   YY=           -424.4897   ZZ=           -403.6093
   XY=            -13.0140   XZ=             11.7651   YZ=              0.7041

 Normal termination of Gaussian 16 at Fri Apr 29 02:49:34 2022.
