 Gaussian 16, Revision A.03,
 Gaussian 16:  ES64L-G16RevA.03 25-Dec-2016

 --------------------
 #p ZINDO=(nstates=5)
 --------------------

 -----------------------------
 step_1801_chromophore_4 ZINDO
 -----------------------------
 Symbolic Z-matrix:
 Charge =  0 Multiplicity = 1

                         Standard orientation:
 ---------------------------------------------------------------------
 Center     Atomic      Atomic             Coordinates (Angstroms)
 Number     Number       Type             X           Y           Z
 ---------------------------------------------------------------------
      1         12           0        5.791229    0.618300    0.283735
      2          6           0        3.548661   -2.180297    0.446246
      3          6           0        3.209830    2.590250   -0.396602
      4          6           0        8.104660    3.038195   -0.291069
      5          6           0        8.319487   -1.781106    0.545432
      6          7           0        3.649938    0.242006    0.123224
      7          6           0        2.982641   -0.953849    0.257333
      8          6           0        1.476566   -0.700229    0.067388
      9          6           0        1.374655    0.726489   -0.561590
     10          6           0        2.780255    1.303936   -0.175181
     11          6           0        1.133533    0.801926   -2.087468
     12          6           0        0.639043   -0.758574    1.441500
     13          6           0       -0.571229   -1.695841    1.427663
     14          6           0       -1.374776   -1.938667    0.217723
     15          8           0       -1.247118   -2.898223   -0.510418
     16          8           0       -2.225544   -0.863911   -0.083639
     17          7           0        5.734649    2.530958   -0.179479
     18          6           0        4.502790    3.174606   -0.333530
     19          6           0        4.753027    4.587080   -0.445676
     20          6           0        6.177977    4.794011   -0.388125
     21          6           0        6.753994    3.378089   -0.246940
     22          6           0        3.597656    5.595909   -0.600218
     23          6           0        7.021525    6.100020   -0.432761
     24          8           0        8.236327    6.130377   -0.541479
     25          6           0        6.328705    7.416436   -0.349525
     26          7           0        7.907681    0.599838    0.131379
     27          6           0        8.616849    1.773225   -0.116450
     28          6           0       10.087884    1.461998   -0.283910
     29          6           0       10.169618   -0.101760   -0.086301
     30          6           0        8.701068   -0.472005    0.145242
     31          6           0       10.798419    2.018863   -1.525391
     32          6           0       11.115022   -0.412731    1.091891
     33          6           0       12.657166   -0.102842    1.003379
     34          7           0        5.910554   -1.497769    0.525678
     35          6           0        7.037607   -2.294951    0.679536
     36          6           0        6.667656   -3.680230    0.913953
     37          6           0        5.257896   -3.684291    0.807801
     38          6           0        4.877607   -2.327650    0.562686
     39          6           0        7.515326   -4.774386    1.118427
     40          6           0        4.081733   -4.547601    0.893654
     41          8           0        4.026433   -5.765677    1.150047
     42          6           0        2.825764   -3.541917    0.647074
     43          6           0        2.101331   -4.051610   -0.529528
     44          8           0        2.373994   -3.788566   -1.706954
     45          8           0        1.172214   -4.967128   -0.149029
     46          6           0        0.297106   -5.448133   -1.216365
     47          6           0       -3.090700   -0.881836   -1.177806
     48          6           0       -4.453551   -1.112325   -0.568861
     49          6           0       -5.282970   -2.192426   -0.686677
     50          6           0       -4.685464   -3.496294   -1.080719
     51          6           0       -6.730097   -2.155424   -0.187057
     52          6           0       -7.620826   -1.199233   -1.002741
     53          6           0       -7.758809    0.089581   -0.150203
     54          6           0       -9.139625    0.661427   -0.056774
     55          6           0       -9.568042    1.008157   -1.503494
     56          6           0       -9.445856    1.836901    0.899939
     57          6           0      -10.482447    1.635646    2.040596
     58          6           0      -11.501998    2.752961    2.072896
     59          6           0      -12.966351    2.263178    2.275406
     60          6           0      -13.554686    2.885611    3.603482
     61          6           0      -13.857320    2.576882    1.076811
     62          6           0      -13.559307    1.794482   -0.168394
     63          6           0      -14.765578    1.005227   -0.639857
     64          6           0      -14.389380   -0.218735   -1.644451
     65          6           0      -15.650097   -0.549410   -2.506274
     66          6           0      -13.955994   -1.434882   -0.764678
     67          1           0        2.356677    3.181126   -0.735289
     68          1           0        8.818082    3.826265   -0.537412
     69          1           0        9.062305   -2.579868    0.595502
     70          1           0        1.175918   -1.461903   -0.651997
     71          1           0        0.705699    1.496556   -0.178362
     72          1           0        2.034282    1.206948   -2.548529
     73          1           0        0.323811    1.513938   -2.245816
     74          1           0        0.930305   -0.179264   -2.516929
     75          1           0        0.335898    0.240327    1.756442
     76          1           0        1.387683   -1.279725    2.037087
     77          1           0       -1.324892   -1.345880    2.133428
     78          1           0       -0.234069   -2.711505    1.635102
     79          1           0        3.285840    5.823448    0.419468
     80          1           0        2.807795    5.114872   -1.177100
     81          1           0        3.774498    6.527890   -1.137551
     82          1           0        5.681898    7.503324    0.523656
     83          1           0        5.785153    7.551884   -1.284002
     84          1           0        7.170674    8.100372   -0.235377
     85          1           0       10.551107    1.887982    0.605763
     86          1           0       10.579880   -0.603234   -0.963395
     87          1           0       11.123107    3.026737   -1.265530
     88          1           0       10.026581    2.058214   -2.293594
     89          1           0       11.636140    1.355245   -1.738008
     90          1           0       11.087852   -1.482447    1.299213
     91          1           0       10.690073    0.133899    1.933939
     92          1           0       13.257713   -1.007077    0.905380
     93          1           0       12.921298    0.479904    1.885938
     94          1           0       12.792714    0.639940    0.217203
     95          1           0        6.954737   -5.515667    1.688093
     96          1           0        8.498393   -4.640924    1.570631
     97          1           0        7.902565   -5.202828    0.194738
     98          1           0        2.086551   -3.693826    1.433453
     99          1           0       -0.614272   -5.732331   -0.690817
    100          1           0        0.824946   -6.311710   -1.620397
    101          1           0        0.151312   -4.719003   -2.013888
    102          1           0       -2.829234   -1.703610   -1.844355
    103          1           0       -3.049684    0.073207   -1.701696
    104          1           0       -5.025450   -0.236538   -0.261833
    105          1           0       -4.249127   -3.424636   -2.076813
    106          1           0       -5.470162   -4.252639   -1.071567
    107          1           0       -3.949727   -3.760253   -0.320513
    108          1           0       -6.760532   -2.007360    0.892770
    109          1           0       -7.174289   -3.122654   -0.423253
    110          1           0       -8.553158   -1.711260   -1.242470
    111          1           0       -7.135766   -0.925083   -1.940079
    112          1           0       -7.148133    0.924568   -0.494173
    113          1           0       -7.549485   -0.059028    0.908573
    114          1           0       -9.881248   -0.104832    0.168712
    115          1           0       -8.738923    1.350456   -2.123640
    116          1           0      -10.321629    1.795563   -1.526619
    117          1           0      -10.000632    0.116883   -1.956959
    118          1           0       -9.461786    2.731225    0.275967
    119          1           0       -8.586939    2.093909    1.520038
    120          1           0       -9.977984    1.413849    2.981547
    121          1           0      -11.008767    0.711526    1.802884
    122          1           0      -11.296838    3.316585    1.162843
    123          1           0      -11.094705    3.419347    2.832855
    124          1           0      -13.014803    1.199246    2.504606
    125          1           0      -14.455133    3.476229    3.437023
    126          1           0      -12.757108    3.457292    4.078066
    127          1           0      -13.788458    2.097444    4.319327
    128          1           0      -13.851715    3.649746    0.885207
    129          1           0      -14.854106    2.325007    1.440713
    130          1           0      -12.676172    1.163918   -0.066809
    131          1           0      -13.381833    2.588974   -0.893273
    132          1           0      -15.472754    1.654753   -1.155009
    133          1           0      -15.333893    0.570473    0.183273
    134          1           0      -13.565580    0.070962   -2.297502
    135          1           0      -16.060317   -1.553097   -2.390027
    136          1           0      -15.376719   -0.375417   -3.546929
    137          1           0      -16.436790    0.191455   -2.366740
    138          1           0      -13.107717   -1.910934   -1.256905
    139          1           0      -14.729343   -2.201743   -0.723470
    140          1           0      -13.674303   -1.056133    0.217875
 ---------------------------------------------------------------------

 SCF Done:  E(RZINDO/S) =  -474.528343858     A.U. after   19 cycles

 Excitation energies and oscillator strengths:

 Excited State   1:      Singlet-A      1.2899 eV  961.16 nm  f=0.5852  <S**2>=0.000
     175 ->178         0.16749
     176 ->177         0.67074
 This state for optimization and/or second-order correction.
 Total Energy, E(CIS/TDA) =  -474.480939187
 Copying the excited state density for this state as the 1-particle RhoCI density.

 Excited State   2:      Singlet-A      2.0125 eV  616.08 nm  f=0.0153  <S**2>=0.000
     175 ->177         0.51162
     176 ->178        -0.46155

 Excited State   3:      Singlet-A      2.9651 eV  418.15 nm  f=0.0130  <S**2>=0.000
     167 ->177         0.15843
     167 ->179        -0.21904
     168 ->177         0.32878
     168 ->179        -0.39570
     168 ->186        -0.15261
     176 ->179        -0.19375

 Excited State   4:      Singlet-A      3.0143 eV  411.32 nm  f=0.0295  <S**2>=0.000
     168 ->177         0.10816
     168 ->179        -0.12420
     176 ->179         0.60645
     176 ->181         0.22261

 Excited State   5:      Singlet-A      3.0608 eV  405.07 nm  f=1.1769  <S**2>=0.000
     171 ->177        -0.11824
     175 ->177         0.42774
     176 ->178         0.48936
     176 ->181        -0.13956

 The electronic state is 1-A.
 Alpha  occ. eigenvalues --   -1.85518  -1.81178  -1.79069  -1.75151  -1.73068
 Alpha  occ. eigenvalues --   -1.70034  -1.66585  -1.61963  -1.58510  -1.57143
 Alpha  occ. eigenvalues --   -1.54981  -1.52654  -1.49519  -1.49327  -1.47652
 Alpha  occ. eigenvalues --   -1.44151  -1.42996  -1.41072  -1.40237  -1.38220
 Alpha  occ. eigenvalues --   -1.37161  -1.35330  -1.33431  -1.31172  -1.28683
 Alpha  occ. eigenvalues --   -1.27829  -1.25763  -1.21549  -1.20860  -1.18578
 Alpha  occ. eigenvalues --   -1.18343  -1.15719  -1.15509  -1.13743  -1.13234
 Alpha  occ. eigenvalues --   -1.10978  -1.10459  -1.09568  -1.05544  -1.03609
 Alpha  occ. eigenvalues --   -1.02705  -1.01564  -0.99083  -0.98353  -0.96075
 Alpha  occ. eigenvalues --   -0.95560  -0.94289  -0.94081  -0.92881  -0.92254
 Alpha  occ. eigenvalues --   -0.91577  -0.90775  -0.88229  -0.87663  -0.86785
 Alpha  occ. eigenvalues --   -0.85674  -0.83741  -0.83364  -0.81688  -0.80723
 Alpha  occ. eigenvalues --   -0.79479  -0.78656  -0.77384  -0.76579  -0.75958
 Alpha  occ. eigenvalues --   -0.75925  -0.75606  -0.75253  -0.74107  -0.73854
 Alpha  occ. eigenvalues --   -0.72898  -0.72621  -0.71770  -0.71532  -0.70856
 Alpha  occ. eigenvalues --   -0.70304  -0.70098  -0.68699  -0.68359  -0.67741
 Alpha  occ. eigenvalues --   -0.67111  -0.66477  -0.66054  -0.65935  -0.65433
 Alpha  occ. eigenvalues --   -0.65336  -0.64617  -0.64231  -0.63909  -0.63722
 Alpha  occ. eigenvalues --   -0.63171  -0.62561  -0.62374  -0.62315  -0.61849
 Alpha  occ. eigenvalues --   -0.61628  -0.61145  -0.60776  -0.60381  -0.59945
 Alpha  occ. eigenvalues --   -0.59800  -0.59242  -0.58519  -0.58438  -0.57898
 Alpha  occ. eigenvalues --   -0.57661  -0.57175  -0.56889  -0.56784  -0.56401
 Alpha  occ. eigenvalues --   -0.56105  -0.56086  -0.55407  -0.55124  -0.54708
 Alpha  occ. eigenvalues --   -0.54527  -0.54257  -0.53661  -0.53344  -0.52871
 Alpha  occ. eigenvalues --   -0.52525  -0.52301  -0.51816  -0.51480  -0.51257
 Alpha  occ. eigenvalues --   -0.51030  -0.50603  -0.50535  -0.49997  -0.49831
 Alpha  occ. eigenvalues --   -0.49698  -0.49439  -0.49233  -0.48941  -0.48773
 Alpha  occ. eigenvalues --   -0.48363  -0.47965  -0.47902  -0.47677  -0.47530
 Alpha  occ. eigenvalues --   -0.47338  -0.46921  -0.46614  -0.46531  -0.46502
 Alpha  occ. eigenvalues --   -0.45841  -0.45781  -0.45560  -0.45200  -0.44851
 Alpha  occ. eigenvalues --   -0.44765  -0.44336  -0.44194  -0.43908  -0.43561
 Alpha  occ. eigenvalues --   -0.43474  -0.42782  -0.42353  -0.42246  -0.41470
 Alpha  occ. eigenvalues --   -0.41250  -0.40812  -0.40596  -0.39336  -0.39110
 Alpha  occ. eigenvalues --   -0.38056  -0.36750  -0.35963  -0.35045  -0.34110
 Alpha  occ. eigenvalues --   -0.33694  -0.32778  -0.31777  -0.31550  -0.27138
 Alpha  occ. eigenvalues --   -0.21533
 Alpha virt. eigenvalues --   -0.08179  -0.01790  -0.00942   0.01474   0.01701
 Alpha virt. eigenvalues --    0.02709   0.03016   0.03200   0.04502   0.05109
 Alpha virt. eigenvalues --    0.06641   0.06726   0.07759   0.07904   0.08313

 Mulliken charges:
               1
     1  Mg   0.419729
     2  C   -0.047141
     3  C   -0.060622
     4  C   -0.044921
     5  C   -0.072579
     6  N   -0.304901
     7  C    0.163670
     8  C    0.001396
     9  C   -0.005245
    10  C    0.071306
    11  C   -0.051499
    12  C   -0.021073
    13  C    0.005879
    14  C    0.474920
    15  O   -0.513175
    16  O   -0.282963
    17  N   -0.289521
    18  C    0.064816
    19  C   -0.009830
    20  C   -0.092354
    21  C    0.123802
    22  C   -0.048182
    23  C    0.328981
    24  O   -0.531960
    25  C   -0.032546
    26  N   -0.255833
    27  C    0.097060
    28  C   -0.006080
    29  C    0.002490
    30  C    0.166444
    31  C   -0.051080
    32  C   -0.032896
    33  C   -0.062710
    34  N   -0.339711
    35  C    0.120289
    36  C    0.080832
    37  C   -0.061612
    38  C    0.159901
    39  C   -0.030063
    40  C    0.331164
    41  O   -0.511474
    42  C    0.049242
    43  C    0.489111
    44  O   -0.537919
    45  O   -0.262534
    46  C    0.077452
    47  C    0.117863
    48  C   -0.109939
    49  C   -0.000547
    50  C   -0.041147
    51  C   -0.020550
    52  C   -0.024771
    53  C   -0.024308
    54  C   -0.014981
    55  C   -0.062610
    56  C   -0.044565
    57  C   -0.030905
    58  C   -0.033954
    59  C   -0.009979
    60  C   -0.069484
    61  C   -0.026767
    62  C   -0.030362
    63  C   -0.036566
    64  C   -0.023906
    65  C   -0.062300
    66  C   -0.059360
    67  H    0.023970
    68  H    0.052419
    69  H    0.025807
    70  H    0.046555
    71  H    0.028786
    72  H    0.025624
    73  H    0.017933
    74  H    0.030073
    75  H    0.042684
    76  H    0.028732
    77  H    0.036923
    78  H    0.037936
    79  H    0.029933
    80  H    0.023550
    81  H    0.023388
    82  H    0.033507
    83  H    0.043804
    84  H    0.036826
    85  H    0.027034
    86  H    0.031463
    87  H    0.028021
    88  H    0.030387
    89  H    0.024183
    90  H    0.009507
    91  H    0.021542
    92  H    0.032361
    93  H    0.019318
    94  H    0.021510
    95  H    0.037059
    96  H    0.024490
    97  H    0.042310
    98  H    0.062147
    99  H    0.037256
   100  H    0.038461
   101  H    0.058324
   102  H    0.050350
   103  H    0.037898
   104  H    0.016240
   105  H    0.034608
   106  H    0.012950
   107  H    0.039041
   108  H    0.037868
   109  H    0.008916
   110  H    0.026538
   111  H    0.024539
   112  H    0.023640
   113  H    0.012364
   114  H    0.012354
   115  H    0.016409
   116  H    0.011035
   117  H    0.013418
   118  H    0.026393
   119  H    0.000562
   120  H    0.023299
   121  H    0.010041
   122  H    0.021190
   123  H    0.017053
   124  H    0.024734
   125  H    0.023460
   126  H    0.018430
   127  H    0.013519
   128  H    0.018980
   129  H    0.010616
   130  H    0.028505
   131  H    0.015241
   132  H    0.015307
   133  H    0.019911
   134  H    0.027194
   135  H    0.026313
   136  H    0.010741
   137  H    0.017514
   138  H    0.012882
   139  H    0.023625
   140  H    0.023581
 Sum of Mulliken charges =  -0.00000

 Dipole moment (field-independent basis, Debye):
    X=             -3.4458    Y=              1.1575    Z=              2.7448  Tot=              4.5549
 N-N= 4.304587260026D+03 E-N= 0.000000000000D+00  KE=-9.284124873644D+03
 Leave Link  601 at Fri Apr 29 03:03:31 2022, MaxMem=  6710886400 cpu:               1.0 elap:               0.1
 (Enter /sw/apps/gaussian-16.0/g16/l9999.exe)
 1\1\GINC-BP1-COMPUTE137\SP\RZINDO CIS\STO-3G\C55H74Mg1N4O6\OF15641\29-
 Apr-2022\0\\#p ZINDO=(nstates=5)\\step_1801_chromophore_4 ZINDO\\0,1\M
 g,0,9.578,3.473,28.066\C,0,11.125,1.982,30.942\C,0,7.998,5.594,30.071\
 C,0,7.865,4.435,25.295\C,0,11.011,0.82,26.298\N,0,9.628,3.778,30.224\C
 ,0,10.345,3.078,31.167\C,0,10.053,3.68,32.553\C,0,8.792,4.581,32.354\C
 ,0,8.836,4.785,30.8\C,0,7.435,3.994,32.808\C,0,11.27,4.556,33.14\C,0,1
 1.729,4.172,34.549\C,0,10.805,3.656,35.573\O,0,10.658,2.483,35.837\O,0

 Normal termination of Gaussian 16 at Fri Apr 29 03:03:31 2022.
