 Gaussian 16, Revision A.03,
 Gaussian 16:  ES64L-G16RevA.03 25-Dec-2016

 ------------------------------
 #p blyp/Def2SVP td=(nstates=5)
 ------------------------------

 --------------------------------------------------
 step_1051_chromophore_7 TDDFT with blyp functional
 --------------------------------------------------
 Symbolic Z-matrix:
 Charge =  0 Multiplicity = 1

                         Standard orientation:
 ---------------------------------------------------------------------
 Center     Atomic      Atomic             Coordinates (Angstroms)
 Number     Number       Type             X           Y           Z
 ---------------------------------------------------------------------
      1         12           0        6.001996    0.486948    0.115777
      2          6           0        3.399875   -2.014611    0.180708
      3          6           0        3.730005    2.829116   -0.749086
      4          6           0        8.490376    2.624805    0.191217
      5          6           0        8.266212   -2.291341    0.759348
      6          7           0        3.793542    0.322807   -0.381352
      7          6           0        2.951094   -0.681149   -0.165243
      8          6           0        1.572059   -0.281264   -0.520992
      9          6           0        1.759941    1.215244   -1.020429
     10          6           0        3.198623    1.522779   -0.713239
     11          6           0        1.457566    1.349694   -2.504554
     12          6           0        0.560000   -0.456782    0.678045
     13          6           0       -0.784234   -1.275325    0.342975
     14          6           0       -1.472281   -1.144436   -0.992609
     15          8           0       -0.870213   -1.070080   -2.060302
     16          8           0       -2.807296   -0.787762   -0.859874
     17          7           0        6.178354    2.477169   -0.381347
     18          6           0        5.047591    3.283831   -0.556276
     19          6           0        5.582331    4.599848   -0.605578
     20          6           0        6.943848    4.620567   -0.312232
     21          6           0        7.252357    3.209145   -0.177473
     22          6           0        4.703616    5.751519   -1.159196
     23          6           0        7.943581    5.798137   -0.392662
     24          8           0        9.161590    5.637659   -0.221554
     25          6           0        7.461370    7.124271   -0.752673
     26          7           0        8.087801    0.166850    0.159175
     27          6           0        8.886618    1.302053    0.262122
     28          6           0       10.306722    0.823518    0.683617
     29          6           0       10.200126   -0.669355    1.071877
     30          6           0        8.766572   -0.976835    0.618254
     31          6           0       11.388872    1.146896   -0.383460
     32          6           0       10.571263   -0.882633    2.559336
     33          6           0       11.275566   -2.219532    2.918788
     34          7           0        5.918371   -1.756868    0.439933
     35          6           0        6.941004   -2.684274    0.627215
     36          6           0        6.356107   -3.973638    0.851588
     37          6           0        4.924458   -3.754393    0.710321
     38          6           0        4.743439   -2.367647    0.417718
     39          6           0        7.116254   -5.313089    1.105192
     40          6           0        3.602736   -4.348911    0.675884
     41          8           0        3.402689   -5.546542    0.871947
     42          6           0        2.522210   -3.291891    0.457996
     43          6           0        1.681973   -3.660211   -0.646299
     44          8           0        1.750812   -3.280421   -1.778203
     45          8           0        0.769235   -4.511024   -0.107163
     46          6           0       -0.206531   -4.945619   -1.077496
     47          6           0       -3.554676   -0.182265   -1.919226
     48          6           0       -5.125241   -0.125657   -1.634751
     49          6           0       -5.866577   -1.139555   -1.221371
     50          6           0       -5.485032   -2.580742   -1.150594
     51          6           0       -7.170925   -0.889521   -0.580292
     52          6           0       -8.181678   -0.820136   -1.658190
     53          6           0       -9.317914    0.051751   -1.260991
     54          6           0      -10.743664   -0.480963   -1.659239
     55          6           0      -10.764309   -0.935213   -3.149034
     56          6           0      -11.789307    0.673966   -1.524037
     57          6           0      -13.263809    0.151913   -1.417676
     58          6           0      -14.082732    0.720579   -0.237762
     59          6           0      -13.924033   -0.244929    1.009088
     60          6           0      -15.194181   -1.097551    1.112286
     61          6           0      -13.613569    0.415139    2.375976
     62          6           0      -12.099316    0.579725    2.640066
     63          6           0      -11.848742    1.891617    3.470732
     64          6           0      -11.569326    3.082538    2.544348
     65          6           0      -10.079283    3.491173    2.557301
     66          6           0      -12.415611    4.230071    3.006400
     67          1           0        2.961478    3.577392   -0.954034
     68          1           0        9.208485    3.338207    0.601206
     69          1           0        9.088072   -2.941026    1.068819
     70          1           0        1.321392   -0.996002   -1.304333
     71          1           0        1.011994    1.893301   -0.610109
     72          1           0        2.348168    1.414531   -3.130578
     73          1           0        0.813968    2.176234   -2.805450
     74          1           0        0.853887    0.495337   -2.811246
     75          1           0        0.173797    0.526499    0.947820
     76          1           0        1.109394   -0.791677    1.557947
     77          1           0       -1.456194   -0.910813    1.120314
     78          1           0       -0.676820   -2.349839    0.491250
     79          1           0        5.159356    6.076025   -2.094820
     80          1           0        4.759847    6.663391   -0.563793
     81          1           0        3.647876    5.574129   -1.364233
     82          1           0        7.153573    6.946681   -1.783251
     83          1           0        8.361824    7.723131   -0.888538
     84          1           0        6.846826    7.590949    0.016764
     85          1           0       10.514980    1.435171    1.561779
     86          1           0       10.820567   -1.386037    0.533724
     87          1           0       10.920940    1.675950   -1.213651
     88          1           0       11.708015    0.160821   -0.720140
     89          1           0       12.171455    1.716877    0.116255
     90          1           0        9.632262   -0.818015    3.109072
     91          1           0       11.087198   -0.002247    2.942531
     92          1           0       10.823686   -3.034119    2.352760
     93          1           0       10.995564   -2.538471    3.922487
     94          1           0       12.336476   -2.385274    2.734309
     95          1           0        6.465332   -5.927703    1.727221
     96          1           0        8.096536   -5.351553    1.581378
     97          1           0        7.193478   -5.805909    0.135372
     98          1           0        1.827441   -3.150001    1.285322
     99          1           0       -0.729407   -4.003449   -1.245538
    100          1           0       -0.821235   -5.647763   -0.514599
    101          1           0        0.321015   -5.429956   -1.900002
    102          1           0       -3.381396   -0.649745   -2.888541
    103          1           0       -3.074861    0.793837   -1.997334
    104          1           0       -5.643679    0.824197   -1.501842
    105          1           0       -5.798621   -3.051671   -0.218761
    106          1           0       -4.436772   -2.847444   -1.286372
    107          1           0       -5.991090   -3.137484   -1.939822
    108          1           0       -7.162894   -0.138196    0.209624
    109          1           0       -7.488870   -1.745594    0.014894
    110          1           0       -8.614380   -1.815679   -1.757934
    111          1           0       -7.712076   -0.644037   -2.625248
    112          1           0       -9.229223    1.083848   -1.599392
    113          1           0       -9.277224    0.070758   -0.171685
    114          1           0      -11.040419   -1.327854   -1.040416
    115          1           0      -11.574630   -0.542736   -3.763066
    116          1           0      -10.906311   -2.014703   -3.086274
    117          1           0       -9.910844   -0.737682   -3.797377
    118          1           0      -11.636796    1.438604   -2.286039
    119          1           0      -11.519748    1.018491   -0.525385
    120          1           0      -13.273816   -0.936247   -1.458203
    121          1           0      -13.814883    0.448444   -2.310360
    122          1           0      -15.044173    0.941021   -0.702451
    123          1           0      -13.673769    1.649256    0.160464
    124          1           0      -13.205689   -1.038450    0.801740
    125          1           0      -15.319697   -1.844012    0.327989
    126          1           0      -16.107640   -0.506297    1.165793
    127          1           0      -15.167930   -1.763251    1.975133
    128          1           0      -13.919939   -0.189323    3.229082
    129          1           0      -14.109142    1.386629    2.373112
    130          1           0      -11.604800    0.690983    1.675017
    131          1           0      -11.581673   -0.272506    3.080867
    132          1           0      -10.953807    1.663144    4.049948
    133          1           0      -12.653151    2.019792    4.195132
    134          1           0      -11.846987    2.796534    1.530478
    135          1           0       -9.867881    4.560183    2.582357
    136          1           0       -9.515138    3.069225    1.725637
    137          1           0       -9.559285    3.108397    3.435110
    138          1           0      -13.130590    4.015870    3.801576
    139          1           0      -12.950448    4.686770    2.174351
    140          1           0      -11.784293    5.011881    3.428782
 ---------------------------------------------------------------------

 SCF Done:  E(RB-LYP) =  -3007.32739485     A.U. after   21 cycles

 Excitation energies and oscillator strengths:

 Excited State   1:      Singlet-A      1.7982 eV  689.51 nm  f=0.0739  <S**2>=0.000
     244 -> 247        0.61020
     245 -> 247        0.13040
     246 -> 247       -0.32383
 This state for optimization and/or second-order correction.
 Total Energy, E(TD-HF/TD-DFT) =  -3007.26131362
 Copying the excited state density for this state as the 1-particle RhoCI density.

 Excited State   2:      Singlet-A      1.8152 eV  683.03 nm  f=0.2385  <S**2>=0.000
     244 -> 247        0.30302
     245 -> 247        0.14007
     245 -> 248        0.16742
     246 -> 247        0.60312
     246 <- 247       -0.12938

 Excited State   3:      Singlet-A      1.9296 eV  642.53 nm  f=0.0409  <S**2>=0.000
     243 -> 247        0.49704
     244 -> 247        0.15558
     245 -> 247       -0.44376
     246 -> 248        0.12536

 Excited State   4:      Singlet-A      2.0556 eV  603.15 nm  f=0.0420  <S**2>=0.000
     243 -> 247        0.49245
     245 -> 247        0.44084
     246 -> 248       -0.19501

 Excited State   5:      Singlet-A      2.4000 eV  516.59 nm  f=0.0088  <S**2>=0.000
     242 -> 247        0.67895
     246 -> 248        0.10328

 The electronic state is 1-A.
 Alpha  occ. eigenvalues --  -46.27558 -18.82408 -18.81648 -18.77917 -18.76930
 Alpha  occ. eigenvalues --  -18.75254 -18.74672 -14.03004 -14.02626 -14.00717
 Alpha  occ. eigenvalues --  -13.99768 -10.05386 -10.03077  -9.99736  -9.99029
 Alpha  occ. eigenvalues --   -9.98989  -9.97369  -9.96305  -9.96301  -9.96284
 Alpha  occ. eigenvalues --   -9.95934  -9.95225  -9.95137  -9.94985  -9.94706
 Alpha  occ. eigenvalues --   -9.94538  -9.94013  -9.93877  -9.93775  -9.93743
 Alpha  occ. eigenvalues --   -9.93406  -9.93373  -9.93176  -9.93122  -9.92867
 Alpha  occ. eigenvalues --   -9.92847  -9.92761  -9.92668  -9.92560  -9.92369
 Alpha  occ. eigenvalues --   -9.92367  -9.92259  -9.92225  -9.92173  -9.92112
 Alpha  occ. eigenvalues --   -9.92094  -9.92040  -9.91980  -9.91830  -9.91602
 Alpha  occ. eigenvalues --   -9.91598  -9.91495  -9.91398  -9.91331  -9.91327
 Alpha  occ. eigenvalues --   -9.91324  -9.91300  -9.91217  -9.91176  -9.90976
 Alpha  occ. eigenvalues --   -9.90899  -9.90865  -9.90715  -9.90474  -9.90415
 Alpha  occ. eigenvalues --   -9.90340  -2.91954  -1.72389  -1.71811  -1.71687
 Alpha  occ. eigenvalues --   -0.99120  -0.98291  -0.91392  -0.90814  -0.90547
 Alpha  occ. eigenvalues --   -0.90287  -0.86495  -0.85985  -0.84965  -0.83481
 Alpha  occ. eigenvalues --   -0.75508  -0.75032  -0.73240  -0.72376  -0.72116
 Alpha  occ. eigenvalues --   -0.71964  -0.71411  -0.71199  -0.70486  -0.70071
 Alpha  occ. eigenvalues --   -0.69389  -0.68708  -0.68227  -0.67922  -0.67131
 Alpha  occ. eigenvalues --   -0.66518  -0.66076  -0.65726  -0.65162  -0.64528
 Alpha  occ. eigenvalues --   -0.64111  -0.62256  -0.61968  -0.61634  -0.60867
 Alpha  occ. eigenvalues --   -0.60370  -0.60303  -0.59722  -0.59483  -0.59119
 Alpha  occ. eigenvalues --   -0.58796  -0.57630  -0.56307  -0.56162  -0.54757
 Alpha  occ. eigenvalues --   -0.54390  -0.53513  -0.52609  -0.52249  -0.51192
 Alpha  occ. eigenvalues --   -0.51118  -0.50931  -0.50603  -0.50405  -0.49948
 Alpha  occ. eigenvalues --   -0.49705  -0.49647  -0.49286  -0.47945  -0.46456
 Alpha  occ. eigenvalues --   -0.46356  -0.46029  -0.45533  -0.44902  -0.44644
 Alpha  occ. eigenvalues --   -0.44257  -0.44023  -0.43449  -0.43244  -0.42544
 Alpha  occ. eigenvalues --   -0.42405  -0.41884  -0.41845  -0.41502  -0.41200
 Alpha  occ. eigenvalues --   -0.41160  -0.40911  -0.40570  -0.40304  -0.40223
 Alpha  occ. eigenvalues --   -0.40030  -0.39911  -0.39633  -0.39365  -0.38995
 Alpha  occ. eigenvalues --   -0.38782  -0.38604  -0.38564  -0.38396  -0.37927
 Alpha  occ. eigenvalues --   -0.37813  -0.37710  -0.37601  -0.37478  -0.37334
 Alpha  occ. eigenvalues --   -0.36978  -0.36824  -0.36465  -0.36380  -0.36224
 Alpha  occ. eigenvalues --   -0.36203  -0.36086  -0.35855  -0.35772  -0.35659
 Alpha  occ. eigenvalues --   -0.35368  -0.35129  -0.34997  -0.34670  -0.34331
 Alpha  occ. eigenvalues --   -0.34174  -0.34152  -0.34026  -0.33955  -0.33862
 Alpha  occ. eigenvalues --   -0.33798  -0.33459  -0.33376  -0.33115  -0.32992
 Alpha  occ. eigenvalues --   -0.32609  -0.32535  -0.32317  -0.32237  -0.32051
 Alpha  occ. eigenvalues --   -0.31864  -0.31804  -0.31575  -0.31512  -0.31266
 Alpha  occ. eigenvalues --   -0.31154  -0.30810  -0.30674  -0.30655  -0.30565
 Alpha  occ. eigenvalues --   -0.30322  -0.30253  -0.29989  -0.29776  -0.29609
 Alpha  occ. eigenvalues --   -0.29389  -0.29158  -0.29128  -0.28988  -0.28870
 Alpha  occ. eigenvalues --   -0.28715  -0.28523  -0.28258  -0.28115  -0.27803
 Alpha  occ. eigenvalues --   -0.27326  -0.27268  -0.27085  -0.26580  -0.26219
 Alpha  occ. eigenvalues --   -0.26005  -0.25578  -0.25475  -0.25308  -0.25238
 Alpha  occ. eigenvalues --   -0.25098  -0.24591  -0.24466  -0.24017  -0.23826
 Alpha  occ. eigenvalues --   -0.22762  -0.22303  -0.22092  -0.21475  -0.20637
 Alpha  occ. eigenvalues --   -0.20469  -0.19373  -0.18470  -0.17783  -0.16837
 Alpha  occ. eigenvalues --   -0.15578
 Alpha virt. eigenvalues --   -0.11264  -0.06411  -0.05678  -0.04979  -0.04424
 Alpha virt. eigenvalues --   -0.02723  -0.02351  -0.01901  -0.00789   0.00271
 Alpha virt. eigenvalues --    0.01627   0.01991   0.02099   0.02220   0.02673

 Mulliken charges:
               1
     1  Mg   0.648286
     2  C   -0.009733
     3  C   -0.044871
     4  C   -0.041872
     5  C   -0.057854
     6  N   -0.190690
     7  C   -0.104199
     8  C    0.007965
     9  C   -0.002567
    10  C    0.045035
    11  C    0.098765
    12  C    0.113222
    13  C    0.106623
    14  C    0.096421
    15  O   -0.189356
    16  O   -0.267770
    17  N   -0.287716
    18  C    0.154604
    19  C   -0.122574
    20  C    0.040399
    21  C    0.046837
    22  C    0.163263
    23  C   -0.104065
    24  O   -0.176903
    25  C    0.184603
    26  N   -0.264110
    27  C    0.063194
    28  C   -0.025015
    29  C    0.018307
    30  C   -0.001530
    31  C    0.160430
    32  C    0.115583
    33  C    0.073394
    34  N   -0.199869
    35  C    0.165339
    36  C   -0.166808
    37  C    0.091938
    38  C    0.062750
    39  C    0.152290
    40  C   -0.081558
    41  O   -0.143050
    42  C    0.111494
    43  C    0.060309
    44  O   -0.146444
    45  O   -0.270931
    46  C    0.231283
    47  C    0.291716
    48  C   -0.066818
    49  C   -0.135724
    50  C    0.155489
    51  C    0.133313
    52  C    0.090576
    53  C    0.114361
    54  C   -0.123605
    55  C    0.100963
    56  C    0.104355
    57  C    0.066623
    58  C    0.128267
    59  C   -0.054293
    60  C    0.081539
    61  C    0.125029
    62  C    0.034174
    63  C    0.100580
    64  C   -0.076045
    65  C    0.098748
    66  C    0.111886
    67  H   -0.066724
    68  H   -0.040360
    69  H   -0.074569
    70  H    0.044527
    71  H   -0.038958
    72  H   -0.009563
    73  H   -0.029633
    74  H    0.007869
    75  H   -0.022448
    76  H   -0.011506
    77  H   -0.003943
    78  H    0.003072
    79  H   -0.008124
    80  H   -0.018483
    81  H   -0.010717
    82  H    0.003370
    83  H   -0.023960
    84  H    0.029126
    85  H   -0.023315
    86  H   -0.022935
    87  H    0.000933
    88  H   -0.019736
    89  H    0.001140
    90  H   -0.033008
    91  H   -0.020036
    92  H   -0.032739
    93  H   -0.012035
    94  H    0.001055
    95  H    0.005516
    96  H   -0.007762
    97  H    0.009532
    98  H    0.008345
    99  H    0.012681
   100  H    0.008001
   101  H    0.029867
   102  H    0.005149
   103  H   -0.016932
   104  H   -0.041984
   105  H   -0.010433
   106  H   -0.017902
   107  H   -0.009915
   108  H   -0.013544
   109  H   -0.049618
   110  H   -0.044508
   111  H   -0.013670
   112  H   -0.030361
   113  H   -0.038206
   114  H   -0.033009
   115  H   -0.020030
   116  H   -0.021009
   117  H   -0.014896
   118  H   -0.020543
   119  H   -0.032002
   120  H   -0.028984
   121  H   -0.046517
   122  H   -0.025572
   123  H   -0.037628
   124  H   -0.033388
   125  H   -0.030969
   126  H   -0.019366
   127  H   -0.033609
   128  H   -0.030255
   129  H   -0.026183
   130  H   -0.035703
   131  H   -0.036826
   132  H   -0.047852
   133  H   -0.025117
   134  H   -0.015300
   135  H   -0.015377
   136  H   -0.020560
   137  H   -0.025125
   138  H   -0.020668
   139  H   -0.020026
   140  H   -0.030025
 Sum of Mulliken charges =  -0.00000

 Dipole moment (field-independent basis, Debye):
    X=             -4.6742    Y=              2.1383    Z=              2.0904  Tot=              5.5489
 Quadrupole moment (field-independent basis, Debye-Ang):
   XX=           -396.4630   YY=           -415.7813   ZZ=           -408.3110
   XY=             -5.6861   XZ=             16.1477   YZ=             -2.8107

 Normal termination of Gaussian 16 at Wed Apr 27 04:40:31 2022.
