 Gaussian 16, Revision A.03,
 Gaussian 16:  ES64L-G16RevA.03 25-Dec-2016

 -----------------------------------
 #p cam-b3lyp/Def2SVP td=(nstates=5)
 -----------------------------------

 -------------------------------------------------------
 step_1051_chromophore_7 TDDFT with cam-b3lyp functional
 -------------------------------------------------------
 Symbolic Z-matrix:
 Charge =  0 Multiplicity = 1

                         Standard orientation:
 ---------------------------------------------------------------------
 Center     Atomic      Atomic             Coordinates (Angstroms)
 Number     Number       Type             X           Y           Z
 ---------------------------------------------------------------------
      1         12           0        6.001996    0.486948    0.115777
      2          6           0        3.399875   -2.014611    0.180708
      3          6           0        3.730005    2.829116   -0.749086
      4          6           0        8.490376    2.624805    0.191217
      5          6           0        8.266212   -2.291341    0.759348
      6          7           0        3.793542    0.322807   -0.381352
      7          6           0        2.951094   -0.681149   -0.165243
      8          6           0        1.572059   -0.281264   -0.520992
      9          6           0        1.759941    1.215244   -1.020429
     10          6           0        3.198623    1.522779   -0.713239
     11          6           0        1.457566    1.349694   -2.504554
     12          6           0        0.560000   -0.456782    0.678045
     13          6           0       -0.784234   -1.275325    0.342975
     14          6           0       -1.472281   -1.144436   -0.992609
     15          8           0       -0.870213   -1.070080   -2.060302
     16          8           0       -2.807296   -0.787762   -0.859874
     17          7           0        6.178354    2.477169   -0.381347
     18          6           0        5.047591    3.283831   -0.556276
     19          6           0        5.582331    4.599848   -0.605578
     20          6           0        6.943848    4.620567   -0.312232
     21          6           0        7.252357    3.209145   -0.177473
     22          6           0        4.703616    5.751519   -1.159196
     23          6           0        7.943581    5.798137   -0.392662
     24          8           0        9.161590    5.637659   -0.221554
     25          6           0        7.461370    7.124271   -0.752673
     26          7           0        8.087801    0.166850    0.159175
     27          6           0        8.886618    1.302053    0.262122
     28          6           0       10.306722    0.823518    0.683617
     29          6           0       10.200126   -0.669355    1.071877
     30          6           0        8.766572   -0.976835    0.618254
     31          6           0       11.388872    1.146896   -0.383460
     32          6           0       10.571263   -0.882633    2.559336
     33          6           0       11.275566   -2.219532    2.918788
     34          7           0        5.918371   -1.756868    0.439933
     35          6           0        6.941004   -2.684274    0.627215
     36          6           0        6.356107   -3.973638    0.851588
     37          6           0        4.924458   -3.754393    0.710321
     38          6           0        4.743439   -2.367647    0.417718
     39          6           0        7.116254   -5.313089    1.105192
     40          6           0        3.602736   -4.348911    0.675884
     41          8           0        3.402689   -5.546542    0.871947
     42          6           0        2.522210   -3.291891    0.457996
     43          6           0        1.681973   -3.660211   -0.646299
     44          8           0        1.750812   -3.280421   -1.778203
     45          8           0        0.769235   -4.511024   -0.107163
     46          6           0       -0.206531   -4.945619   -1.077496
     47          6           0       -3.554676   -0.182265   -1.919226
     48          6           0       -5.125241   -0.125657   -1.634751
     49          6           0       -5.866577   -1.139555   -1.221371
     50          6           0       -5.485032   -2.580742   -1.150594
     51          6           0       -7.170925   -0.889521   -0.580292
     52          6           0       -8.181678   -0.820136   -1.658190
     53          6           0       -9.317914    0.051751   -1.260991
     54          6           0      -10.743664   -0.480963   -1.659239
     55          6           0      -10.764309   -0.935213   -3.149034
     56          6           0      -11.789307    0.673966   -1.524037
     57          6           0      -13.263809    0.151913   -1.417676
     58          6           0      -14.082732    0.720579   -0.237762
     59          6           0      -13.924033   -0.244929    1.009088
     60          6           0      -15.194181   -1.097551    1.112286
     61          6           0      -13.613569    0.415139    2.375976
     62          6           0      -12.099316    0.579725    2.640066
     63          6           0      -11.848742    1.891617    3.470732
     64          6           0      -11.569326    3.082538    2.544348
     65          6           0      -10.079283    3.491173    2.557301
     66          6           0      -12.415611    4.230071    3.006400
     67          1           0        2.961478    3.577392   -0.954034
     68          1           0        9.208485    3.338207    0.601206
     69          1           0        9.088072   -2.941026    1.068819
     70          1           0        1.321392   -0.996002   -1.304333
     71          1           0        1.011994    1.893301   -0.610109
     72          1           0        2.348168    1.414531   -3.130578
     73          1           0        0.813968    2.176234   -2.805450
     74          1           0        0.853887    0.495337   -2.811246
     75          1           0        0.173797    0.526499    0.947820
     76          1           0        1.109394   -0.791677    1.557947
     77          1           0       -1.456194   -0.910813    1.120314
     78          1           0       -0.676820   -2.349839    0.491250
     79          1           0        5.159356    6.076025   -2.094820
     80          1           0        4.759847    6.663391   -0.563793
     81          1           0        3.647876    5.574129   -1.364233
     82          1           0        7.153573    6.946681   -1.783251
     83          1           0        8.361824    7.723131   -0.888538
     84          1           0        6.846826    7.590949    0.016764
     85          1           0       10.514980    1.435171    1.561779
     86          1           0       10.820567   -1.386037    0.533724
     87          1           0       10.920940    1.675950   -1.213651
     88          1           0       11.708015    0.160821   -0.720140
     89          1           0       12.171455    1.716877    0.116255
     90          1           0        9.632262   -0.818015    3.109072
     91          1           0       11.087198   -0.002247    2.942531
     92          1           0       10.823686   -3.034119    2.352760
     93          1           0       10.995564   -2.538471    3.922487
     94          1           0       12.336476   -2.385274    2.734309
     95          1           0        6.465332   -5.927703    1.727221
     96          1           0        8.096536   -5.351553    1.581378
     97          1           0        7.193478   -5.805909    0.135372
     98          1           0        1.827441   -3.150001    1.285322
     99          1           0       -0.729407   -4.003449   -1.245538
    100          1           0       -0.821235   -5.647763   -0.514599
    101          1           0        0.321015   -5.429956   -1.900002
    102          1           0       -3.381396   -0.649745   -2.888541
    103          1           0       -3.074861    0.793837   -1.997334
    104          1           0       -5.643679    0.824197   -1.501842
    105          1           0       -5.798621   -3.051671   -0.218761
    106          1           0       -4.436772   -2.847444   -1.286372
    107          1           0       -5.991090   -3.137484   -1.939822
    108          1           0       -7.162894   -0.138196    0.209624
    109          1           0       -7.488870   -1.745594    0.014894
    110          1           0       -8.614380   -1.815679   -1.757934
    111          1           0       -7.712076   -0.644037   -2.625248
    112          1           0       -9.229223    1.083848   -1.599392
    113          1           0       -9.277224    0.070758   -0.171685
    114          1           0      -11.040419   -1.327854   -1.040416
    115          1           0      -11.574630   -0.542736   -3.763066
    116          1           0      -10.906311   -2.014703   -3.086274
    117          1           0       -9.910844   -0.737682   -3.797377
    118          1           0      -11.636796    1.438604   -2.286039
    119          1           0      -11.519748    1.018491   -0.525385
    120          1           0      -13.273816   -0.936247   -1.458203
    121          1           0      -13.814883    0.448444   -2.310360
    122          1           0      -15.044173    0.941021   -0.702451
    123          1           0      -13.673769    1.649256    0.160464
    124          1           0      -13.205689   -1.038450    0.801740
    125          1           0      -15.319697   -1.844012    0.327989
    126          1           0      -16.107640   -0.506297    1.165793
    127          1           0      -15.167930   -1.763251    1.975133
    128          1           0      -13.919939   -0.189323    3.229082
    129          1           0      -14.109142    1.386629    2.373112
    130          1           0      -11.604800    0.690983    1.675017
    131          1           0      -11.581673   -0.272506    3.080867
    132          1           0      -10.953807    1.663144    4.049948
    133          1           0      -12.653151    2.019792    4.195132
    134          1           0      -11.846987    2.796534    1.530478
    135          1           0       -9.867881    4.560183    2.582357
    136          1           0       -9.515138    3.069225    1.725637
    137          1           0       -9.559285    3.108397    3.435110
    138          1           0      -13.130590    4.015870    3.801576
    139          1           0      -12.950448    4.686770    2.174351
    140          1           0      -11.784293    5.011881    3.428782
 ---------------------------------------------------------------------

 SCF Done:  E(RCAM-B3LYP) =  -3007.12852991     A.U. after   17 cycles

 Excitation energies and oscillator strengths:

 Excited State   1:      Singlet-A      1.7073 eV  726.19 nm  f=0.3953  <S**2>=0.000
     245 -> 248        0.18331
     246 -> 247        0.68530
     245 <- 248        0.10948
 This state for optimization and/or second-order correction.
 Total Energy, E(TD-HF/TD-DFT) =  -3007.06578664
 Copying the excited state density for this state as the 1-particle RhoCI density.

 Excited State   2:      Singlet-A      2.2049 eV  562.31 nm  f=0.1264  <S**2>=0.000
     245 -> 247        0.64628
     246 -> 248       -0.27197

 Excited State   3:      Singlet-A      3.1377 eV  395.14 nm  f=0.0009  <S**2>=0.000
     242 -> 247        0.20287
     244 -> 247        0.64499
     246 -> 248        0.11077

 Excited State   4:      Singlet-A      3.2590 eV  380.44 nm  f=0.0012  <S**2>=0.000
     242 -> 247        0.57796
     242 -> 249       -0.25959
     242 -> 250        0.10830
     244 -> 247       -0.23852

 Excited State   5:      Singlet-A      3.5602 eV  348.25 nm  f=0.2264  <S**2>=0.000
     243 -> 247        0.49356
     245 -> 247        0.15739
     246 -> 248        0.44069

 The electronic state is 1-A.
 Alpha  occ. eigenvalues --  -46.89192 -19.25236 -19.24761 -19.20985 -19.20286
 Alpha  occ. eigenvalues --  -19.18256 -19.18213 -14.41964 -14.41381 -14.39040
 Alpha  occ. eigenvalues --  -14.38221 -10.40825 -10.38660 -10.34753 -10.34582
 Alpha  occ. eigenvalues --  -10.33089 -10.31480 -10.30966 -10.30957 -10.30518
 Alpha  occ. eigenvalues --  -10.30239 -10.29536 -10.29352 -10.29035 -10.28832
 Alpha  occ. eigenvalues --  -10.28793 -10.28605 -10.28412 -10.28317 -10.28312
 Alpha  occ. eigenvalues --  -10.27694 -10.27565 -10.27093 -10.26958 -10.26949
 Alpha  occ. eigenvalues --  -10.26670 -10.26577 -10.26508 -10.26449 -10.26429
 Alpha  occ. eigenvalues --  -10.26206 -10.26149 -10.26135 -10.26063 -10.25823
 Alpha  occ. eigenvalues --  -10.25785 -10.25778 -10.25696 -10.25627 -10.25383
 Alpha  occ. eigenvalues --  -10.25335 -10.25271 -10.25103 -10.24997 -10.24992
 Alpha  occ. eigenvalues --  -10.24987 -10.24984 -10.24926 -10.24859 -10.24785
 Alpha  occ. eigenvalues --  -10.24575 -10.24563 -10.24306 -10.24007 -10.23991
 Alpha  occ. eigenvalues --  -10.23894  -3.17481  -1.92395  -1.91910  -1.91793
 Alpha  occ. eigenvalues --   -1.17956  -1.16741  -1.09610  -1.08985  -1.08730
 Alpha  occ. eigenvalues --   -1.08695  -1.04197  -1.03504  -1.02714  -1.00972
 Alpha  occ. eigenvalues --   -0.92450  -0.92389  -0.90055  -0.89088  -0.88795
 Alpha  occ. eigenvalues --   -0.88695  -0.87968  -0.87780  -0.87020  -0.86616
 Alpha  occ. eigenvalues --   -0.85738  -0.85141  -0.84629  -0.84261  -0.83258
 Alpha  occ. eigenvalues --   -0.82582  -0.82141  -0.81683  -0.80977  -0.80388
 Alpha  occ. eigenvalues --   -0.79871  -0.77822  -0.77673  -0.77149  -0.76246
 Alpha  occ. eigenvalues --   -0.75835  -0.75664  -0.74994  -0.74710  -0.74371
 Alpha  occ. eigenvalues --   -0.73885  -0.72694  -0.71151  -0.71022  -0.69432
 Alpha  occ. eigenvalues --   -0.69005  -0.68182  -0.67008  -0.66588  -0.65386
 Alpha  occ. eigenvalues --   -0.65221  -0.65066  -0.64527  -0.64113  -0.63959
 Alpha  occ. eigenvalues --   -0.63712  -0.63606  -0.63201  -0.61912  -0.60057
 Alpha  occ. eigenvalues --   -0.59788  -0.59699  -0.59233  -0.58759  -0.58139
 Alpha  occ. eigenvalues --   -0.57693  -0.57326  -0.56911  -0.56604  -0.55614
 Alpha  occ. eigenvalues --   -0.55473  -0.55232  -0.54734  -0.54543  -0.54024
 Alpha  occ. eigenvalues --   -0.53934  -0.53648  -0.53550  -0.53114  -0.52872
 Alpha  occ. eigenvalues --   -0.52744  -0.52515  -0.52333  -0.51902  -0.51600
 Alpha  occ. eigenvalues --   -0.51186  -0.51013  -0.50888  -0.50816  -0.50798
 Alpha  occ. eigenvalues --   -0.50398  -0.50065  -0.49898  -0.49782  -0.49662
 Alpha  occ. eigenvalues --   -0.49355  -0.49051  -0.48861  -0.48828  -0.48590
 Alpha  occ. eigenvalues --   -0.48376  -0.48209  -0.48110  -0.47828  -0.47610
 Alpha  occ. eigenvalues --   -0.47567  -0.47343  -0.47140  -0.46619  -0.46295
 Alpha  occ. eigenvalues --   -0.46105  -0.45904  -0.45780  -0.45729  -0.45695
 Alpha  occ. eigenvalues --   -0.45553  -0.45284  -0.45104  -0.44925  -0.44619
 Alpha  occ. eigenvalues --   -0.44525  -0.44305  -0.44134  -0.43784  -0.43638
 Alpha  occ. eigenvalues --   -0.43462  -0.43411  -0.43193  -0.42946  -0.42812
 Alpha  occ. eigenvalues --   -0.42564  -0.42550  -0.42314  -0.42228  -0.42178
 Alpha  occ. eigenvalues --   -0.42008  -0.41589  -0.41342  -0.41176  -0.40885
 Alpha  occ. eigenvalues --   -0.40652  -0.40270  -0.40196  -0.40091  -0.39980
 Alpha  occ. eigenvalues --   -0.39754  -0.39618  -0.39309  -0.39180  -0.38662
 Alpha  occ. eigenvalues --   -0.38282  -0.38049  -0.37984  -0.37388  -0.37241
 Alpha  occ. eigenvalues --   -0.36951  -0.36773  -0.36600  -0.36407  -0.36063
 Alpha  occ. eigenvalues --   -0.35813  -0.35562  -0.35106  -0.35071  -0.34511
 Alpha  occ. eigenvalues --   -0.34370  -0.33312  -0.33007  -0.30874  -0.30599
 Alpha  occ. eigenvalues --   -0.30408  -0.30148  -0.29612  -0.28769  -0.23598
 Alpha  occ. eigenvalues --   -0.20883
 Alpha virt. eigenvalues --   -0.08478  -0.01217   0.00782   0.02352   0.02797
 Alpha virt. eigenvalues --    0.02852   0.04744   0.05585   0.06240   0.07206
 Alpha virt. eigenvalues --    0.07829   0.08079   0.08608   0.08928   0.09087

 Mulliken charges:
               1
     1  Mg   0.779926
     2  C   -0.031237
     3  C   -0.050080
     4  C   -0.062355
     5  C   -0.071983
     6  N   -0.261306
     7  C   -0.043487
     8  C   -0.057555
     9  C   -0.054490
    10  C    0.052764
    11  C    0.043926
    12  C    0.065114
    13  C    0.034322
    14  C    0.177976
    15  O   -0.229261
    16  O   -0.333657
    17  N   -0.375100
    18  C    0.151042
    19  C   -0.127627
    20  C   -0.028922
    21  C    0.074868
    22  C    0.105471
    23  C   -0.018244
    24  O   -0.219149
    25  C    0.089061
    26  N   -0.338729
    27  C    0.082159
    28  C   -0.079527
    29  C   -0.040698
    30  C    0.030335
    31  C    0.102416
    32  C    0.056983
    33  C    0.011097
    34  N   -0.288528
    35  C    0.171239
    36  C   -0.161605
    37  C    0.015825
    38  C    0.096817
    39  C    0.106675
    40  C    0.018090
    41  O   -0.178129
    42  C    0.031249
    43  C    0.147960
    44  O   -0.179705
    45  O   -0.331998
    46  C    0.192193
    47  C    0.264224
    48  C   -0.093341
    49  C   -0.159886
    50  C    0.094704
    51  C    0.063305
    52  C    0.035977
    53  C    0.067105
    54  C   -0.172777
    55  C    0.037088
    56  C    0.055292
    57  C    0.014508
    58  C    0.073188
    59  C   -0.113861
    60  C    0.028487
    61  C    0.069111
    62  C   -0.009727
    63  C    0.044451
    64  C   -0.137090
    65  C    0.043040
    66  C    0.050385
    67  H   -0.030641
    68  H   -0.001697
    69  H   -0.040396
    70  H    0.080032
    71  H   -0.004446
    72  H    0.016679
    73  H   -0.004838
    74  H    0.032596
    75  H    0.008766
    76  H    0.019488
    77  H    0.033248
    78  H    0.029339
    79  H    0.017185
    80  H    0.006633
    81  H    0.016569
    82  H    0.031478
    83  H    0.014105
    84  H    0.056731
    85  H    0.010857
    86  H    0.012482
    87  H    0.027560
    88  H    0.003608
    89  H    0.024324
    90  H   -0.001455
    91  H    0.009683
    92  H   -0.012970
    93  H    0.013487
    94  H    0.025317
    95  H    0.032262
    96  H    0.017831
    97  H    0.036362
    98  H    0.050760
    99  H    0.027517
   100  H    0.033891
   101  H    0.054803
   102  H    0.033853
   103  H    0.011072
   104  H   -0.009319
   105  H    0.014498
   106  H    0.007020
   107  H    0.015448
   108  H    0.017734
   109  H   -0.015897
   110  H   -0.013685
   111  H    0.014650
   112  H   -0.002240
   113  H   -0.011266
   114  H   -0.003153
   115  H    0.005015
   116  H    0.002868
   117  H    0.010019
   118  H    0.008096
   119  H   -0.011916
   120  H   -0.002600
   121  H   -0.016098
   122  H    0.004390
   123  H   -0.010818
   124  H   -0.003603
   125  H   -0.005761
   126  H    0.004066
   127  H   -0.008395
   128  H   -0.000050
   129  H    0.000851
   130  H   -0.015879
   131  H   -0.007158
   132  H   -0.017014
   133  H    0.002923
   134  H    0.012634
   135  H    0.009342
   136  H    0.002049
   137  H   -0.001141
   138  H    0.003923
   139  H    0.004915
   140  H   -0.004844
 Sum of Mulliken charges =  -0.00000

 Dipole moment (field-independent basis, Debye):
    X=             -4.8836    Y=              1.9594    Z=              2.3431  Tot=              5.7601
 Quadrupole moment (field-independent basis, Debye-Ang):
   XX=           -397.5546   YY=           -411.1707   ZZ=           -408.2804
   XY=             -6.8753   XZ=             17.1606   YZ=             -3.6494

 Normal termination of Gaussian 16 at Wed Apr 27 03:41:27 2022.
