 Gaussian 16, Revision A.03,
 Gaussian 16:  ES64L-G16RevA.03 25-Dec-2016

 ---------------------------------
 #p PBE1PBE/Def2SVP td=(nstates=5)
 ---------------------------------

 -----------------------------------------------------
 step_1051_chromophore_7 TDDFT with PBE1PBE functional
 -----------------------------------------------------
 Symbolic Z-matrix:
 Charge =  0 Multiplicity = 1

                         Standard orientation:
 ---------------------------------------------------------------------
 Center     Atomic      Atomic             Coordinates (Angstroms)
 Number     Number       Type             X           Y           Z
 ---------------------------------------------------------------------
      1         12           0        6.001996    0.486948    0.115777
      2          6           0        3.399875   -2.014611    0.180708
      3          6           0        3.730005    2.829116   -0.749086
      4          6           0        8.490376    2.624805    0.191217
      5          6           0        8.266212   -2.291341    0.759348
      6          7           0        3.793542    0.322807   -0.381352
      7          6           0        2.951094   -0.681149   -0.165243
      8          6           0        1.572059   -0.281264   -0.520992
      9          6           0        1.759941    1.215244   -1.020429
     10          6           0        3.198623    1.522779   -0.713239
     11          6           0        1.457566    1.349694   -2.504554
     12          6           0        0.560000   -0.456782    0.678045
     13          6           0       -0.784234   -1.275325    0.342975
     14          6           0       -1.472281   -1.144436   -0.992609
     15          8           0       -0.870213   -1.070080   -2.060302
     16          8           0       -2.807296   -0.787762   -0.859874
     17          7           0        6.178354    2.477169   -0.381347
     18          6           0        5.047591    3.283831   -0.556276
     19          6           0        5.582331    4.599848   -0.605578
     20          6           0        6.943848    4.620567   -0.312232
     21          6           0        7.252357    3.209145   -0.177473
     22          6           0        4.703616    5.751519   -1.159196
     23          6           0        7.943581    5.798137   -0.392662
     24          8           0        9.161590    5.637659   -0.221554
     25          6           0        7.461370    7.124271   -0.752673
     26          7           0        8.087801    0.166850    0.159175
     27          6           0        8.886618    1.302053    0.262122
     28          6           0       10.306722    0.823518    0.683617
     29          6           0       10.200126   -0.669355    1.071877
     30          6           0        8.766572   -0.976835    0.618254
     31          6           0       11.388872    1.146896   -0.383460
     32          6           0       10.571263   -0.882633    2.559336
     33          6           0       11.275566   -2.219532    2.918788
     34          7           0        5.918371   -1.756868    0.439933
     35          6           0        6.941004   -2.684274    0.627215
     36          6           0        6.356107   -3.973638    0.851588
     37          6           0        4.924458   -3.754393    0.710321
     38          6           0        4.743439   -2.367647    0.417718
     39          6           0        7.116254   -5.313089    1.105192
     40          6           0        3.602736   -4.348911    0.675884
     41          8           0        3.402689   -5.546542    0.871947
     42          6           0        2.522210   -3.291891    0.457996
     43          6           0        1.681973   -3.660211   -0.646299
     44          8           0        1.750812   -3.280421   -1.778203
     45          8           0        0.769235   -4.511024   -0.107163
     46          6           0       -0.206531   -4.945619   -1.077496
     47          6           0       -3.554676   -0.182265   -1.919226
     48          6           0       -5.125241   -0.125657   -1.634751
     49          6           0       -5.866577   -1.139555   -1.221371
     50          6           0       -5.485032   -2.580742   -1.150594
     51          6           0       -7.170925   -0.889521   -0.580292
     52          6           0       -8.181678   -0.820136   -1.658190
     53          6           0       -9.317914    0.051751   -1.260991
     54          6           0      -10.743664   -0.480963   -1.659239
     55          6           0      -10.764309   -0.935213   -3.149034
     56          6           0      -11.789307    0.673966   -1.524037
     57          6           0      -13.263809    0.151913   -1.417676
     58          6           0      -14.082732    0.720579   -0.237762
     59          6           0      -13.924033   -0.244929    1.009088
     60          6           0      -15.194181   -1.097551    1.112286
     61          6           0      -13.613569    0.415139    2.375976
     62          6           0      -12.099316    0.579725    2.640066
     63          6           0      -11.848742    1.891617    3.470732
     64          6           0      -11.569326    3.082538    2.544348
     65          6           0      -10.079283    3.491173    2.557301
     66          6           0      -12.415611    4.230071    3.006400
     67          1           0        2.961478    3.577392   -0.954034
     68          1           0        9.208485    3.338207    0.601206
     69          1           0        9.088072   -2.941026    1.068819
     70          1           0        1.321392   -0.996002   -1.304333
     71          1           0        1.011994    1.893301   -0.610109
     72          1           0        2.348168    1.414531   -3.130578
     73          1           0        0.813968    2.176234   -2.805450
     74          1           0        0.853887    0.495337   -2.811246
     75          1           0        0.173797    0.526499    0.947820
     76          1           0        1.109394   -0.791677    1.557947
     77          1           0       -1.456194   -0.910813    1.120314
     78          1           0       -0.676820   -2.349839    0.491250
     79          1           0        5.159356    6.076025   -2.094820
     80          1           0        4.759847    6.663391   -0.563793
     81          1           0        3.647876    5.574129   -1.364233
     82          1           0        7.153573    6.946681   -1.783251
     83          1           0        8.361824    7.723131   -0.888538
     84          1           0        6.846826    7.590949    0.016764
     85          1           0       10.514980    1.435171    1.561779
     86          1           0       10.820567   -1.386037    0.533724
     87          1           0       10.920940    1.675950   -1.213651
     88          1           0       11.708015    0.160821   -0.720140
     89          1           0       12.171455    1.716877    0.116255
     90          1           0        9.632262   -0.818015    3.109072
     91          1           0       11.087198   -0.002247    2.942531
     92          1           0       10.823686   -3.034119    2.352760
     93          1           0       10.995564   -2.538471    3.922487
     94          1           0       12.336476   -2.385274    2.734309
     95          1           0        6.465332   -5.927703    1.727221
     96          1           0        8.096536   -5.351553    1.581378
     97          1           0        7.193478   -5.805909    0.135372
     98          1           0        1.827441   -3.150001    1.285322
     99          1           0       -0.729407   -4.003449   -1.245538
    100          1           0       -0.821235   -5.647763   -0.514599
    101          1           0        0.321015   -5.429956   -1.900002
    102          1           0       -3.381396   -0.649745   -2.888541
    103          1           0       -3.074861    0.793837   -1.997334
    104          1           0       -5.643679    0.824197   -1.501842
    105          1           0       -5.798621   -3.051671   -0.218761
    106          1           0       -4.436772   -2.847444   -1.286372
    107          1           0       -5.991090   -3.137484   -1.939822
    108          1           0       -7.162894   -0.138196    0.209624
    109          1           0       -7.488870   -1.745594    0.014894
    110          1           0       -8.614380   -1.815679   -1.757934
    111          1           0       -7.712076   -0.644037   -2.625248
    112          1           0       -9.229223    1.083848   -1.599392
    113          1           0       -9.277224    0.070758   -0.171685
    114          1           0      -11.040419   -1.327854   -1.040416
    115          1           0      -11.574630   -0.542736   -3.763066
    116          1           0      -10.906311   -2.014703   -3.086274
    117          1           0       -9.910844   -0.737682   -3.797377
    118          1           0      -11.636796    1.438604   -2.286039
    119          1           0      -11.519748    1.018491   -0.525385
    120          1           0      -13.273816   -0.936247   -1.458203
    121          1           0      -13.814883    0.448444   -2.310360
    122          1           0      -15.044173    0.941021   -0.702451
    123          1           0      -13.673769    1.649256    0.160464
    124          1           0      -13.205689   -1.038450    0.801740
    125          1           0      -15.319697   -1.844012    0.327989
    126          1           0      -16.107640   -0.506297    1.165793
    127          1           0      -15.167930   -1.763251    1.975133
    128          1           0      -13.919939   -0.189323    3.229082
    129          1           0      -14.109142    1.386629    2.373112
    130          1           0      -11.604800    0.690983    1.675017
    131          1           0      -11.581673   -0.272506    3.080867
    132          1           0      -10.953807    1.663144    4.049948
    133          1           0      -12.653151    2.019792    4.195132
    134          1           0      -11.846987    2.796534    1.530478
    135          1           0       -9.867881    4.560183    2.582357
    136          1           0       -9.515138    3.069225    1.725637
    137          1           0       -9.559285    3.108397    3.435110
    138          1           0      -13.130590    4.015870    3.801576
    139          1           0      -12.950448    4.686770    2.174351
    140          1           0      -11.784293    5.011881    3.428782
 ---------------------------------------------------------------------

 SCF Done:  E(RPBE1PBE) =  -3005.31707263     A.U. after   15 cycles

 Excitation energies and oscillator strengths:

 Excited State   1:      Singlet-A      1.8607 eV  666.35 nm  f=0.3814  <S**2>=0.000
     245 -> 248        0.17750
     246 -> 247        0.69230
     246 <- 247       -0.10586
 This state for optimization and/or second-order correction.
 Total Energy, E(TD-HF/TD-DFT) =  -3005.24869484
 Copying the excited state density for this state as the 1-particle RhoCI density.

 Excited State   2:      Singlet-A      2.2105 eV  560.89 nm  f=0.1161  <S**2>=0.000
     245 -> 247        0.65468
     246 -> 248       -0.24801

 Excited State   3:      Singlet-A      2.7718 eV  447.31 nm  f=0.0014  <S**2>=0.000
     243 -> 247        0.55406
     243 -> 249       -0.13904
     244 -> 247        0.39558

 Excited State   4:      Singlet-A      2.8897 eV  429.06 nm  f=0.0055  <S**2>=0.000
     243 -> 247       -0.39551
     244 -> 247        0.56750

 Excited State   5:      Singlet-A      3.1417 eV  394.64 nm  f=0.0001  <S**2>=0.000
     240 -> 247        0.19163
     242 -> 247        0.63318
     246 -> 248       -0.13110

 The electronic state is 1-A.
 Alpha  occ. eigenvalues --  -46.92555 -19.25893 -19.25307 -19.21199 -19.20357
 Alpha  occ. eigenvalues --  -19.18635 -19.18224 -14.41402 -14.41011 -14.38776
 Alpha  occ. eigenvalues --  -14.37806 -10.37793 -10.35490 -10.32027 -10.31540
 Alpha  occ. eigenvalues --  -10.30474 -10.28598 -10.28597 -10.28566 -10.28419
 Alpha  occ. eigenvalues --  -10.28097 -10.27154 -10.27017 -10.27001 -10.26366
 Alpha  occ. eigenvalues --  -10.26273 -10.26242 -10.26061 -10.25907 -10.25783
 Alpha  occ. eigenvalues --  -10.25547 -10.25196 -10.24917 -10.24829 -10.24566
 Alpha  occ. eigenvalues --  -10.24558 -10.24423 -10.24126 -10.24071 -10.24006
 Alpha  occ. eigenvalues --  -10.23994 -10.23854 -10.23728 -10.23531 -10.23521
 Alpha  occ. eigenvalues --  -10.23293 -10.23223 -10.23198 -10.23143 -10.23093
 Alpha  occ. eigenvalues --  -10.22883 -10.22852 -10.22654 -10.22582 -10.22547
 Alpha  occ. eigenvalues --  -10.22542 -10.22538 -10.22454 -10.22417 -10.22307
 Alpha  occ. eigenvalues --  -10.22156 -10.21981 -10.21716 -10.21554 -10.21389
 Alpha  occ. eigenvalues --  -10.21276  -3.14434  -1.87288  -1.86781  -1.86668
 Alpha  occ. eigenvalues --   -1.12598  -1.11501  -1.04305  -1.03591  -1.03526
 Alpha  occ. eigenvalues --   -1.03506  -0.98851  -0.98283  -0.97278  -0.95580
 Alpha  occ. eigenvalues --   -0.86610  -0.86592  -0.84125  -0.83209  -0.83125
 Alpha  occ. eigenvalues --   -0.82876  -0.82337  -0.81905  -0.81386  -0.80966
 Alpha  occ. eigenvalues --   -0.80019  -0.79380  -0.78814  -0.78492  -0.77532
 Alpha  occ. eigenvalues --   -0.76759  -0.76436  -0.75955  -0.75333  -0.74665
 Alpha  occ. eigenvalues --   -0.74054  -0.72162  -0.71910  -0.71456  -0.70448
 Alpha  occ. eigenvalues --   -0.70074  -0.69755  -0.69290  -0.68903  -0.68520
 Alpha  occ. eigenvalues --   -0.68190  -0.67114  -0.65622  -0.65338  -0.63756
 Alpha  occ. eigenvalues --   -0.63201  -0.62624  -0.61215  -0.61105  -0.59707
 Alpha  occ. eigenvalues --   -0.59575  -0.59506  -0.59136  -0.58640  -0.58267
 Alpha  occ. eigenvalues --   -0.58108  -0.57717  -0.57395  -0.56383  -0.54596
 Alpha  occ. eigenvalues --   -0.54251  -0.54154  -0.53637  -0.53011  -0.52738
 Alpha  occ. eigenvalues --   -0.52273  -0.51672  -0.51409  -0.51100  -0.50242
 Alpha  occ. eigenvalues --   -0.49960  -0.49716  -0.49235  -0.49094  -0.48509
 Alpha  occ. eigenvalues --   -0.48389  -0.48143  -0.48002  -0.47601  -0.47424
 Alpha  occ. eigenvalues --   -0.47260  -0.47092  -0.46954  -0.46472  -0.46156
 Alpha  occ. eigenvalues --   -0.45677  -0.45631  -0.45497  -0.45352  -0.45321
 Alpha  occ. eigenvalues --   -0.45002  -0.44647  -0.44546  -0.44347  -0.44247
 Alpha  occ. eigenvalues --   -0.43842  -0.43599  -0.43532  -0.43389  -0.43258
 Alpha  occ. eigenvalues --   -0.43072  -0.42802  -0.42695  -0.42506  -0.42273
 Alpha  occ. eigenvalues --   -0.42197  -0.42003  -0.41740  -0.41292  -0.41015
 Alpha  occ. eigenvalues --   -0.40753  -0.40635  -0.40472  -0.40356  -0.40279
 Alpha  occ. eigenvalues --   -0.40262  -0.40034  -0.39814  -0.39608  -0.39294
 Alpha  occ. eigenvalues --   -0.39169  -0.39005  -0.38863  -0.38515  -0.38356
 Alpha  occ. eigenvalues --   -0.38234  -0.38191  -0.37970  -0.37720  -0.37609
 Alpha  occ. eigenvalues --   -0.37309  -0.37280  -0.37089  -0.37007  -0.36950
 Alpha  occ. eigenvalues --   -0.36673  -0.36468  -0.36242  -0.36086  -0.35816
 Alpha  occ. eigenvalues --   -0.35417  -0.35177  -0.35045  -0.34952  -0.34770
 Alpha  occ. eigenvalues --   -0.34541  -0.34511  -0.34242  -0.33930  -0.33424
 Alpha  occ. eigenvalues --   -0.33257  -0.32955  -0.32821  -0.32194  -0.32051
 Alpha  occ. eigenvalues --   -0.31774  -0.31713  -0.31605  -0.31413  -0.30939
 Alpha  occ. eigenvalues --   -0.30742  -0.30561  -0.30029  -0.29794  -0.29389
 Alpha  occ. eigenvalues --   -0.29218  -0.28824  -0.28236  -0.26476  -0.25708
 Alpha  occ. eigenvalues --   -0.25638  -0.25198  -0.24837  -0.24284  -0.20545
 Alpha  occ. eigenvalues --   -0.18526
 Alpha virt. eigenvalues --   -0.10907  -0.04737  -0.03407  -0.01924  -0.01738
 Alpha virt. eigenvalues --   -0.00105   0.00305   0.01112   0.02029   0.03232
 Alpha virt. eigenvalues --    0.04639   0.04730   0.04784   0.05080   0.05609

 Mulliken charges:
               1
     1  Mg   0.921005
     2  C   -0.023331
     3  C   -0.044710
     4  C   -0.054527
     5  C   -0.066669
     6  N   -0.370915
     7  C    0.044833
     8  C   -0.137715
     9  C   -0.138053
    10  C    0.088484
    11  C   -0.007313
    12  C    0.022102
    13  C   -0.049172
    14  C    0.244317
    15  O   -0.263694
    16  O   -0.365199
    17  N   -0.493550
    18  C    0.179933
    19  C   -0.157942
    20  C   -0.075922
    21  C    0.113763
    22  C    0.047675
    23  C    0.032620
    24  O   -0.254476
    25  C    0.010108
    26  N   -0.438107
    27  C    0.111910
    28  C   -0.156535
    29  C   -0.115017
    30  C    0.068329
    31  C    0.043695
    32  C   -0.000822
    33  C   -0.064417
    34  N   -0.412606
    35  C    0.184374
    36  C   -0.172541
    37  C   -0.036627
    38  C    0.141376
    39  C    0.054597
    40  C    0.114100
    41  O   -0.224151
    42  C   -0.084602
    43  C    0.239612
    44  O   -0.217248
    45  O   -0.363867
    46  C    0.131653
    47  C    0.226095
    48  C   -0.103518
    49  C   -0.212667
    50  C    0.036012
    51  C   -0.003037
    52  C   -0.023371
    53  C    0.011363
    54  C   -0.259724
    55  C   -0.017040
    56  C   -0.015504
    57  C   -0.043296
    58  C    0.013860
    59  C   -0.203483
    60  C   -0.027945
    61  C    0.014657
    62  C   -0.086699
    63  C   -0.005561
    64  C   -0.244429
    65  C   -0.012820
    66  C   -0.006829
    67  H    0.002326
    68  H    0.030271
    69  H   -0.004447
    70  H    0.120517
    71  H    0.031712
    72  H    0.044912
    73  H    0.023066
    74  H    0.062863
    75  H    0.040724
    76  H    0.051060
    77  H    0.065339
    78  H    0.064798
    79  H    0.046543
    80  H    0.035893
    81  H    0.043635
    82  H    0.060109
    83  H    0.043572
    84  H    0.082337
    85  H    0.047861
    86  H    0.049454
    87  H    0.055481
    88  H    0.032777
    89  H    0.051194
    90  H    0.032665
    91  H    0.041727
    92  H    0.015968
    93  H    0.042007
    94  H    0.052585
    95  H    0.059218
    96  H    0.042183
    97  H    0.063971
    98  H    0.085802
    99  H    0.054453
   100  H    0.055832
   101  H    0.076443
   102  H    0.059394
   103  H    0.037763
   104  H    0.020622
   105  H    0.041042
   106  H    0.035448
   107  H    0.043990
   108  H    0.047437
   109  H    0.018177
   110  H    0.021565
   111  H    0.046574
   112  H    0.030150
   113  H    0.025194
   114  H    0.033375
   115  H    0.032587
   116  H    0.030326
   117  H    0.037181
   118  H    0.039765
   119  H    0.031910
   120  H    0.029238
   121  H    0.017517
   122  H    0.034912
   123  H    0.026188
   124  H    0.035474
   125  H    0.022368
   126  H    0.032130
   127  H    0.019906
   128  H    0.032574
   129  H    0.034322
   130  H    0.029349
   131  H    0.024952
   132  H    0.016549
   133  H    0.034057
   134  H    0.056049
   135  H    0.035986
   136  H    0.029551
   137  H    0.025360
   138  H    0.030372
   139  H    0.032330
   140  H    0.022642
 Sum of Mulliken charges =  -0.00000

 Dipole moment (field-independent basis, Debye):
    X=             -4.7712    Y=              2.3308    Z=              2.2923  Tot=              5.7837
 Quadrupole moment (field-independent basis, Debye-Ang):
   XX=           -390.5539   YY=           -408.0928   ZZ=           -405.7144
   XY=             -5.2214   XZ=             17.4170   YZ=             -4.1272

 Normal termination of Gaussian 16 at Wed Apr 27 03:58:12 2022.
