 Gaussian 16, Revision A.03,
 Gaussian 16:  ES64L-G16RevA.03 25-Dec-2016

 --------------------------------
 #p wB97XD/Def2SVP td=(nstates=5)
 --------------------------------

 ----------------------------------------------------
 step_1051_chromophore_7 TDDFT with wB97XD functional
 ----------------------------------------------------
 Symbolic Z-matrix:
 Charge =  0 Multiplicity = 1

                         Standard orientation:
 ---------------------------------------------------------------------
 Center     Atomic      Atomic             Coordinates (Angstroms)
 Number     Number       Type             X           Y           Z
 ---------------------------------------------------------------------
      1         12           0        6.001996    0.486948    0.115777
      2          6           0        3.399875   -2.014611    0.180708
      3          6           0        3.730005    2.829116   -0.749086
      4          6           0        8.490376    2.624805    0.191217
      5          6           0        8.266212   -2.291341    0.759348
      6          7           0        3.793542    0.322807   -0.381352
      7          6           0        2.951094   -0.681149   -0.165243
      8          6           0        1.572059   -0.281264   -0.520992
      9          6           0        1.759941    1.215244   -1.020429
     10          6           0        3.198623    1.522779   -0.713239
     11          6           0        1.457566    1.349694   -2.504554
     12          6           0        0.560000   -0.456782    0.678045
     13          6           0       -0.784234   -1.275325    0.342975
     14          6           0       -1.472281   -1.144436   -0.992609
     15          8           0       -0.870213   -1.070080   -2.060302
     16          8           0       -2.807296   -0.787762   -0.859874
     17          7           0        6.178354    2.477169   -0.381347
     18          6           0        5.047591    3.283831   -0.556276
     19          6           0        5.582331    4.599848   -0.605578
     20          6           0        6.943848    4.620567   -0.312232
     21          6           0        7.252357    3.209145   -0.177473
     22          6           0        4.703616    5.751519   -1.159196
     23          6           0        7.943581    5.798137   -0.392662
     24          8           0        9.161590    5.637659   -0.221554
     25          6           0        7.461370    7.124271   -0.752673
     26          7           0        8.087801    0.166850    0.159175
     27          6           0        8.886618    1.302053    0.262122
     28          6           0       10.306722    0.823518    0.683617
     29          6           0       10.200126   -0.669355    1.071877
     30          6           0        8.766572   -0.976835    0.618254
     31          6           0       11.388872    1.146896   -0.383460
     32          6           0       10.571263   -0.882633    2.559336
     33          6           0       11.275566   -2.219532    2.918788
     34          7           0        5.918371   -1.756868    0.439933
     35          6           0        6.941004   -2.684274    0.627215
     36          6           0        6.356107   -3.973638    0.851588
     37          6           0        4.924458   -3.754393    0.710321
     38          6           0        4.743439   -2.367647    0.417718
     39          6           0        7.116254   -5.313089    1.105192
     40          6           0        3.602736   -4.348911    0.675884
     41          8           0        3.402689   -5.546542    0.871947
     42          6           0        2.522210   -3.291891    0.457996
     43          6           0        1.681973   -3.660211   -0.646299
     44          8           0        1.750812   -3.280421   -1.778203
     45          8           0        0.769235   -4.511024   -0.107163
     46          6           0       -0.206531   -4.945619   -1.077496
     47          6           0       -3.554676   -0.182265   -1.919226
     48          6           0       -5.125241   -0.125657   -1.634751
     49          6           0       -5.866577   -1.139555   -1.221371
     50          6           0       -5.485032   -2.580742   -1.150594
     51          6           0       -7.170925   -0.889521   -0.580292
     52          6           0       -8.181678   -0.820136   -1.658190
     53          6           0       -9.317914    0.051751   -1.260991
     54          6           0      -10.743664   -0.480963   -1.659239
     55          6           0      -10.764309   -0.935213   -3.149034
     56          6           0      -11.789307    0.673966   -1.524037
     57          6           0      -13.263809    0.151913   -1.417676
     58          6           0      -14.082732    0.720579   -0.237762
     59          6           0      -13.924033   -0.244929    1.009088
     60          6           0      -15.194181   -1.097551    1.112286
     61          6           0      -13.613569    0.415139    2.375976
     62          6           0      -12.099316    0.579725    2.640066
     63          6           0      -11.848742    1.891617    3.470732
     64          6           0      -11.569326    3.082538    2.544348
     65          6           0      -10.079283    3.491173    2.557301
     66          6           0      -12.415611    4.230071    3.006400
     67          1           0        2.961478    3.577392   -0.954034
     68          1           0        9.208485    3.338207    0.601206
     69          1           0        9.088072   -2.941026    1.068819
     70          1           0        1.321392   -0.996002   -1.304333
     71          1           0        1.011994    1.893301   -0.610109
     72          1           0        2.348168    1.414531   -3.130578
     73          1           0        0.813968    2.176234   -2.805450
     74          1           0        0.853887    0.495337   -2.811246
     75          1           0        0.173797    0.526499    0.947820
     76          1           0        1.109394   -0.791677    1.557947
     77          1           0       -1.456194   -0.910813    1.120314
     78          1           0       -0.676820   -2.349839    0.491250
     79          1           0        5.159356    6.076025   -2.094820
     80          1           0        4.759847    6.663391   -0.563793
     81          1           0        3.647876    5.574129   -1.364233
     82          1           0        7.153573    6.946681   -1.783251
     83          1           0        8.361824    7.723131   -0.888538
     84          1           0        6.846826    7.590949    0.016764
     85          1           0       10.514980    1.435171    1.561779
     86          1           0       10.820567   -1.386037    0.533724
     87          1           0       10.920940    1.675950   -1.213651
     88          1           0       11.708015    0.160821   -0.720140
     89          1           0       12.171455    1.716877    0.116255
     90          1           0        9.632262   -0.818015    3.109072
     91          1           0       11.087198   -0.002247    2.942531
     92          1           0       10.823686   -3.034119    2.352760
     93          1           0       10.995564   -2.538471    3.922487
     94          1           0       12.336476   -2.385274    2.734309
     95          1           0        6.465332   -5.927703    1.727221
     96          1           0        8.096536   -5.351553    1.581378
     97          1           0        7.193478   -5.805909    0.135372
     98          1           0        1.827441   -3.150001    1.285322
     99          1           0       -0.729407   -4.003449   -1.245538
    100          1           0       -0.821235   -5.647763   -0.514599
    101          1           0        0.321015   -5.429956   -1.900002
    102          1           0       -3.381396   -0.649745   -2.888541
    103          1           0       -3.074861    0.793837   -1.997334
    104          1           0       -5.643679    0.824197   -1.501842
    105          1           0       -5.798621   -3.051671   -0.218761
    106          1           0       -4.436772   -2.847444   -1.286372
    107          1           0       -5.991090   -3.137484   -1.939822
    108          1           0       -7.162894   -0.138196    0.209624
    109          1           0       -7.488870   -1.745594    0.014894
    110          1           0       -8.614380   -1.815679   -1.757934
    111          1           0       -7.712076   -0.644037   -2.625248
    112          1           0       -9.229223    1.083848   -1.599392
    113          1           0       -9.277224    0.070758   -0.171685
    114          1           0      -11.040419   -1.327854   -1.040416
    115          1           0      -11.574630   -0.542736   -3.763066
    116          1           0      -10.906311   -2.014703   -3.086274
    117          1           0       -9.910844   -0.737682   -3.797377
    118          1           0      -11.636796    1.438604   -2.286039
    119          1           0      -11.519748    1.018491   -0.525385
    120          1           0      -13.273816   -0.936247   -1.458203
    121          1           0      -13.814883    0.448444   -2.310360
    122          1           0      -15.044173    0.941021   -0.702451
    123          1           0      -13.673769    1.649256    0.160464
    124          1           0      -13.205689   -1.038450    0.801740
    125          1           0      -15.319697   -1.844012    0.327989
    126          1           0      -16.107640   -0.506297    1.165793
    127          1           0      -15.167930   -1.763251    1.975133
    128          1           0      -13.919939   -0.189323    3.229082
    129          1           0      -14.109142    1.386629    2.373112
    130          1           0      -11.604800    0.690983    1.675017
    131          1           0      -11.581673   -0.272506    3.080867
    132          1           0      -10.953807    1.663144    4.049948
    133          1           0      -12.653151    2.019792    4.195132
    134          1           0      -11.846987    2.796534    1.530478
    135          1           0       -9.867881    4.560183    2.582357
    136          1           0       -9.515138    3.069225    1.725637
    137          1           0       -9.559285    3.108397    3.435110
    138          1           0      -13.130590    4.015870    3.801576
    139          1           0      -12.950448    4.686770    2.174351
    140          1           0      -11.784293    5.011881    3.428782
 ---------------------------------------------------------------------

 SCF Done:  E(RwB97XD) =  -3007.82918409     A.U. after   19 cycles

 Excitation energies and oscillator strengths:

 Excited State   1:      Singlet-A      1.6517 eV  750.67 nm  f=0.3934  <S**2>=0.000
     245 -> 248       -0.18868
     246 -> 247        0.68304
     245 <- 248       -0.11882
 This state for optimization and/or second-order correction.
 Total Energy, E(TD-HF/TD-DFT) =  -3007.76848706
 Copying the excited state density for this state as the 1-particle RhoCI density.

 Excited State   2:      Singlet-A      2.1489 eV  576.97 nm  f=0.1232  <S**2>=0.000
     245 -> 247        0.64400
     246 -> 248        0.27436

 Excited State   3:      Singlet-A      3.1376 eV  395.16 nm  f=0.0003  <S**2>=0.000
     242 -> 247        0.22356
     242 -> 249       -0.11714
     244 -> 247        0.62594
     246 -> 248       -0.12368

 Excited State   4:      Singlet-A      3.2613 eV  380.17 nm  f=0.0008  <S**2>=0.000
     242 -> 247        0.56366
     242 -> 249       -0.26816
     242 -> 250        0.12062
     244 -> 247       -0.26450

 Excited State   5:      Singlet-A      3.5897 eV  345.39 nm  f=0.3959  <S**2>=0.000
     243 -> 247       -0.39636
     244 -> 247        0.10283
     245 -> 247       -0.20137
     246 -> 248        0.51349

 The electronic state is 1-A.
 Alpha  occ. eigenvalues --  -46.95531 -19.30460 -19.30005 -19.25894 -19.25222
 Alpha  occ. eigenvalues --  -19.23339 -19.23239 -14.46552 -14.45989 -14.43594
 Alpha  occ. eigenvalues --  -14.42854 -10.44628 -10.42491 -10.38667 -10.38656
 Alpha  occ. eigenvalues --  -10.36979 -10.35226 -10.35044 -10.35004 -10.34509
 Alpha  occ. eigenvalues --  -10.34249 -10.33632 -10.33305 -10.33078 -10.33001
 Alpha  occ. eigenvalues --  -10.32740 -10.32628 -10.32545 -10.32464 -10.32397
 Alpha  occ. eigenvalues --  -10.31768 -10.31617 -10.31145 -10.30996 -10.30919
 Alpha  occ. eigenvalues --  -10.30696 -10.30674 -10.30470 -10.30461 -10.30360
 Alpha  occ. eigenvalues --  -10.30145 -10.30129 -10.30098 -10.30081 -10.29811
 Alpha  occ. eigenvalues --  -10.29639 -10.29610 -10.29568 -10.29530 -10.29489
 Alpha  occ. eigenvalues --  -10.29396 -10.29207 -10.29031 -10.28946 -10.28920
 Alpha  occ. eigenvalues --  -10.28916 -10.28908 -10.28774 -10.28754 -10.28698
 Alpha  occ. eigenvalues --  -10.28494 -10.28396 -10.28145 -10.27842 -10.27836
 Alpha  occ. eigenvalues --  -10.27697  -3.21289  -1.94886  -1.94382  -1.94265
 Alpha  occ. eigenvalues --   -1.20133  -1.18899  -1.11812  -1.11285  -1.10890
 Alpha  occ. eigenvalues --   -1.10869  -1.06196  -1.05512  -1.04795  -1.02974
 Alpha  occ. eigenvalues --   -0.94417  -0.94256  -0.91799  -0.90873  -0.90685
 Alpha  occ. eigenvalues --   -0.90542  -0.89870  -0.89561  -0.88934  -0.88531
 Alpha  occ. eigenvalues --   -0.87630  -0.87093  -0.86536  -0.86192  -0.85142
 Alpha  occ. eigenvalues --   -0.84411  -0.84028  -0.83596  -0.82919  -0.82297
 Alpha  occ. eigenvalues --   -0.81720  -0.79721  -0.79628  -0.79078  -0.78134
 Alpha  occ. eigenvalues --   -0.77766  -0.77444  -0.76894  -0.76553  -0.76192
 Alpha  occ. eigenvalues --   -0.75788  -0.74698  -0.73133  -0.72949  -0.71369
 Alpha  occ. eigenvalues --   -0.70857  -0.70179  -0.68858  -0.68563  -0.67228
 Alpha  occ. eigenvalues --   -0.67181  -0.67010  -0.66517  -0.66092  -0.65763
 Alpha  occ. eigenvalues --   -0.65731  -0.65407  -0.65035  -0.63922  -0.62028
 Alpha  occ. eigenvalues --   -0.61699  -0.61659  -0.61166  -0.60715  -0.60168
 Alpha  occ. eigenvalues --   -0.59657  -0.59208  -0.58850  -0.58557  -0.57582
 Alpha  occ. eigenvalues --   -0.57419  -0.57163  -0.56637  -0.56511  -0.55930
 Alpha  occ. eigenvalues --   -0.55819  -0.55577  -0.55439  -0.55003  -0.54769
 Alpha  occ. eigenvalues --   -0.54674  -0.54410  -0.54277  -0.53793  -0.53494
 Alpha  occ. eigenvalues --   -0.53043  -0.52978  -0.52792  -0.52748  -0.52674
 Alpha  occ. eigenvalues --   -0.52346  -0.51945  -0.51843  -0.51667  -0.51543
 Alpha  occ. eigenvalues --   -0.51346  -0.50926  -0.50806  -0.50785  -0.50524
 Alpha  occ. eigenvalues --   -0.50295  -0.50088  -0.49988  -0.49722  -0.49495
 Alpha  occ. eigenvalues --   -0.49468  -0.49266  -0.49024  -0.48552  -0.48247
 Alpha  occ. eigenvalues --   -0.48049  -0.47805  -0.47686  -0.47602  -0.47525
 Alpha  occ. eigenvalues --   -0.47443  -0.47219  -0.47028  -0.46793  -0.46583
 Alpha  occ. eigenvalues --   -0.46374  -0.46261  -0.46051  -0.45712  -0.45517
 Alpha  occ. eigenvalues --   -0.45382  -0.45360  -0.45103  -0.44844  -0.44730
 Alpha  occ. eigenvalues --   -0.44545  -0.44420  -0.44293  -0.44138  -0.44080
 Alpha  occ. eigenvalues --   -0.43858  -0.43540  -0.43248  -0.43121  -0.42819
 Alpha  occ. eigenvalues --   -0.42513  -0.42144  -0.42045  -0.42022  -0.41848
 Alpha  occ. eigenvalues --   -0.41593  -0.41538  -0.41189  -0.41011  -0.40491
 Alpha  occ. eigenvalues --   -0.40188  -0.39945  -0.39876  -0.39341  -0.39174
 Alpha  occ. eigenvalues --   -0.38810  -0.38757  -0.38537  -0.38451  -0.37908
 Alpha  occ. eigenvalues --   -0.37676  -0.37477  -0.37013  -0.36926  -0.36415
 Alpha  occ. eigenvalues --   -0.36233  -0.35508  -0.35097  -0.32981  -0.32575
 Alpha  occ. eigenvalues --   -0.32415  -0.32161  -0.31766  -0.30998  -0.25521
 Alpha  occ. eigenvalues --   -0.22687
 Alpha virt. eigenvalues --   -0.06843   0.00691   0.02831   0.04650   0.05014
 Alpha virt. eigenvalues --    0.05786   0.07021   0.07749   0.08707   0.09831
 Alpha virt. eigenvalues --    0.10799   0.11330   0.11536   0.11890   0.12271

 Mulliken charges:
               1
     1  Mg   0.915393
     2  C   -0.036320
     3  C   -0.057805
     4  C   -0.073790
     5  C   -0.080403
     6  N   -0.332687
     7  C    0.010213
     8  C   -0.103368
     9  C   -0.108653
    10  C    0.070450
    11  C    0.001068
    12  C    0.028219
    13  C   -0.023608
    14  C    0.227861
    15  O   -0.256983
    16  O   -0.362884
    17  N   -0.460059
    18  C    0.165797
    19  C   -0.146948
    20  C   -0.072691
    21  C    0.102247
    22  C    0.061017
    23  C    0.031033
    24  O   -0.250440
    25  C    0.020514
    26  N   -0.411684
    27  C    0.101655
    28  C   -0.128600
    29  C   -0.087480
    30  C    0.058040
    31  C    0.054884
    32  C    0.009512
    33  C   -0.045603
    34  N   -0.373216
    35  C    0.182407
    36  C   -0.172321
    37  C   -0.029873
    38  C    0.128667
    39  C    0.065961
    40  C    0.094393
    41  O   -0.212461
    42  C   -0.040807
    43  C    0.214330
    44  O   -0.208704
    45  O   -0.362110
    46  C    0.152039
    47  C    0.236444
    48  C   -0.117865
    49  C   -0.189091
    50  C    0.047231
    51  C    0.014276
    52  C   -0.007100
    53  C    0.028617
    54  C   -0.227748
    55  C   -0.010739
    56  C    0.015684
    57  C   -0.028828
    58  C    0.032467
    59  C   -0.171285
    60  C   -0.016618
    61  C    0.026761
    62  C   -0.051893
    63  C    0.006302
    64  C   -0.205530
    65  C   -0.000807
    66  C    0.004487
    67  H   -0.004559
    68  H    0.025356
    69  H   -0.017342
    70  H    0.099912
    71  H    0.022020
    72  H    0.038918
    73  H    0.017645
    74  H    0.054500
    75  H    0.033498
    76  H    0.043760
    77  H    0.061247
    78  H    0.051475
    79  H    0.038568
    80  H    0.028031
    81  H    0.039603
    82  H    0.053005
    83  H    0.041349
    84  H    0.078990
    85  H    0.035803
    86  H    0.037041
    87  H    0.049765
    88  H    0.025296
    89  H    0.046467
    90  H    0.023930
    91  H    0.034467
    92  H    0.006488
    93  H    0.036636
    94  H    0.048126
    95  H    0.055364
    96  H    0.039420
    97  H    0.059611
    98  H    0.078620
    99  H    0.043326
   100  H    0.053575
   101  H    0.073141
   102  H    0.055357
   103  H    0.034279
   104  H    0.017806
   105  H    0.035581
   106  H    0.029121
   107  H    0.038163
   108  H    0.040937
   109  H    0.009647
   110  H    0.010366
   111  H    0.036341
   112  H    0.022117
   113  H    0.012271
   114  H    0.021444
   115  H    0.026594
   116  H    0.024376
   117  H    0.031180
   118  H    0.033117
   119  H    0.004858
   120  H    0.017854
   121  H    0.010222
   122  H    0.029321
   123  H    0.011248
   124  H    0.020219
   125  H    0.016430
   126  H    0.025481
   127  H    0.013280
   128  H    0.024910
   129  H    0.023046
   130  H    0.002465
   131  H    0.019255
   132  H    0.007392
   133  H    0.024627
   134  H    0.037225
   135  H    0.030005
   136  H    0.023864
   137  H    0.018290
   138  H    0.024120
   139  H    0.027463
   140  H    0.015712
 Sum of Mulliken charges =  -0.00000

 Dipole moment (field-independent basis, Debye):
    X=             -4.9337    Y=              1.8735    Z=              2.4063  Tot=              5.8002
 Quadrupole moment (field-independent basis, Debye-Ang):
   XX=           -392.6421   YY=           -406.5711   ZZ=           -405.4194
   XY=             -7.4401   XZ=             17.7891   YZ=             -4.1802

 Normal termination of Gaussian 16 at Wed Apr 27 04:26:28 2022.
