 Gaussian 16, Revision A.03,
 Gaussian 16:  ES64L-G16RevA.03 25-Dec-2016

 --------------------
 #p ZINDO=(nstates=5)
 --------------------

 -----------------------------
 step_1051_chromophore_7 ZINDO
 -----------------------------
 Symbolic Z-matrix:
 Charge =  0 Multiplicity = 1

                         Standard orientation:
 ---------------------------------------------------------------------
 Center     Atomic      Atomic             Coordinates (Angstroms)
 Number     Number       Type             X           Y           Z
 ---------------------------------------------------------------------
      1         12           0        6.001996    0.486948    0.115777
      2          6           0        3.399875   -2.014611    0.180708
      3          6           0        3.730005    2.829116   -0.749086
      4          6           0        8.490376    2.624805    0.191217
      5          6           0        8.266212   -2.291341    0.759348
      6          7           0        3.793542    0.322807   -0.381352
      7          6           0        2.951094   -0.681149   -0.165243
      8          6           0        1.572059   -0.281264   -0.520992
      9          6           0        1.759941    1.215244   -1.020429
     10          6           0        3.198623    1.522779   -0.713239
     11          6           0        1.457566    1.349694   -2.504554
     12          6           0        0.560000   -0.456782    0.678045
     13          6           0       -0.784234   -1.275325    0.342975
     14          6           0       -1.472281   -1.144436   -0.992609
     15          8           0       -0.870213   -1.070080   -2.060302
     16          8           0       -2.807296   -0.787762   -0.859874
     17          7           0        6.178354    2.477169   -0.381347
     18          6           0        5.047591    3.283831   -0.556276
     19          6           0        5.582331    4.599848   -0.605578
     20          6           0        6.943848    4.620567   -0.312232
     21          6           0        7.252357    3.209145   -0.177473
     22          6           0        4.703616    5.751519   -1.159196
     23          6           0        7.943581    5.798137   -0.392662
     24          8           0        9.161590    5.637659   -0.221554
     25          6           0        7.461370    7.124271   -0.752673
     26          7           0        8.087801    0.166850    0.159175
     27          6           0        8.886618    1.302053    0.262122
     28          6           0       10.306722    0.823518    0.683617
     29          6           0       10.200126   -0.669355    1.071877
     30          6           0        8.766572   -0.976835    0.618254
     31          6           0       11.388872    1.146896   -0.383460
     32          6           0       10.571263   -0.882633    2.559336
     33          6           0       11.275566   -2.219532    2.918788
     34          7           0        5.918371   -1.756868    0.439933
     35          6           0        6.941004   -2.684274    0.627215
     36          6           0        6.356107   -3.973638    0.851588
     37          6           0        4.924458   -3.754393    0.710321
     38          6           0        4.743439   -2.367647    0.417718
     39          6           0        7.116254   -5.313089    1.105192
     40          6           0        3.602736   -4.348911    0.675884
     41          8           0        3.402689   -5.546542    0.871947
     42          6           0        2.522210   -3.291891    0.457996
     43          6           0        1.681973   -3.660211   -0.646299
     44          8           0        1.750812   -3.280421   -1.778203
     45          8           0        0.769235   -4.511024   -0.107163
     46          6           0       -0.206531   -4.945619   -1.077496
     47          6           0       -3.554676   -0.182265   -1.919226
     48          6           0       -5.125241   -0.125657   -1.634751
     49          6           0       -5.866577   -1.139555   -1.221371
     50          6           0       -5.485032   -2.580742   -1.150594
     51          6           0       -7.170925   -0.889521   -0.580292
     52          6           0       -8.181678   -0.820136   -1.658190
     53          6           0       -9.317914    0.051751   -1.260991
     54          6           0      -10.743664   -0.480963   -1.659239
     55          6           0      -10.764309   -0.935213   -3.149034
     56          6           0      -11.789307    0.673966   -1.524037
     57          6           0      -13.263809    0.151913   -1.417676
     58          6           0      -14.082732    0.720579   -0.237762
     59          6           0      -13.924033   -0.244929    1.009088
     60          6           0      -15.194181   -1.097551    1.112286
     61          6           0      -13.613569    0.415139    2.375976
     62          6           0      -12.099316    0.579725    2.640066
     63          6           0      -11.848742    1.891617    3.470732
     64          6           0      -11.569326    3.082538    2.544348
     65          6           0      -10.079283    3.491173    2.557301
     66          6           0      -12.415611    4.230071    3.006400
     67          1           0        2.961478    3.577392   -0.954034
     68          1           0        9.208485    3.338207    0.601206
     69          1           0        9.088072   -2.941026    1.068819
     70          1           0        1.321392   -0.996002   -1.304333
     71          1           0        1.011994    1.893301   -0.610109
     72          1           0        2.348168    1.414531   -3.130578
     73          1           0        0.813968    2.176234   -2.805450
     74          1           0        0.853887    0.495337   -2.811246
     75          1           0        0.173797    0.526499    0.947820
     76          1           0        1.109394   -0.791677    1.557947
     77          1           0       -1.456194   -0.910813    1.120314
     78          1           0       -0.676820   -2.349839    0.491250
     79          1           0        5.159356    6.076025   -2.094820
     80          1           0        4.759847    6.663391   -0.563793
     81          1           0        3.647876    5.574129   -1.364233
     82          1           0        7.153573    6.946681   -1.783251
     83          1           0        8.361824    7.723131   -0.888538
     84          1           0        6.846826    7.590949    0.016764
     85          1           0       10.514980    1.435171    1.561779
     86          1           0       10.820567   -1.386037    0.533724
     87          1           0       10.920940    1.675950   -1.213651
     88          1           0       11.708015    0.160821   -0.720140
     89          1           0       12.171455    1.716877    0.116255
     90          1           0        9.632262   -0.818015    3.109072
     91          1           0       11.087198   -0.002247    2.942531
     92          1           0       10.823686   -3.034119    2.352760
     93          1           0       10.995564   -2.538471    3.922487
     94          1           0       12.336476   -2.385274    2.734309
     95          1           0        6.465332   -5.927703    1.727221
     96          1           0        8.096536   -5.351553    1.581378
     97          1           0        7.193478   -5.805909    0.135372
     98          1           0        1.827441   -3.150001    1.285322
     99          1           0       -0.729407   -4.003449   -1.245538
    100          1           0       -0.821235   -5.647763   -0.514599
    101          1           0        0.321015   -5.429956   -1.900002
    102          1           0       -3.381396   -0.649745   -2.888541
    103          1           0       -3.074861    0.793837   -1.997334
    104          1           0       -5.643679    0.824197   -1.501842
    105          1           0       -5.798621   -3.051671   -0.218761
    106          1           0       -4.436772   -2.847444   -1.286372
    107          1           0       -5.991090   -3.137484   -1.939822
    108          1           0       -7.162894   -0.138196    0.209624
    109          1           0       -7.488870   -1.745594    0.014894
    110          1           0       -8.614380   -1.815679   -1.757934
    111          1           0       -7.712076   -0.644037   -2.625248
    112          1           0       -9.229223    1.083848   -1.599392
    113          1           0       -9.277224    0.070758   -0.171685
    114          1           0      -11.040419   -1.327854   -1.040416
    115          1           0      -11.574630   -0.542736   -3.763066
    116          1           0      -10.906311   -2.014703   -3.086274
    117          1           0       -9.910844   -0.737682   -3.797377
    118          1           0      -11.636796    1.438604   -2.286039
    119          1           0      -11.519748    1.018491   -0.525385
    120          1           0      -13.273816   -0.936247   -1.458203
    121          1           0      -13.814883    0.448444   -2.310360
    122          1           0      -15.044173    0.941021   -0.702451
    123          1           0      -13.673769    1.649256    0.160464
    124          1           0      -13.205689   -1.038450    0.801740
    125          1           0      -15.319697   -1.844012    0.327989
    126          1           0      -16.107640   -0.506297    1.165793
    127          1           0      -15.167930   -1.763251    1.975133
    128          1           0      -13.919939   -0.189323    3.229082
    129          1           0      -14.109142    1.386629    2.373112
    130          1           0      -11.604800    0.690983    1.675017
    131          1           0      -11.581673   -0.272506    3.080867
    132          1           0      -10.953807    1.663144    4.049948
    133          1           0      -12.653151    2.019792    4.195132
    134          1           0      -11.846987    2.796534    1.530478
    135          1           0       -9.867881    4.560183    2.582357
    136          1           0       -9.515138    3.069225    1.725637
    137          1           0       -9.559285    3.108397    3.435110
    138          1           0      -13.130590    4.015870    3.801576
    139          1           0      -12.950448    4.686770    2.174351
    140          1           0      -11.784293    5.011881    3.428782
 ---------------------------------------------------------------------

 SCF Done:  E(RZINDO/S) =  -474.475780875     A.U. after   20 cycles

 Excitation energies and oscillator strengths:

 Excited State   1:      Singlet-A      1.2307 eV 1007.45 nm  f=0.6156  <S**2>=0.000
     175 ->178         0.18885
     176 ->177         0.66425
 This state for optimization and/or second-order correction.
 Total Energy, E(CIS/TDA) =  -474.430554670
 Copying the excited state density for this state as the 1-particle RhoCI density.

 Excited State   2:      Singlet-A      1.8865 eV  657.20 nm  f=0.0818  <S**2>=0.000
     175 ->177         0.57562
     176 ->178        -0.38098

 Excited State   3:      Singlet-A      2.8114 eV  441.00 nm  f=0.0133  <S**2>=0.000
     167 ->177         0.13655
     167 ->179        -0.20001
     168 ->177         0.13125
     168 ->179        -0.13346
     169 ->177         0.32936
     169 ->179        -0.30345
     169 ->181         0.12711
     169 ->186        -0.12809
     170 ->177        -0.18289
     170 ->179         0.14068

 Excited State   4:      Singlet-A      2.9689 eV  417.61 nm  f=0.5649  <S**2>=0.000
     171 ->177        -0.27656
     173 ->177        -0.25479
     174 ->177        -0.16168
     175 ->177         0.24498
     176 ->178         0.44480
     176 ->179         0.16935

 Excited State   5:      Singlet-A      3.0678 eV  404.15 nm  f=0.0479  <S**2>=0.000
     168 ->181         0.11012
     169 ->177        -0.11550
     169 ->179        -0.12884
     169 ->181        -0.23794
     169 ->186        -0.12328
     169 ->187        -0.10131
     170 ->177        -0.18085
     170 ->179        -0.18658
     170 ->181        -0.33910
     170 ->183        -0.10041
     170 ->186        -0.17512
     170 ->187        -0.13764
     173 ->177         0.10678
     174 ->177         0.10612
     176 ->179        -0.13174

 The electronic state is 1-A.
 Alpha  occ. eigenvalues --   -1.83585  -1.81908  -1.79237  -1.76997  -1.72537
 Alpha  occ. eigenvalues --   -1.70854  -1.67233  -1.63846  -1.58853  -1.58382
 Alpha  occ. eigenvalues --   -1.57366  -1.52224  -1.50873  -1.49151  -1.46530
 Alpha  occ. eigenvalues --   -1.43872  -1.40786  -1.38938  -1.38680  -1.38323
 Alpha  occ. eigenvalues --   -1.36105  -1.33226  -1.31774  -1.30925  -1.28178
 Alpha  occ. eigenvalues --   -1.26948  -1.24989  -1.21993  -1.20892  -1.19454
 Alpha  occ. eigenvalues --   -1.17183  -1.16077  -1.15910  -1.14496  -1.13069
 Alpha  occ. eigenvalues --   -1.11834  -1.11388  -1.10307  -1.05444  -1.03282
 Alpha  occ. eigenvalues --   -1.03004  -1.01241  -0.99188  -0.98280  -0.97037
 Alpha  occ. eigenvalues --   -0.96271  -0.94330  -0.93429  -0.92969  -0.91532
 Alpha  occ. eigenvalues --   -0.91371  -0.90245  -0.90147  -0.88157  -0.87787
 Alpha  occ. eigenvalues --   -0.85380  -0.84427  -0.82837  -0.81188  -0.80749
 Alpha  occ. eigenvalues --   -0.79743  -0.78789  -0.77305  -0.76658  -0.76527
 Alpha  occ. eigenvalues --   -0.76301  -0.75102  -0.74766  -0.74208  -0.73601
 Alpha  occ. eigenvalues --   -0.72880  -0.72193  -0.71796  -0.71050  -0.70632
 Alpha  occ. eigenvalues --   -0.69994  -0.69348  -0.69333  -0.69007  -0.68673
 Alpha  occ. eigenvalues --   -0.67837  -0.67220  -0.66812  -0.66488  -0.66218
 Alpha  occ. eigenvalues --   -0.65556  -0.65227  -0.64562  -0.64249  -0.63770
 Alpha  occ. eigenvalues --   -0.63001  -0.62800  -0.62665  -0.62071  -0.61636
 Alpha  occ. eigenvalues --   -0.61213  -0.60783  -0.60488  -0.59830  -0.59523
 Alpha  occ. eigenvalues --   -0.59480  -0.59093  -0.58938  -0.58645  -0.58152
 Alpha  occ. eigenvalues --   -0.57757  -0.57239  -0.56916  -0.56622  -0.56502
 Alpha  occ. eigenvalues --   -0.56412  -0.55303  -0.54995  -0.54741  -0.54312
 Alpha  occ. eigenvalues --   -0.54263  -0.54042  -0.53590  -0.53266  -0.52978
 Alpha  occ. eigenvalues --   -0.52612  -0.52334  -0.51633  -0.51523  -0.51226
 Alpha  occ. eigenvalues --   -0.51156  -0.50991  -0.50287  -0.50037  -0.49867
 Alpha  occ. eigenvalues --   -0.49424  -0.49055  -0.48834  -0.48446  -0.48342
 Alpha  occ. eigenvalues --   -0.48159  -0.47907  -0.47769  -0.47731  -0.47484
 Alpha  occ. eigenvalues --   -0.47203  -0.46958  -0.46750  -0.46578  -0.46078
 Alpha  occ. eigenvalues --   -0.45954  -0.45714  -0.45380  -0.44976  -0.44824
 Alpha  occ. eigenvalues --   -0.44545  -0.44198  -0.44114  -0.43685  -0.43547
 Alpha  occ. eigenvalues --   -0.43078  -0.42805  -0.42589  -0.42216  -0.41856
 Alpha  occ. eigenvalues --   -0.41739  -0.41516  -0.41355  -0.39057  -0.38681
 Alpha  occ. eigenvalues --   -0.38208  -0.36485  -0.35121  -0.34783  -0.34293
 Alpha  occ. eigenvalues --   -0.32628  -0.32266  -0.32122  -0.31679  -0.26160
 Alpha  occ. eigenvalues --   -0.21515
 Alpha virt. eigenvalues --   -0.08500  -0.01522  -0.00227   0.00589   0.01658
 Alpha virt. eigenvalues --    0.02519   0.02948   0.03391   0.04279   0.05121
 Alpha virt. eigenvalues --    0.06431   0.06784   0.07573   0.07927   0.08194

 Mulliken charges:
               1
     1  Mg   0.428953
     2  C   -0.074658
     3  C   -0.058197
     4  C   -0.066519
     5  C   -0.071271
     6  N   -0.270650
     7  C    0.162763
     8  C    0.000385
     9  C    0.010965
    10  C    0.103813
    11  C   -0.053338
    12  C   -0.025302
    13  C    0.004709
    14  C    0.469458
    15  O   -0.503240
    16  O   -0.281742
    17  N   -0.309035
    18  C    0.064180
    19  C    0.007987
    20  C   -0.070207
    21  C    0.152715
    22  C   -0.057240
    23  C    0.332617
    24  O   -0.543528
    25  C   -0.033487
    26  N   -0.289448
    27  C    0.122754
    28  C    0.000076
    29  C    0.005402
    30  C    0.140910
    31  C   -0.054139
    32  C   -0.024234
    33  C   -0.062014
    34  N   -0.347124
    35  C    0.127537
    36  C    0.038657
    37  C   -0.055873
    38  C    0.131516
    39  C   -0.040632
    40  C    0.343066
    41  O   -0.525375
    42  C    0.058489
    43  C    0.498570
    44  O   -0.509421
    45  O   -0.277621
    46  C    0.069236
    47  C    0.109801
    48  C   -0.121320
    49  C    0.037971
    50  C   -0.040705
    51  C   -0.017242
    52  C   -0.018288
    53  C   -0.030979
    54  C   -0.016815
    55  C   -0.063887
    56  C   -0.041042
    57  C   -0.038958
    58  C   -0.035075
    59  C   -0.011561
    60  C   -0.061327
    61  C   -0.029099
    62  C   -0.047322
    63  C   -0.036960
    64  C    0.003567
    65  C   -0.056370
    66  C   -0.054546
    67  H    0.027920
    68  H    0.040016
    69  H    0.032893
    70  H    0.069763
    71  H    0.026396
    72  H    0.022840
    73  H    0.012932
    74  H    0.029590
    75  H    0.019479
    76  H    0.030056
    77  H    0.025829
    78  H    0.046965
    79  H    0.022533
    80  H    0.017147
    81  H    0.026409
    82  H    0.050915
    83  H    0.026794
    84  H    0.052850
    85  H    0.025922
    86  H    0.033866
    87  H    0.032777
    88  H    0.020705
    89  H    0.029049
    90  H    0.016958
    91  H    0.024653
    92  H    0.009386
    93  H    0.017526
    94  H    0.031448
    95  H    0.029624
    96  H    0.032020
    97  H    0.035440
    98  H    0.063783
    99  H    0.048097
   100  H    0.027012
   101  H    0.059611
   102  H    0.050301
   103  H    0.035563
   104  H    0.028925
   105  H    0.022800
   106  H    0.021034
   107  H    0.025905
   108  H    0.028822
   109  H    0.007463
   110  H    0.013238
   111  H    0.026365
   112  H    0.021711
   113  H    0.011749
   114  H    0.029492
   115  H    0.015132
   116  H    0.009667
   117  H    0.021519
   118  H    0.032975
   119  H    0.011264
   120  H    0.024418
   121  H    0.006005
   122  H    0.031617
   123  H    0.017046
   124  H    0.023254
   125  H    0.011523
   126  H    0.016696
   127  H    0.005993
   128  H    0.022160
   129  H    0.024934
   130  H    0.012281
   131  H    0.020345
   132  H    0.009213
   133  H    0.025289
   134  H    0.026192
   135  H    0.019437
   136  H    0.011439
   137  H    0.014910
   138  H    0.018197
   139  H    0.012766
   140  H    0.012848
 Sum of Mulliken charges =  -0.00000

 Dipole moment (field-independent basis, Debye):
    X=             -5.9569    Y=              1.6284    Z=              4.5558  Tot=              7.6741
 N-N= 4.284265860122D+03 E-N= 0.000000000000D+00  KE=-9.243447412939D+03
 Leave Link  601 at Wed Apr 27 04:40:42 2022, MaxMem=  6710886400 cpu:               0.8 elap:               0.1
 (Enter /sw/apps/gaussian-16.0/g16/l9999.exe)
 1\1\GINC-BP1-COMPUTE156\SP\RZINDO CIS\STO-3G\C55H74Mg1N4O6\OF15641\27-
 Apr-2022\0\\#p ZINDO=(nstates=5)\\step_1051_chromophore_7 ZINDO\\0,1\M
 g,0,25.783,0.735,29.382\C,0,27.776,0.396,32.373\C,0,23.059,1.379,31.26
 9\C,0,24.164,1.083,26.549\C,0,28.806,-0.275,27.621\N,0,25.478,0.717,31
 .631\C,0,26.38,0.706,32.606\C,0,25.718,0.85,33.921\C,0,24.181,0.945,33
 .53\C,0,24.192,1.02,32.029\C,0,23.403,-0.262,34.03\C,0,26.268,2.078,34
 .747\C,0,26.716,1.758,36.259\C,0,25.961,0.768,37.11\O,0,25.512,-0.291,

 Normal termination of Gaussian 16 at Wed Apr 27 04:40:42 2022.
