 Gaussian 16, Revision A.03,
 Gaussian 16:  ES64L-G16RevA.03 25-Dec-2016

 ------------------------------
 #p blyp/Def2SVP td=(nstates=5)
 ------------------------------

 --------------------------------------------------
 step_1801_chromophore_6 TDDFT with blyp functional
 --------------------------------------------------
 Symbolic Z-matrix:
 Charge =  0 Multiplicity = 1

                         Standard orientation:
 ---------------------------------------------------------------------
 Center     Atomic      Atomic             Coordinates (Angstroms)
 Number     Number       Type             X           Y           Z
 ---------------------------------------------------------------------
      1         12           0       -5.498373    1.062058   -0.117121
      2          6           0       -4.231656   -2.216859   -0.106744
      3          6           0       -2.281975    2.239099    0.031923
      4          6           0       -6.792627    4.084906    0.242046
      5          6           0       -8.800017   -0.435963   -0.031292
      6          7           0       -3.478288    0.065224   -0.087467
      7          6           0       -3.248433   -1.263233   -0.099118
      8          6           0       -1.777321   -1.526130   -0.181175
      9          6           0       -1.037856   -0.176290    0.103483
     10          6           0       -2.317706    0.776428    0.086109
     11          6           0       -0.231379    0.055255    1.343405
     12          6           0       -1.342291   -2.053663   -1.623164
     13          6           0       -0.383157   -3.277721   -1.655326
     14          6           0        0.450882   -3.632051   -0.394827
     15          8           0        0.566294   -4.715685    0.134637
     16          8           0        1.231059   -2.527770   -0.088917
     17          7           0       -4.622069    2.935652    0.059287
     18          6           0       -3.324897    3.209137   -0.026239
     19          6           0       -3.158560    4.684530   -0.091199
     20          6           0       -4.413738    5.207982    0.161777
     21          6           0       -5.352045    4.094688    0.188755
     22          6           0       -1.804207    5.190656   -0.279916
     23          6           0       -4.848343    6.739367    0.239512
     24          8           0       -5.998452    7.085520    0.481063
     25          6           0       -3.937111    7.894154    0.019093
     26          7           0       -7.478274    1.710830    0.052957
     27          6           0       -7.770570    3.004535    0.263101
     28          6           0       -9.277242    3.229173    0.368262
     29          6           0       -9.875389    1.795412    0.020607
     30          6           0       -8.604865    0.932144    0.022209
     31          6           0       -9.730353    3.823755    1.676735
     32          6           0      -10.774079    1.679665   -1.225843
     33          6           0      -12.207390    1.151976   -0.958859
     34          7           0       -6.358779   -0.865474   -0.056657
     35          6           0       -7.699258   -1.314390   -0.101830
     36          6           0       -7.824185   -2.769414   -0.149410
     37          6           0       -6.452401   -3.151222   -0.088135
     38          6           0       -5.613509   -1.995349   -0.067640
     39          6           0       -9.028661   -3.719034   -0.107670
     40          6           0       -5.544652   -4.212700   -0.182373
     41          8           0       -5.811755   -5.382305   -0.150100
     42          6           0       -4.116239   -3.733279   -0.281720
     43          6           0       -3.249322   -4.340484    0.760922
     44          8           0       -3.405761   -4.157337    1.978315
     45          8           0       -2.583751   -5.395839    0.177360
     46          6           0       -1.971760   -6.301861    1.161816
     47          6           0        2.409850   -2.732344    0.833753
     48          6           0        3.572186   -3.379746    0.100670
     49          6           0        4.790475   -3.513536    0.716236
     50          6           0        5.016212   -3.365299    2.238484
     51          6           0        5.931580   -3.973309   -0.129492
     52          6           0        7.150209   -3.034808   -0.067921
     53          6           0        7.358632   -2.257475   -1.461518
     54          6           0        7.996634   -0.862300   -1.336029
     55          6           0        7.836072   -0.070977   -2.624351
     56          6           0        9.471320   -0.860702   -0.977597
     57          6           0        9.917722    0.524590   -0.423846
     58          6           0       11.078058    1.210994   -1.234268
     59          6           0       11.828266    2.241843   -0.446502
     60          6           0       11.355095    3.613207   -0.898823
     61          6           0       13.388510    2.068002   -0.586272
     62          6           0       14.232841    2.934880    0.418584
     63          6           0       15.035423    2.083694    1.384311
     64          6           0       16.561110    2.123196    1.091857
     65          6           0       17.342609    1.478562    2.232300
     66          6           0       16.934488    1.486669   -0.246437
     67          1           0       -1.283647    2.647957    0.203813
     68          1           0       -7.222810    5.068568    0.442020
     69          1           0       -9.824827   -0.800764   -0.139349
     70          1           0       -1.476047   -2.285866    0.540028
     71          1           0       -0.491689    0.112540   -0.794071
     72          1           0       -0.727649    0.748522    2.022291
     73          1           0        0.689314    0.518316    0.987000
     74          1           0        0.020899   -0.944965    1.693820
     75          1           0       -0.816742   -1.262273   -2.158620
     76          1           0       -2.150446   -2.344265   -2.293801
     77          1           0        0.284655   -3.304836   -2.515958
     78          1           0       -0.925771   -4.177028   -1.944978
     79          1           0       -1.386223    5.426934    0.698688
     80          1           0       -1.846716    6.055920   -0.940875
     81          1           0       -1.250005    4.427949   -0.825824
     82          1           0       -3.113175    7.875586    0.732573
     83          1           0       -4.550234    8.782702    0.169369
     84          1           0       -3.560904    7.864073   -1.003708
     85          1           0       -9.601756    3.969503   -0.363538
     86          1           0      -10.453113    1.448277    0.877008
     87          1           0      -10.234635    3.047745    2.252603
     88          1           0      -10.399469    4.658580    1.468704
     89          1           0       -8.888682    4.216839    2.246337
     90          1           0      -10.368594    1.049207   -2.017967
     91          1           0      -10.738492    2.712687   -1.570832
     92          1           0      -12.641868    2.060817   -0.541967
     93          1           0      -12.288544    0.460989   -0.120610
     94          1           0      -12.708721    0.783488   -1.854271
     95          1           0       -9.978792   -3.219366    0.078150
     96          1           0       -8.727224   -4.484345    0.607625
     97          1           0       -9.125973   -4.235961   -1.062783
     98          1           0       -3.754985   -3.954535   -1.285510
     99          1           0       -2.469312   -7.270629    1.211839
    100          1           0       -1.832120   -5.955367    2.186166
    101          1           0       -0.962331   -6.471638    0.788876
    102          1           0        1.986413   -3.367260    1.612694
    103          1           0        2.679998   -1.836607    1.392648
    104          1           0        3.528576   -3.392195   -0.988437
    105          1           0        5.339178   -2.362527    2.518390
    106          1           0        5.843817   -4.054555    2.406957
    107          1           0        4.215226   -3.646309    2.922048
    108          1           0        5.532046   -4.111792   -1.133349
    109          1           0        6.265865   -4.959001    0.193392
    110          1           0        8.040152   -3.639170    0.112047
    111          1           0        7.185599   -2.253697    0.691700
    112          1           0        6.504154   -2.214671   -2.136079
    113          1           0        8.116225   -2.930563   -1.862767
    114          1           0        7.395660   -0.372439   -0.569985
    115          1           0        7.512522   -0.693626   -3.458173
    116          1           0        8.787704    0.331417   -2.971575
    117          1           0        7.259149    0.837651   -2.454446
    118          1           0       10.108256   -1.202489   -1.793680
    119          1           0        9.529331   -1.659774   -0.239526
    120          1           0       10.144287    0.456072    0.639729
    121          1           0        9.056953    1.192011   -0.386759
    122          1           0       10.674790    1.574760   -2.179804
    123          1           0       11.730873    0.356322   -1.414910
    124          1           0       11.582694    2.279086    0.614617
    125          1           0       11.740028    3.916657   -1.872686
    126          1           0       11.746561    4.327581   -0.174403
    127          1           0       10.273703    3.662454   -1.023031
    128          1           0       13.693143    2.284053   -1.610219
    129          1           0       13.669878    1.018230   -0.505866
    130          1           0       13.611848    3.545826    1.074548
    131          1           0       14.857510    3.655408   -0.108885
    132          1           0       14.703428    1.046215    1.426211
    133          1           0       14.807354    2.546548    2.344913
    134          1           0       16.691492    3.205253    1.117271
    135          1           0       18.282814    1.089256    1.841337
    136          1           0       16.781194    0.698192    2.746212
    137          1           0       17.545765    2.189267    3.032351
    138          1           0       17.839140    0.878570   -0.203886
    139          1           0       17.081180    2.285692   -0.972551
    140          1           0       16.213531    0.843656   -0.751045
 ---------------------------------------------------------------------

 SCF Done:  E(RB-LYP) =  -3007.38253492     A.U. after   21 cycles

 Excitation energies and oscillator strengths:

 Excited State   1:      Singlet-A      1.7897 eV  692.78 nm  f=0.0140  <S**2>=0.000
     244 -> 247        0.68592
     245 -> 247        0.11208
     246 -> 247       -0.12446
 This state for optimization and/or second-order correction.
 Total Energy, E(TD-HF/TD-DFT) =  -3007.31676598
 Copying the excited state density for this state as the 1-particle RhoCI density.

 Excited State   2:      Singlet-A      1.8360 eV  675.31 nm  f=0.2946  <S**2>=0.000
     244 -> 247        0.12185
     245 -> 248       -0.20088
     246 -> 247        0.67328
     246 <- 247       -0.14043

 Excited State   3:      Singlet-A      2.0406 eV  607.60 nm  f=0.0647  <S**2>=0.000
     244 -> 247       -0.11325
     245 -> 247        0.63176
     246 -> 248        0.27521

 Excited State   4:      Singlet-A      2.1883 eV  566.59 nm  f=0.0000  <S**2>=0.000
     243 -> 247        0.70657

 Excited State   5:      Singlet-A      2.5630 eV  483.75 nm  f=0.0003  <S**2>=0.000
     241 -> 247        0.68085
     242 -> 247       -0.18731

 The electronic state is 1-A.
 Alpha  occ. eigenvalues --  -46.26815 -18.82046 -18.81567 -18.77794 -18.76082
 Alpha  occ. eigenvalues --  -18.75794 -18.73813 -14.02968 -14.02961 -14.00870
 Alpha  occ. eigenvalues --  -14.00374 -10.04767 -10.02834 -10.00521  -9.98514
 Alpha  occ. eigenvalues --   -9.97508  -9.96891  -9.96614  -9.96045  -9.95630
 Alpha  occ. eigenvalues --   -9.95544  -9.95430  -9.95212  -9.95117  -9.94014
 Alpha  occ. eigenvalues --   -9.93822  -9.93774  -9.93725  -9.93653  -9.93602
 Alpha  occ. eigenvalues --   -9.93590  -9.93557  -9.93286  -9.93176  -9.93162
 Alpha  occ. eigenvalues --   -9.93112  -9.93049  -9.92947  -9.92818  -9.92563
 Alpha  occ. eigenvalues --   -9.92560  -9.92470  -9.92463  -9.92450  -9.92436
 Alpha  occ. eigenvalues --   -9.92400  -9.92265  -9.92242  -9.92054  -9.91947
 Alpha  occ. eigenvalues --   -9.91908  -9.91740  -9.91654  -9.91549  -9.91541
 Alpha  occ. eigenvalues --   -9.91532  -9.91351  -9.91263  -9.91161  -9.91151
 Alpha  occ. eigenvalues --   -9.90889  -9.90742  -9.90651  -9.90637  -9.90558
 Alpha  occ. eigenvalues --   -9.89925  -2.91405  -1.71850  -1.71271  -1.71119
 Alpha  occ. eigenvalues --   -0.97457  -0.96189  -0.92123  -0.91312  -0.90167
 Alpha  occ. eigenvalues --   -0.88188  -0.86373  -0.85695  -0.85621  -0.84115
 Alpha  occ. eigenvalues --   -0.75221  -0.74084  -0.73380  -0.72664  -0.72374
 Alpha  occ. eigenvalues --   -0.72148  -0.71481  -0.71442  -0.70712  -0.70436
 Alpha  occ. eigenvalues --   -0.69208  -0.69111  -0.68011  -0.67461  -0.66844
 Alpha  occ. eigenvalues --   -0.66392  -0.65814  -0.65252  -0.64905  -0.64100
 Alpha  occ. eigenvalues --   -0.63952  -0.62611  -0.62494  -0.61458  -0.61235
 Alpha  occ. eigenvalues --   -0.60358  -0.60051  -0.59731  -0.59282  -0.59250
 Alpha  occ. eigenvalues --   -0.58485  -0.57405  -0.56098  -0.55807  -0.54247
 Alpha  occ. eigenvalues --   -0.54054  -0.53232  -0.52835  -0.52139  -0.51557
 Alpha  occ. eigenvalues --   -0.51211  -0.50959  -0.50440  -0.49993  -0.49968
 Alpha  occ. eigenvalues --   -0.49262  -0.49092  -0.49069  -0.47786  -0.47032
 Alpha  occ. eigenvalues --   -0.46234  -0.45734  -0.45371  -0.44906  -0.44110
 Alpha  occ. eigenvalues --   -0.43788  -0.43074  -0.42757  -0.42343  -0.41814
 Alpha  occ. eigenvalues --   -0.41791  -0.41759  -0.41214  -0.41128  -0.40907
 Alpha  occ. eigenvalues --   -0.40650  -0.40548  -0.40451  -0.40368  -0.40078
 Alpha  occ. eigenvalues --   -0.39729  -0.39695  -0.39503  -0.39409  -0.39312
 Alpha  occ. eigenvalues --   -0.38982  -0.38943  -0.38833  -0.38553  -0.38437
 Alpha  occ. eigenvalues --   -0.38055  -0.37693  -0.37575  -0.37510  -0.37336
 Alpha  occ. eigenvalues --   -0.37288  -0.36822  -0.36655  -0.36425  -0.36390
 Alpha  occ. eigenvalues --   -0.36271  -0.35977  -0.35910  -0.35680  -0.35502
 Alpha  occ. eigenvalues --   -0.35387  -0.35209  -0.35015  -0.34873  -0.34710
 Alpha  occ. eigenvalues --   -0.34305  -0.34225  -0.34156  -0.34000  -0.33753
 Alpha  occ. eigenvalues --   -0.33740  -0.33579  -0.33409  -0.33235  -0.33032
 Alpha  occ. eigenvalues --   -0.32842  -0.32728  -0.32236  -0.32064  -0.31983
 Alpha  occ. eigenvalues --   -0.31914  -0.31808  -0.31642  -0.31579  -0.31494
 Alpha  occ. eigenvalues --   -0.31203  -0.31189  -0.30980  -0.30924  -0.30646
 Alpha  occ. eigenvalues --   -0.30421  -0.30041  -0.29994  -0.29908  -0.29535
 Alpha  occ. eigenvalues --   -0.29484  -0.29408  -0.29351  -0.29087  -0.28827
 Alpha  occ. eigenvalues --   -0.28738  -0.28624  -0.28526  -0.28267  -0.28092
 Alpha  occ. eigenvalues --   -0.27632  -0.27378  -0.27346  -0.26742  -0.26115
 Alpha  occ. eigenvalues --   -0.26002  -0.25930  -0.25760  -0.25513  -0.25304
 Alpha  occ. eigenvalues --   -0.25036  -0.24913  -0.24003  -0.23829  -0.23476
 Alpha  occ. eigenvalues --   -0.22981  -0.22570  -0.21842  -0.21022  -0.20812
 Alpha  occ. eigenvalues --   -0.20380  -0.19845  -0.18929  -0.17444  -0.16820
 Alpha  occ. eigenvalues --   -0.15378
 Alpha virt. eigenvalues --   -0.10960  -0.06604  -0.05787  -0.04225  -0.03558
 Alpha virt. eigenvalues --   -0.02815  -0.02583  -0.01750  -0.00739   0.00210
 Alpha virt. eigenvalues --    0.01304   0.02067   0.02482   0.02826   0.02864

 Mulliken charges:
               1
     1  Mg   0.694666
     2  C    0.032504
     3  C   -0.061986
     4  C   -0.033585
     5  C   -0.104493
     6  N   -0.194032
     7  C   -0.071392
     8  C   -0.028159
     9  C    0.004089
    10  C   -0.036032
    11  C    0.178180
    12  C    0.138095
    13  C    0.098977
    14  C    0.086256
    15  O   -0.155936
    16  O   -0.314425
    17  N   -0.271716
    18  C    0.099620
    19  C   -0.168066
    20  C    0.043562
    21  C    0.075365
    22  C    0.187391
    23  C   -0.070755
    24  O   -0.163263
    25  C    0.136444
    26  N   -0.218441
    27  C    0.037589
    28  C   -0.018411
    29  C    0.004851
    30  C    0.045964
    31  C    0.143101
    32  C    0.114748
    33  C    0.050443
    34  N   -0.262072
    35  C    0.127398
    36  C   -0.185128
    37  C    0.133463
    38  C    0.035524
    39  C    0.185463
    40  C   -0.144207
    41  O   -0.120349
    42  C    0.152875
    43  C    0.117540
    44  O   -0.203226
    45  O   -0.259868
    46  C    0.198511
    47  C    0.281270
    48  C   -0.072288
    49  C   -0.171645
    50  C    0.137266
    51  C    0.178796
    52  C    0.041805
    53  C    0.084571
    54  C   -0.113506
    55  C    0.134078
    56  C    0.133357
    57  C    0.057712
    58  C    0.121971
    59  C   -0.039454
    60  C    0.093793
    61  C    0.083736
    62  C    0.093982
    63  C    0.060375
    64  C   -0.077493
    65  C    0.123503
    66  C    0.106089
    67  H   -0.059356
    68  H   -0.044267
    69  H   -0.054160
    70  H    0.008892
    71  H   -0.018907
    72  H    0.004545
    73  H   -0.018356
    74  H    0.000324
    75  H   -0.024538
    76  H   -0.016440
    77  H   -0.007492
    78  H   -0.014146
    79  H    0.017079
    80  H   -0.013222
    81  H   -0.002343
    82  H    0.006035
    83  H    0.000229
    84  H    0.012973
    85  H   -0.018909
    86  H   -0.033253
    87  H   -0.015632
    88  H   -0.010888
    89  H   -0.003132
    90  H   -0.018130
    91  H   -0.028697
    92  H   -0.011871
    93  H   -0.001961
    94  H    0.005475
    95  H   -0.011515
    96  H    0.022655
    97  H    0.001593
    98  H   -0.009009
    99  H    0.012356
   100  H    0.017091
   101  H    0.016978
   102  H    0.002058
   103  H    0.009113
   104  H   -0.023807
   105  H    0.009474
   106  H   -0.011383
   107  H    0.002087
   108  H   -0.031751
   109  H   -0.023952
   110  H   -0.024014
   111  H   -0.022589
   112  H   -0.020534
   113  H   -0.039083
   114  H   -0.037392
   115  H   -0.021730
   116  H   -0.035115
   117  H   -0.019913
   118  H   -0.031850
   119  H   -0.056089
   120  H   -0.038240
   121  H   -0.040168
   122  H   -0.020819
   123  H   -0.039463
   124  H   -0.038668
   125  H   -0.027515
   126  H   -0.022172
   127  H   -0.016648
   128  H   -0.042286
   129  H   -0.024744
   130  H   -0.035068
   131  H   -0.033354
   132  H   -0.030190
   133  H   -0.044619
   134  H   -0.034423
   135  H   -0.018781
   136  H   -0.020283
   137  H   -0.026471
   138  H   -0.018729
   139  H   -0.017571
   140  H   -0.018310
 Sum of Mulliken charges =  -0.00000

 Dipole moment (field-independent basis, Debye):
    X=              4.7669    Y=              3.8205    Z=             -2.2836  Tot=              6.5218
 Quadrupole moment (field-independent basis, Debye-Ang):
   XX=           -376.2050   YY=           -437.8214   ZZ=           -403.1568
   XY=            -14.5227   XZ=             15.5906   YZ=              1.9618

 Normal termination of Gaussian 16 at Fri Apr 29 02:38:42 2022.
