 Gaussian 16, Revision A.03,
 Gaussian 16:  ES64L-G16RevA.03 25-Dec-2016

 -----------------------------------
 #p cam-b3lyp/Def2SVP td=(nstates=5)
 -----------------------------------

 -------------------------------------------------------
 step_1801_chromophore_6 TDDFT with cam-b3lyp functional
 -------------------------------------------------------
 Symbolic Z-matrix:
 Charge =  0 Multiplicity = 1

                         Standard orientation:
 ---------------------------------------------------------------------
 Center     Atomic      Atomic             Coordinates (Angstroms)
 Number     Number       Type             X           Y           Z
 ---------------------------------------------------------------------
      1         12           0       -5.498373    1.062058   -0.117121
      2          6           0       -4.231656   -2.216859   -0.106744
      3          6           0       -2.281975    2.239099    0.031923
      4          6           0       -6.792627    4.084906    0.242046
      5          6           0       -8.800017   -0.435963   -0.031292
      6          7           0       -3.478288    0.065224   -0.087467
      7          6           0       -3.248433   -1.263233   -0.099118
      8          6           0       -1.777321   -1.526130   -0.181175
      9          6           0       -1.037856   -0.176290    0.103483
     10          6           0       -2.317706    0.776428    0.086109
     11          6           0       -0.231379    0.055255    1.343405
     12          6           0       -1.342291   -2.053663   -1.623164
     13          6           0       -0.383157   -3.277721   -1.655326
     14          6           0        0.450882   -3.632051   -0.394827
     15          8           0        0.566294   -4.715685    0.134637
     16          8           0        1.231059   -2.527770   -0.088917
     17          7           0       -4.622069    2.935652    0.059287
     18          6           0       -3.324897    3.209137   -0.026239
     19          6           0       -3.158560    4.684530   -0.091199
     20          6           0       -4.413738    5.207982    0.161777
     21          6           0       -5.352045    4.094688    0.188755
     22          6           0       -1.804207    5.190656   -0.279916
     23          6           0       -4.848343    6.739367    0.239512
     24          8           0       -5.998452    7.085520    0.481063
     25          6           0       -3.937111    7.894154    0.019093
     26          7           0       -7.478274    1.710830    0.052957
     27          6           0       -7.770570    3.004535    0.263101
     28          6           0       -9.277242    3.229173    0.368262
     29          6           0       -9.875389    1.795412    0.020607
     30          6           0       -8.604865    0.932144    0.022209
     31          6           0       -9.730353    3.823755    1.676735
     32          6           0      -10.774079    1.679665   -1.225843
     33          6           0      -12.207390    1.151976   -0.958859
     34          7           0       -6.358779   -0.865474   -0.056657
     35          6           0       -7.699258   -1.314390   -0.101830
     36          6           0       -7.824185   -2.769414   -0.149410
     37          6           0       -6.452401   -3.151222   -0.088135
     38          6           0       -5.613509   -1.995349   -0.067640
     39          6           0       -9.028661   -3.719034   -0.107670
     40          6           0       -5.544652   -4.212700   -0.182373
     41          8           0       -5.811755   -5.382305   -0.150100
     42          6           0       -4.116239   -3.733279   -0.281720
     43          6           0       -3.249322   -4.340484    0.760922
     44          8           0       -3.405761   -4.157337    1.978315
     45          8           0       -2.583751   -5.395839    0.177360
     46          6           0       -1.971760   -6.301861    1.161816
     47          6           0        2.409850   -2.732344    0.833753
     48          6           0        3.572186   -3.379746    0.100670
     49          6           0        4.790475   -3.513536    0.716236
     50          6           0        5.016212   -3.365299    2.238484
     51          6           0        5.931580   -3.973309   -0.129492
     52          6           0        7.150209   -3.034808   -0.067921
     53          6           0        7.358632   -2.257475   -1.461518
     54          6           0        7.996634   -0.862300   -1.336029
     55          6           0        7.836072   -0.070977   -2.624351
     56          6           0        9.471320   -0.860702   -0.977597
     57          6           0        9.917722    0.524590   -0.423846
     58          6           0       11.078058    1.210994   -1.234268
     59          6           0       11.828266    2.241843   -0.446502
     60          6           0       11.355095    3.613207   -0.898823
     61          6           0       13.388510    2.068002   -0.586272
     62          6           0       14.232841    2.934880    0.418584
     63          6           0       15.035423    2.083694    1.384311
     64          6           0       16.561110    2.123196    1.091857
     65          6           0       17.342609    1.478562    2.232300
     66          6           0       16.934488    1.486669   -0.246437
     67          1           0       -1.283647    2.647957    0.203813
     68          1           0       -7.222810    5.068568    0.442020
     69          1           0       -9.824827   -0.800764   -0.139349
     70          1           0       -1.476047   -2.285866    0.540028
     71          1           0       -0.491689    0.112540   -0.794071
     72          1           0       -0.727649    0.748522    2.022291
     73          1           0        0.689314    0.518316    0.987000
     74          1           0        0.020899   -0.944965    1.693820
     75          1           0       -0.816742   -1.262273   -2.158620
     76          1           0       -2.150446   -2.344265   -2.293801
     77          1           0        0.284655   -3.304836   -2.515958
     78          1           0       -0.925771   -4.177028   -1.944978
     79          1           0       -1.386223    5.426934    0.698688
     80          1           0       -1.846716    6.055920   -0.940875
     81          1           0       -1.250005    4.427949   -0.825824
     82          1           0       -3.113175    7.875586    0.732573
     83          1           0       -4.550234    8.782702    0.169369
     84          1           0       -3.560904    7.864073   -1.003708
     85          1           0       -9.601756    3.969503   -0.363538
     86          1           0      -10.453113    1.448277    0.877008
     87          1           0      -10.234635    3.047745    2.252603
     88          1           0      -10.399469    4.658580    1.468704
     89          1           0       -8.888682    4.216839    2.246337
     90          1           0      -10.368594    1.049207   -2.017967
     91          1           0      -10.738492    2.712687   -1.570832
     92          1           0      -12.641868    2.060817   -0.541967
     93          1           0      -12.288544    0.460989   -0.120610
     94          1           0      -12.708721    0.783488   -1.854271
     95          1           0       -9.978792   -3.219366    0.078150
     96          1           0       -8.727224   -4.484345    0.607625
     97          1           0       -9.125973   -4.235961   -1.062783
     98          1           0       -3.754985   -3.954535   -1.285510
     99          1           0       -2.469312   -7.270629    1.211839
    100          1           0       -1.832120   -5.955367    2.186166
    101          1           0       -0.962331   -6.471638    0.788876
    102          1           0        1.986413   -3.367260    1.612694
    103          1           0        2.679998   -1.836607    1.392648
    104          1           0        3.528576   -3.392195   -0.988437
    105          1           0        5.339178   -2.362527    2.518390
    106          1           0        5.843817   -4.054555    2.406957
    107          1           0        4.215226   -3.646309    2.922048
    108          1           0        5.532046   -4.111792   -1.133349
    109          1           0        6.265865   -4.959001    0.193392
    110          1           0        8.040152   -3.639170    0.112047
    111          1           0        7.185599   -2.253697    0.691700
    112          1           0        6.504154   -2.214671   -2.136079
    113          1           0        8.116225   -2.930563   -1.862767
    114          1           0        7.395660   -0.372439   -0.569985
    115          1           0        7.512522   -0.693626   -3.458173
    116          1           0        8.787704    0.331417   -2.971575
    117          1           0        7.259149    0.837651   -2.454446
    118          1           0       10.108256   -1.202489   -1.793680
    119          1           0        9.529331   -1.659774   -0.239526
    120          1           0       10.144287    0.456072    0.639729
    121          1           0        9.056953    1.192011   -0.386759
    122          1           0       10.674790    1.574760   -2.179804
    123          1           0       11.730873    0.356322   -1.414910
    124          1           0       11.582694    2.279086    0.614617
    125          1           0       11.740028    3.916657   -1.872686
    126          1           0       11.746561    4.327581   -0.174403
    127          1           0       10.273703    3.662454   -1.023031
    128          1           0       13.693143    2.284053   -1.610219
    129          1           0       13.669878    1.018230   -0.505866
    130          1           0       13.611848    3.545826    1.074548
    131          1           0       14.857510    3.655408   -0.108885
    132          1           0       14.703428    1.046215    1.426211
    133          1           0       14.807354    2.546548    2.344913
    134          1           0       16.691492    3.205253    1.117271
    135          1           0       18.282814    1.089256    1.841337
    136          1           0       16.781194    0.698192    2.746212
    137          1           0       17.545765    2.189267    3.032351
    138          1           0       17.839140    0.878570   -0.203886
    139          1           0       17.081180    2.285692   -0.972551
    140          1           0       16.213531    0.843656   -0.751045
 ---------------------------------------------------------------------

 SCF Done:  E(RCAM-B3LYP) =  -3007.18073997     A.U. after   17 cycles

 Excitation energies and oscillator strengths:

 Excited State   1:      Singlet-A      1.7504 eV  708.31 nm  f=0.3767  <S**2>=0.000
     245 -> 248       -0.19097
     246 -> 247        0.68304
     245 <- 248       -0.10858
 This state for optimization and/or second-order correction.
 Total Energy, E(TD-HF/TD-DFT) =  -3007.11641285
 Copying the excited state density for this state as the 1-particle RhoCI density.

 Excited State   2:      Singlet-A      2.2513 eV  550.73 nm  f=0.0889  <S**2>=0.000
     245 -> 247        0.62663
     246 -> 248        0.31827

 Excited State   3:      Singlet-A      3.4502 eV  359.35 nm  f=0.0007  <S**2>=0.000
     243 -> 247       -0.36258
     243 -> 249       -0.15329
     243 -> 250        0.16316
     244 -> 247        0.52670

 Excited State   4:      Singlet-A      3.4922 eV  355.03 nm  f=0.7347  <S**2>=0.000
     240 -> 247        0.11891
     241 -> 247       -0.16960
     245 -> 247       -0.29859
     246 -> 248        0.60416
     245 <- 247        0.11205

 Excited State   5:      Singlet-A      3.5142 eV  352.81 nm  f=0.0013  <S**2>=0.000
     241 -> 247       -0.15494
     243 -> 247        0.47434
     243 -> 249        0.15963
     243 -> 250       -0.15128
     244 -> 247        0.41818

 The electronic state is 1-A.
 Alpha  occ. eigenvalues --  -46.88360 -19.24890 -19.24407 -19.20779 -19.19592
 Alpha  occ. eigenvalues --  -19.18838 -19.16553 -14.41859 -14.41832 -14.39510
 Alpha  occ. eigenvalues --  -14.38615 -10.40061 -10.38297 -10.35998 -10.32673
 Alpha  occ. eigenvalues --  -10.32309 -10.31767 -10.31387 -10.30880 -10.30217
 Alpha  occ. eigenvalues --  -10.29824 -10.29591 -10.29059 -10.28938 -10.28591
 Alpha  occ. eigenvalues --  -10.28185 -10.28065 -10.27947 -10.27802 -10.27692
 Alpha  occ. eigenvalues --  -10.27691 -10.27654 -10.27622 -10.27396 -10.27210
 Alpha  occ. eigenvalues --  -10.27126 -10.26940 -10.26863 -10.26829 -10.26768
 Alpha  occ. eigenvalues --  -10.26548 -10.26491 -10.26444 -10.26181 -10.26160
 Alpha  occ. eigenvalues --  -10.26155 -10.26056 -10.26009 -10.25676 -10.25594
 Alpha  occ. eigenvalues --  -10.25584 -10.25443 -10.25345 -10.25274 -10.25256
 Alpha  occ. eigenvalues --  -10.25227 -10.25089 -10.24949 -10.24848 -10.24842
 Alpha  occ. eigenvalues --  -10.24477 -10.24398 -10.24251 -10.24248 -10.24142
 Alpha  occ. eigenvalues --  -10.23552  -3.16854  -1.91777  -1.91297  -1.91161
 Alpha  occ. eigenvalues --   -1.15893  -1.14598  -1.10823  -1.09387  -1.07953
 Alpha  occ. eigenvalues --   -1.06036  -1.04300  -1.03377  -1.03336  -1.01367
 Alpha  occ. eigenvalues --   -0.92156  -0.91000  -0.90230  -0.89430  -0.89116
 Alpha  occ. eigenvalues --   -0.88844  -0.88427  -0.88077  -0.87382  -0.87034
 Alpha  occ. eigenvalues --   -0.85641  -0.85375  -0.84274  -0.83555  -0.82976
 Alpha  occ. eigenvalues --   -0.82539  -0.82222  -0.81183  -0.80775  -0.79829
 Alpha  occ. eigenvalues --   -0.79758  -0.78477  -0.78104  -0.76864  -0.76649
 Alpha  occ. eigenvalues --   -0.75732  -0.75309  -0.75052  -0.74540  -0.74500
 Alpha  occ. eigenvalues --   -0.73541  -0.72342  -0.70996  -0.70624  -0.68763
 Alpha  occ. eigenvalues --   -0.68666  -0.67830  -0.67203  -0.66698  -0.65824
 Alpha  occ. eigenvalues --   -0.65419  -0.65047  -0.64493  -0.64038  -0.63889
 Alpha  occ. eigenvalues --   -0.63205  -0.63001  -0.62718  -0.61459  -0.60576
 Alpha  occ. eigenvalues --   -0.60081  -0.59346  -0.58932  -0.58281  -0.57622
 Alpha  occ. eigenvalues --   -0.57069  -0.56288  -0.56228  -0.55552  -0.55023
 Alpha  occ. eigenvalues --   -0.54897  -0.54674  -0.54304  -0.53897  -0.53586
 Alpha  occ. eigenvalues --   -0.53509  -0.53388  -0.53184  -0.53125  -0.53069
 Alpha  occ. eigenvalues --   -0.52705  -0.52209  -0.52138  -0.51942  -0.51830
 Alpha  occ. eigenvalues --   -0.51672  -0.51457  -0.51326  -0.51211  -0.50812
 Alpha  occ. eigenvalues --   -0.50569  -0.50163  -0.49950  -0.49870  -0.49571
 Alpha  occ. eigenvalues --   -0.49489  -0.49312  -0.49060  -0.48778  -0.48531
 Alpha  occ. eigenvalues --   -0.48447  -0.48268  -0.48121  -0.47871  -0.47833
 Alpha  occ. eigenvalues --   -0.47376  -0.47342  -0.47090  -0.46962  -0.46756
 Alpha  occ. eigenvalues --   -0.46550  -0.46047  -0.45922  -0.45810  -0.45529
 Alpha  occ. eigenvalues --   -0.45471  -0.45406  -0.45058  -0.44777  -0.44751
 Alpha  occ. eigenvalues --   -0.44458  -0.44352  -0.43969  -0.43913  -0.43653
 Alpha  occ. eigenvalues --   -0.43484  -0.43382  -0.43191  -0.42982  -0.42976
 Alpha  occ. eigenvalues --   -0.42734  -0.42585  -0.42522  -0.42352  -0.42214
 Alpha  occ. eigenvalues --   -0.41673  -0.41509  -0.41323  -0.41307  -0.41168
 Alpha  occ. eigenvalues --   -0.41002  -0.40656  -0.40520  -0.40264  -0.39989
 Alpha  occ. eigenvalues --   -0.39912  -0.39781  -0.39602  -0.39285  -0.39144
 Alpha  occ. eigenvalues --   -0.38512  -0.38507  -0.38172  -0.37507  -0.37410
 Alpha  occ. eigenvalues --   -0.37074  -0.36622  -0.36346  -0.36270  -0.36111
 Alpha  occ. eigenvalues --   -0.35837  -0.35681  -0.35189  -0.34578  -0.34395
 Alpha  occ. eigenvalues --   -0.33837  -0.33347  -0.32887  -0.31515  -0.31296
 Alpha  occ. eigenvalues --   -0.30243  -0.29909  -0.29314  -0.28776  -0.23592
 Alpha  occ. eigenvalues --   -0.20625
 Alpha virt. eigenvalues --   -0.07970  -0.01517   0.00798   0.02956   0.03366
 Alpha virt. eigenvalues --    0.04111   0.04627   0.05173   0.06231   0.06595
 Alpha virt. eigenvalues --    0.07711   0.08664   0.08947   0.09133   0.09427

 Mulliken charges:
               1
     1  Mg   0.828912
     2  C   -0.001353
     3  C   -0.083492
     4  C   -0.052142
     5  C   -0.097517
     6  N   -0.265631
     7  C   -0.022920
     8  C   -0.085708
     9  C   -0.037978
    10  C   -0.009995
    11  C    0.116701
    12  C    0.090620
    13  C    0.037855
    14  C    0.156452
    15  O   -0.197328
    16  O   -0.378220
    17  N   -0.362563
    18  C    0.113942
    19  C   -0.169458
    20  C   -0.019215
    21  C    0.099814
    22  C    0.124063
    23  C    0.008736
    24  O   -0.202409
    25  C    0.057063
    26  N   -0.293965
    27  C    0.060719
    28  C   -0.072107
    29  C   -0.048778
    30  C    0.057794
    31  C    0.083042
    32  C    0.056223
    33  C   -0.010530
    34  N   -0.349467
    35  C    0.121012
    36  C   -0.176695
    37  C    0.053713
    38  C    0.070614
    39  C    0.136828
    40  C   -0.048905
    41  O   -0.162498
    42  C    0.078227
    43  C    0.202664
    44  O   -0.239407
    45  O   -0.321868
    46  C    0.160148
    47  C    0.247912
    48  C   -0.090822
    49  C   -0.186069
    50  C    0.072363
    51  C    0.114753
    52  C   -0.015098
    53  C    0.034858
    54  C   -0.166577
    55  C    0.071490
    56  C    0.074157
    57  C    0.008588
    58  C    0.063474
    59  C   -0.097639
    60  C    0.040815
    61  C    0.035261
    62  C    0.032877
    63  C    0.011203
    64  C   -0.136735
    65  C    0.063026
    66  C    0.042219
    67  H   -0.025282
    68  H   -0.004668
    69  H   -0.020330
    70  H    0.036917
    71  H    0.016938
    72  H    0.031147
    73  H    0.006197
    74  H    0.022546
    75  H    0.005754
    76  H    0.014446
    77  H    0.025085
    78  H    0.018841
    79  H    0.046175
    80  H    0.014966
    81  H    0.027218
    82  H    0.033000
    83  H    0.036103
    84  H    0.038882
    85  H    0.015992
    86  H    0.001656
    87  H    0.010079
    88  H    0.014171
    89  H    0.022746
    90  H    0.011648
    91  H   -0.001289
    92  H    0.010087
    93  H    0.018915
    94  H    0.029864
    95  H    0.010919
    96  H    0.047655
    97  H    0.027215
    98  H    0.032757
    99  H    0.034406
   100  H    0.043262
   101  H    0.039965
   102  H    0.032695
   103  H    0.035283
   104  H    0.008083
   105  H    0.033035
   106  H    0.013962
   107  H    0.027902
   108  H   -0.000947
   109  H    0.007088
   110  H    0.004507
   111  H    0.003262
   112  H    0.006859
   113  H   -0.010007
   114  H   -0.005758
   115  H    0.004671
   116  H   -0.011636
   117  H    0.005020
   118  H   -0.002455
   119  H   -0.025542
   120  H   -0.007814
   121  H   -0.013375
   122  H    0.005547
   123  H   -0.010015
   124  H   -0.007473
   125  H   -0.003272
   126  H    0.001392
   127  H    0.006970
   128  H   -0.013406
   129  H    0.001058
   130  H   -0.006520
   131  H   -0.003751
   132  H   -0.003100
   133  H   -0.013892
   134  H   -0.003267
   135  H    0.005353
   136  H    0.003532
   137  H   -0.001013
   138  H    0.006496
   139  H    0.006421
   140  H    0.005076
 Sum of Mulliken charges =  -0.00000

 Dipole moment (field-independent basis, Debye):
    X=              5.3737    Y=              5.0134    Z=             -2.3836  Tot=              7.7261
 Quadrupole moment (field-independent basis, Debye-Ang):
   XX=           -380.0775   YY=           -433.0327   ZZ=           -402.8139
   XY=            -19.7946   XZ=             16.1265   YZ=              2.2326

 Normal termination of Gaussian 16 at Fri Apr 29 01:43:02 2022.
