 Gaussian 16, Revision A.03,
 Gaussian 16:  ES64L-G16RevA.03 25-Dec-2016

 ---------------------------------
 #p PBE1PBE/Def2SVP td=(nstates=5)
 ---------------------------------

 -----------------------------------------------------
 step_1801_chromophore_6 TDDFT with PBE1PBE functional
 -----------------------------------------------------
 Symbolic Z-matrix:
 Charge =  0 Multiplicity = 1

                         Standard orientation:
 ---------------------------------------------------------------------
 Center     Atomic      Atomic             Coordinates (Angstroms)
 Number     Number       Type             X           Y           Z
 ---------------------------------------------------------------------
      1         12           0       -5.498373    1.062058   -0.117121
      2          6           0       -4.231656   -2.216859   -0.106744
      3          6           0       -2.281975    2.239099    0.031923
      4          6           0       -6.792627    4.084906    0.242046
      5          6           0       -8.800017   -0.435963   -0.031292
      6          7           0       -3.478288    0.065224   -0.087467
      7          6           0       -3.248433   -1.263233   -0.099118
      8          6           0       -1.777321   -1.526130   -0.181175
      9          6           0       -1.037856   -0.176290    0.103483
     10          6           0       -2.317706    0.776428    0.086109
     11          6           0       -0.231379    0.055255    1.343405
     12          6           0       -1.342291   -2.053663   -1.623164
     13          6           0       -0.383157   -3.277721   -1.655326
     14          6           0        0.450882   -3.632051   -0.394827
     15          8           0        0.566294   -4.715685    0.134637
     16          8           0        1.231059   -2.527770   -0.088917
     17          7           0       -4.622069    2.935652    0.059287
     18          6           0       -3.324897    3.209137   -0.026239
     19          6           0       -3.158560    4.684530   -0.091199
     20          6           0       -4.413738    5.207982    0.161777
     21          6           0       -5.352045    4.094688    0.188755
     22          6           0       -1.804207    5.190656   -0.279916
     23          6           0       -4.848343    6.739367    0.239512
     24          8           0       -5.998452    7.085520    0.481063
     25          6           0       -3.937111    7.894154    0.019093
     26          7           0       -7.478274    1.710830    0.052957
     27          6           0       -7.770570    3.004535    0.263101
     28          6           0       -9.277242    3.229173    0.368262
     29          6           0       -9.875389    1.795412    0.020607
     30          6           0       -8.604865    0.932144    0.022209
     31          6           0       -9.730353    3.823755    1.676735
     32          6           0      -10.774079    1.679665   -1.225843
     33          6           0      -12.207390    1.151976   -0.958859
     34          7           0       -6.358779   -0.865474   -0.056657
     35          6           0       -7.699258   -1.314390   -0.101830
     36          6           0       -7.824185   -2.769414   -0.149410
     37          6           0       -6.452401   -3.151222   -0.088135
     38          6           0       -5.613509   -1.995349   -0.067640
     39          6           0       -9.028661   -3.719034   -0.107670
     40          6           0       -5.544652   -4.212700   -0.182373
     41          8           0       -5.811755   -5.382305   -0.150100
     42          6           0       -4.116239   -3.733279   -0.281720
     43          6           0       -3.249322   -4.340484    0.760922
     44          8           0       -3.405761   -4.157337    1.978315
     45          8           0       -2.583751   -5.395839    0.177360
     46          6           0       -1.971760   -6.301861    1.161816
     47          6           0        2.409850   -2.732344    0.833753
     48          6           0        3.572186   -3.379746    0.100670
     49          6           0        4.790475   -3.513536    0.716236
     50          6           0        5.016212   -3.365299    2.238484
     51          6           0        5.931580   -3.973309   -0.129492
     52          6           0        7.150209   -3.034808   -0.067921
     53          6           0        7.358632   -2.257475   -1.461518
     54          6           0        7.996634   -0.862300   -1.336029
     55          6           0        7.836072   -0.070977   -2.624351
     56          6           0        9.471320   -0.860702   -0.977597
     57          6           0        9.917722    0.524590   -0.423846
     58          6           0       11.078058    1.210994   -1.234268
     59          6           0       11.828266    2.241843   -0.446502
     60          6           0       11.355095    3.613207   -0.898823
     61          6           0       13.388510    2.068002   -0.586272
     62          6           0       14.232841    2.934880    0.418584
     63          6           0       15.035423    2.083694    1.384311
     64          6           0       16.561110    2.123196    1.091857
     65          6           0       17.342609    1.478562    2.232300
     66          6           0       16.934488    1.486669   -0.246437
     67          1           0       -1.283647    2.647957    0.203813
     68          1           0       -7.222810    5.068568    0.442020
     69          1           0       -9.824827   -0.800764   -0.139349
     70          1           0       -1.476047   -2.285866    0.540028
     71          1           0       -0.491689    0.112540   -0.794071
     72          1           0       -0.727649    0.748522    2.022291
     73          1           0        0.689314    0.518316    0.987000
     74          1           0        0.020899   -0.944965    1.693820
     75          1           0       -0.816742   -1.262273   -2.158620
     76          1           0       -2.150446   -2.344265   -2.293801
     77          1           0        0.284655   -3.304836   -2.515958
     78          1           0       -0.925771   -4.177028   -1.944978
     79          1           0       -1.386223    5.426934    0.698688
     80          1           0       -1.846716    6.055920   -0.940875
     81          1           0       -1.250005    4.427949   -0.825824
     82          1           0       -3.113175    7.875586    0.732573
     83          1           0       -4.550234    8.782702    0.169369
     84          1           0       -3.560904    7.864073   -1.003708
     85          1           0       -9.601756    3.969503   -0.363538
     86          1           0      -10.453113    1.448277    0.877008
     87          1           0      -10.234635    3.047745    2.252603
     88          1           0      -10.399469    4.658580    1.468704
     89          1           0       -8.888682    4.216839    2.246337
     90          1           0      -10.368594    1.049207   -2.017967
     91          1           0      -10.738492    2.712687   -1.570832
     92          1           0      -12.641868    2.060817   -0.541967
     93          1           0      -12.288544    0.460989   -0.120610
     94          1           0      -12.708721    0.783488   -1.854271
     95          1           0       -9.978792   -3.219366    0.078150
     96          1           0       -8.727224   -4.484345    0.607625
     97          1           0       -9.125973   -4.235961   -1.062783
     98          1           0       -3.754985   -3.954535   -1.285510
     99          1           0       -2.469312   -7.270629    1.211839
    100          1           0       -1.832120   -5.955367    2.186166
    101          1           0       -0.962331   -6.471638    0.788876
    102          1           0        1.986413   -3.367260    1.612694
    103          1           0        2.679998   -1.836607    1.392648
    104          1           0        3.528576   -3.392195   -0.988437
    105          1           0        5.339178   -2.362527    2.518390
    106          1           0        5.843817   -4.054555    2.406957
    107          1           0        4.215226   -3.646309    2.922048
    108          1           0        5.532046   -4.111792   -1.133349
    109          1           0        6.265865   -4.959001    0.193392
    110          1           0        8.040152   -3.639170    0.112047
    111          1           0        7.185599   -2.253697    0.691700
    112          1           0        6.504154   -2.214671   -2.136079
    113          1           0        8.116225   -2.930563   -1.862767
    114          1           0        7.395660   -0.372439   -0.569985
    115          1           0        7.512522   -0.693626   -3.458173
    116          1           0        8.787704    0.331417   -2.971575
    117          1           0        7.259149    0.837651   -2.454446
    118          1           0       10.108256   -1.202489   -1.793680
    119          1           0        9.529331   -1.659774   -0.239526
    120          1           0       10.144287    0.456072    0.639729
    121          1           0        9.056953    1.192011   -0.386759
    122          1           0       10.674790    1.574760   -2.179804
    123          1           0       11.730873    0.356322   -1.414910
    124          1           0       11.582694    2.279086    0.614617
    125          1           0       11.740028    3.916657   -1.872686
    126          1           0       11.746561    4.327581   -0.174403
    127          1           0       10.273703    3.662454   -1.023031
    128          1           0       13.693143    2.284053   -1.610219
    129          1           0       13.669878    1.018230   -0.505866
    130          1           0       13.611848    3.545826    1.074548
    131          1           0       14.857510    3.655408   -0.108885
    132          1           0       14.703428    1.046215    1.426211
    133          1           0       14.807354    2.546548    2.344913
    134          1           0       16.691492    3.205253    1.117271
    135          1           0       18.282814    1.089256    1.841337
    136          1           0       16.781194    0.698192    2.746212
    137          1           0       17.545765    2.189267    3.032351
    138          1           0       17.839140    0.878570   -0.203886
    139          1           0       17.081180    2.285692   -0.972551
    140          1           0       16.213531    0.843656   -0.751045
 ---------------------------------------------------------------------

 SCF Done:  E(RPBE1PBE) =  -3005.36840301     A.U. after   15 cycles

 Excitation energies and oscillator strengths:

 Excited State   1:      Singlet-A      1.8897 eV  656.12 nm  f=0.3679  <S**2>=0.000
     245 -> 248       -0.18689
     246 -> 247        0.68899
     246 <- 247       -0.10037
 This state for optimization and/or second-order correction.
 Total Energy, E(TD-HF/TD-DFT) =  -3005.29895898
 Copying the excited state density for this state as the 1-particle RhoCI density.

 Excited State   2:      Singlet-A      2.2572 eV  549.28 nm  f=0.0902  <S**2>=0.000
     245 -> 247        0.63985
     246 -> 248        0.29365

 Excited State   3:      Singlet-A      2.8696 eV  432.07 nm  f=0.0001  <S**2>=0.000
     243 -> 247       -0.10516
     244 -> 247        0.67474
     244 -> 249        0.12155

 Excited State   4:      Singlet-A      3.1172 eV  397.74 nm  f=0.0030  <S**2>=0.000
     243 -> 247        0.68350
     244 -> 247        0.11546

 Excited State   5:      Singlet-A      3.3150 eV  374.01 nm  f=0.2674  <S**2>=0.000
     239 -> 247       -0.12483
     240 -> 247        0.30280
     240 -> 249       -0.10081
     241 -> 247       -0.31255
     245 -> 247       -0.19175
     246 -> 248        0.46878
     246 -> 249        0.10817

 The electronic state is 1-A.
 Alpha  occ. eigenvalues --  -46.91737 -19.25575 -19.25130 -19.21025 -19.19622
 Alpha  occ. eigenvalues --  -19.19139 -19.17010 -14.41336 -14.41325 -14.39015
 Alpha  occ. eigenvalues --  -14.38415 -10.37113 -10.35370 -10.32982 -10.30065
 Alpha  occ. eigenvalues --  -10.29612 -10.29359 -10.28931 -10.28297 -10.27659
 Alpha  occ. eigenvalues --  -10.27588 -10.27537 -10.26990 -10.26374 -10.25912
 Alpha  occ. eigenvalues --  -10.25899 -10.25678 -10.25660 -10.25603 -10.25585
 Alpha  occ. eigenvalues --  -10.25450 -10.25374 -10.25158 -10.25043 -10.24903
 Alpha  occ. eigenvalues --  -10.24685 -10.24656 -10.24466 -10.24427 -10.24412
 Alpha  occ. eigenvalues --  -10.24205 -10.24000 -10.23875 -10.23755 -10.23750
 Alpha  occ. eigenvalues --  -10.23712 -10.23629 -10.23616 -10.23232 -10.23105
 Alpha  occ. eigenvalues --  -10.23086 -10.23067 -10.23018 -10.22865 -10.22799
 Alpha  occ. eigenvalues --  -10.22660 -10.22656 -10.22497 -10.22394 -10.22381
 Alpha  occ. eigenvalues --  -10.21942 -10.21849 -10.21633 -10.21616 -10.21560
 Alpha  occ. eigenvalues --  -10.21514  -3.13814  -1.86678  -1.86175  -1.86043
 Alpha  occ. eigenvalues --   -1.10667  -1.09419  -1.05378  -1.04360  -1.02817
 Alpha  occ. eigenvalues --   -1.00905  -0.98788  -0.97965  -0.97928  -0.96210
 Alpha  occ. eigenvalues --   -0.86661  -0.85102  -0.84321  -0.83554  -0.83307
 Alpha  occ. eigenvalues --   -0.83094  -0.82546  -0.82185  -0.81665  -0.81326
 Alpha  occ. eigenvalues --   -0.79992  -0.79722  -0.78438  -0.77874  -0.77198
 Alpha  occ. eigenvalues --   -0.76747  -0.76270  -0.75452  -0.75004  -0.74125
 Alpha  occ. eigenvalues --   -0.73980  -0.72702  -0.72403  -0.71234  -0.70790
 Alpha  occ. eigenvalues --   -0.69795  -0.69710  -0.69165  -0.68870  -0.68683
 Alpha  occ. eigenvalues --   -0.67822  -0.66835  -0.65413  -0.64958  -0.63140
 Alpha  occ. eigenvalues --   -0.62880  -0.62272  -0.61477  -0.61042  -0.60022
 Alpha  occ. eigenvalues --   -0.59808  -0.59502  -0.59069  -0.58480  -0.58153
 Alpha  occ. eigenvalues --   -0.57366  -0.57260  -0.57143  -0.56090  -0.54934
 Alpha  occ. eigenvalues --   -0.54468  -0.53870  -0.53502  -0.52888  -0.52108
 Alpha  occ. eigenvalues --   -0.51757  -0.50805  -0.50699  -0.50045  -0.49596
 Alpha  occ. eigenvalues --   -0.49537  -0.49162  -0.48708  -0.48409  -0.48079
 Alpha  occ. eigenvalues --   -0.47985  -0.47681  -0.47611  -0.47541  -0.47504
 Alpha  occ. eigenvalues --   -0.47326  -0.46782  -0.46607  -0.46562  -0.46361
 Alpha  occ. eigenvalues --   -0.46225  -0.45823  -0.45813  -0.45759  -0.45391
 Alpha  occ. eigenvalues --   -0.45139  -0.44773  -0.44531  -0.44454  -0.44246
 Alpha  occ. eigenvalues --   -0.44062  -0.43901  -0.43643  -0.43333  -0.43139
 Alpha  occ. eigenvalues --   -0.43027  -0.42843  -0.42734  -0.42537  -0.42455
 Alpha  occ. eigenvalues --   -0.42067  -0.41985  -0.41748  -0.41671  -0.41405
 Alpha  occ. eigenvalues --   -0.41175  -0.40728  -0.40624  -0.40490  -0.40311
 Alpha  occ. eigenvalues --   -0.40239  -0.39986  -0.39891  -0.39588  -0.39437
 Alpha  occ. eigenvalues --   -0.39272  -0.39024  -0.38752  -0.38615  -0.38370
 Alpha  occ. eigenvalues --   -0.38173  -0.38077  -0.37993  -0.37915  -0.37755
 Alpha  occ. eigenvalues --   -0.37544  -0.37393  -0.37223  -0.37079  -0.36991
 Alpha  occ. eigenvalues --   -0.36449  -0.36330  -0.36208  -0.36156  -0.35954
 Alpha  occ. eigenvalues --   -0.35755  -0.35561  -0.35237  -0.35196  -0.34837
 Alpha  occ. eigenvalues --   -0.34799  -0.34668  -0.34403  -0.34185  -0.34097
 Alpha  occ. eigenvalues --   -0.33389  -0.33263  -0.33042  -0.32411  -0.32274
 Alpha  occ. eigenvalues --   -0.31981  -0.31436  -0.31411  -0.31168  -0.30948
 Alpha  occ. eigenvalues --   -0.30890  -0.30544  -0.30188  -0.29418  -0.29355
 Alpha  occ. eigenvalues --   -0.29059  -0.28623  -0.28007  -0.26818  -0.26042
 Alpha  occ. eigenvalues --   -0.25832  -0.25212  -0.24712  -0.24246  -0.20496
 Alpha  occ. eigenvalues --   -0.18270
 Alpha virt. eigenvalues --   -0.10487  -0.04969  -0.03421  -0.01520  -0.00433
 Alpha virt. eigenvalues --    0.00180   0.00480   0.00597   0.02146   0.03018
 Alpha virt. eigenvalues --    0.03837   0.05173   0.05527   0.05780   0.05899

 Mulliken charges:
               1
     1  Mg   0.978442
     2  C   -0.020076
     3  C   -0.078406
     4  C   -0.043965
     5  C   -0.075289
     6  N   -0.369124
     7  C    0.056910
     8  C   -0.165296
     9  C   -0.106513
    10  C    0.027691
    11  C    0.054046
    12  C    0.043448
    13  C   -0.026961
    14  C    0.212570
    15  O   -0.233071
    16  O   -0.402764
    17  N   -0.479805
    18  C    0.139365
    19  C   -0.201386
    20  C   -0.069748
    21  C    0.127463
    22  C    0.062025
    23  C    0.062583
    24  O   -0.238621
    25  C   -0.014755
    26  N   -0.406376
    27  C    0.092573
    28  C   -0.149181
    29  C   -0.119250
    30  C    0.092246
    31  C    0.027569
    32  C   -0.004788
    33  C   -0.085355
    34  N   -0.473232
    35  C    0.127171
    36  C   -0.170539
    37  C   -0.005762
    38  C    0.133437
    39  C    0.080273
    40  C    0.053247
    41  O   -0.208428
    42  C   -0.033957
    43  C    0.288997
    44  O   -0.272417
    45  O   -0.353163
    46  C    0.105589
    47  C    0.206375
    48  C   -0.102134
    49  C   -0.219991
    50  C    0.008208
    51  C    0.046283
    52  C   -0.077076
    53  C   -0.017403
    54  C   -0.254795
    55  C    0.013558
    56  C    0.012269
    57  C   -0.045833
    58  C    0.001334
    59  C   -0.186658
    60  C   -0.015839
    61  C   -0.015260
    62  C   -0.028154
    63  C   -0.041853
    64  C   -0.234722
    65  C    0.002042
    66  C   -0.014988
    67  H    0.006541
    68  H    0.027088
    69  H    0.011343
    70  H    0.079459
    71  H    0.052764
    72  H    0.058667
    73  H    0.033934
    74  H    0.052030
    75  H    0.037804
    76  H    0.046096
    77  H    0.056498
    78  H    0.050720
    79  H    0.072827
    80  H    0.043598
    81  H    0.052504
    82  H    0.059223
    83  H    0.062300
    84  H    0.064493
    85  H    0.051995
    86  H    0.040068
    87  H    0.036947
    88  H    0.041040
    89  H    0.050824
    90  H    0.044140
    91  H    0.033385
    92  H    0.039706
    93  H    0.044989
    94  H    0.057395
    95  H    0.038625
    96  H    0.074960
    97  H    0.056324
    98  H    0.070603
    99  H    0.057030
   100  H    0.064534
   101  H    0.063360
   102  H    0.058233
   103  H    0.060529
   104  H    0.036756
   105  H    0.059625
   106  H    0.041752
   107  H    0.054331
   108  H    0.030060
   109  H    0.040507
   110  H    0.035781
   111  H    0.035210
   112  H    0.037285
   113  H    0.025272
   114  H    0.032759
   115  H    0.031838
   116  H    0.018649
   117  H    0.032388
   118  H    0.028868
   119  H    0.010947
   120  H    0.024312
   121  H    0.019567
   122  H    0.037167
   123  H    0.024434
   124  H    0.030126
   125  H    0.024588
   126  H    0.029661
   127  H    0.035438
   128  H    0.018859
   129  H    0.031873
   130  H    0.025181
   131  H    0.027779
   132  H    0.028948
   133  H    0.019717
   134  H    0.035010
   135  H    0.032542
   136  H    0.030755
   137  H    0.027300
   138  H    0.033136
   139  H    0.033629
   140  H    0.032598
 Sum of Mulliken charges =  -0.00000

 Dipole moment (field-independent basis, Debye):
    X=              5.1135    Y=              4.4815    Z=             -2.4208  Tot=              7.2175
 Quadrupole moment (field-independent basis, Debye-Ang):
   XX=           -371.5793   YY=           -431.0348   ZZ=           -400.2574
   XY=            -17.2653   XZ=             16.4227   YZ=              2.3824

 Normal termination of Gaussian 16 at Fri Apr 29 02:04:17 2022.
