 Gaussian 16, Revision A.03,
 Gaussian 16:  ES64L-G16RevA.03 25-Dec-2016

 --------------------------------
 #p wB97XD/Def2SVP td=(nstates=5)
 --------------------------------

 ----------------------------------------------------
 step_1801_chromophore_6 TDDFT with wB97XD functional
 ----------------------------------------------------
 Symbolic Z-matrix:
 Charge =  0 Multiplicity = 1

                         Standard orientation:
 ---------------------------------------------------------------------
 Center     Atomic      Atomic             Coordinates (Angstroms)
 Number     Number       Type             X           Y           Z
 ---------------------------------------------------------------------
      1         12           0       -5.498373    1.062058   -0.117121
      2          6           0       -4.231656   -2.216859   -0.106744
      3          6           0       -2.281975    2.239099    0.031923
      4          6           0       -6.792627    4.084906    0.242046
      5          6           0       -8.800017   -0.435963   -0.031292
      6          7           0       -3.478288    0.065224   -0.087467
      7          6           0       -3.248433   -1.263233   -0.099118
      8          6           0       -1.777321   -1.526130   -0.181175
      9          6           0       -1.037856   -0.176290    0.103483
     10          6           0       -2.317706    0.776428    0.086109
     11          6           0       -0.231379    0.055255    1.343405
     12          6           0       -1.342291   -2.053663   -1.623164
     13          6           0       -0.383157   -3.277721   -1.655326
     14          6           0        0.450882   -3.632051   -0.394827
     15          8           0        0.566294   -4.715685    0.134637
     16          8           0        1.231059   -2.527770   -0.088917
     17          7           0       -4.622069    2.935652    0.059287
     18          6           0       -3.324897    3.209137   -0.026239
     19          6           0       -3.158560    4.684530   -0.091199
     20          6           0       -4.413738    5.207982    0.161777
     21          6           0       -5.352045    4.094688    0.188755
     22          6           0       -1.804207    5.190656   -0.279916
     23          6           0       -4.848343    6.739367    0.239512
     24          8           0       -5.998452    7.085520    0.481063
     25          6           0       -3.937111    7.894154    0.019093
     26          7           0       -7.478274    1.710830    0.052957
     27          6           0       -7.770570    3.004535    0.263101
     28          6           0       -9.277242    3.229173    0.368262
     29          6           0       -9.875389    1.795412    0.020607
     30          6           0       -8.604865    0.932144    0.022209
     31          6           0       -9.730353    3.823755    1.676735
     32          6           0      -10.774079    1.679665   -1.225843
     33          6           0      -12.207390    1.151976   -0.958859
     34          7           0       -6.358779   -0.865474   -0.056657
     35          6           0       -7.699258   -1.314390   -0.101830
     36          6           0       -7.824185   -2.769414   -0.149410
     37          6           0       -6.452401   -3.151222   -0.088135
     38          6           0       -5.613509   -1.995349   -0.067640
     39          6           0       -9.028661   -3.719034   -0.107670
     40          6           0       -5.544652   -4.212700   -0.182373
     41          8           0       -5.811755   -5.382305   -0.150100
     42          6           0       -4.116239   -3.733279   -0.281720
     43          6           0       -3.249322   -4.340484    0.760922
     44          8           0       -3.405761   -4.157337    1.978315
     45          8           0       -2.583751   -5.395839    0.177360
     46          6           0       -1.971760   -6.301861    1.161816
     47          6           0        2.409850   -2.732344    0.833753
     48          6           0        3.572186   -3.379746    0.100670
     49          6           0        4.790475   -3.513536    0.716236
     50          6           0        5.016212   -3.365299    2.238484
     51          6           0        5.931580   -3.973309   -0.129492
     52          6           0        7.150209   -3.034808   -0.067921
     53          6           0        7.358632   -2.257475   -1.461518
     54          6           0        7.996634   -0.862300   -1.336029
     55          6           0        7.836072   -0.070977   -2.624351
     56          6           0        9.471320   -0.860702   -0.977597
     57          6           0        9.917722    0.524590   -0.423846
     58          6           0       11.078058    1.210994   -1.234268
     59          6           0       11.828266    2.241843   -0.446502
     60          6           0       11.355095    3.613207   -0.898823
     61          6           0       13.388510    2.068002   -0.586272
     62          6           0       14.232841    2.934880    0.418584
     63          6           0       15.035423    2.083694    1.384311
     64          6           0       16.561110    2.123196    1.091857
     65          6           0       17.342609    1.478562    2.232300
     66          6           0       16.934488    1.486669   -0.246437
     67          1           0       -1.283647    2.647957    0.203813
     68          1           0       -7.222810    5.068568    0.442020
     69          1           0       -9.824827   -0.800764   -0.139349
     70          1           0       -1.476047   -2.285866    0.540028
     71          1           0       -0.491689    0.112540   -0.794071
     72          1           0       -0.727649    0.748522    2.022291
     73          1           0        0.689314    0.518316    0.987000
     74          1           0        0.020899   -0.944965    1.693820
     75          1           0       -0.816742   -1.262273   -2.158620
     76          1           0       -2.150446   -2.344265   -2.293801
     77          1           0        0.284655   -3.304836   -2.515958
     78          1           0       -0.925771   -4.177028   -1.944978
     79          1           0       -1.386223    5.426934    0.698688
     80          1           0       -1.846716    6.055920   -0.940875
     81          1           0       -1.250005    4.427949   -0.825824
     82          1           0       -3.113175    7.875586    0.732573
     83          1           0       -4.550234    8.782702    0.169369
     84          1           0       -3.560904    7.864073   -1.003708
     85          1           0       -9.601756    3.969503   -0.363538
     86          1           0      -10.453113    1.448277    0.877008
     87          1           0      -10.234635    3.047745    2.252603
     88          1           0      -10.399469    4.658580    1.468704
     89          1           0       -8.888682    4.216839    2.246337
     90          1           0      -10.368594    1.049207   -2.017967
     91          1           0      -10.738492    2.712687   -1.570832
     92          1           0      -12.641868    2.060817   -0.541967
     93          1           0      -12.288544    0.460989   -0.120610
     94          1           0      -12.708721    0.783488   -1.854271
     95          1           0       -9.978792   -3.219366    0.078150
     96          1           0       -8.727224   -4.484345    0.607625
     97          1           0       -9.125973   -4.235961   -1.062783
     98          1           0       -3.754985   -3.954535   -1.285510
     99          1           0       -2.469312   -7.270629    1.211839
    100          1           0       -1.832120   -5.955367    2.186166
    101          1           0       -0.962331   -6.471638    0.788876
    102          1           0        1.986413   -3.367260    1.612694
    103          1           0        2.679998   -1.836607    1.392648
    104          1           0        3.528576   -3.392195   -0.988437
    105          1           0        5.339178   -2.362527    2.518390
    106          1           0        5.843817   -4.054555    2.406957
    107          1           0        4.215226   -3.646309    2.922048
    108          1           0        5.532046   -4.111792   -1.133349
    109          1           0        6.265865   -4.959001    0.193392
    110          1           0        8.040152   -3.639170    0.112047
    111          1           0        7.185599   -2.253697    0.691700
    112          1           0        6.504154   -2.214671   -2.136079
    113          1           0        8.116225   -2.930563   -1.862767
    114          1           0        7.395660   -0.372439   -0.569985
    115          1           0        7.512522   -0.693626   -3.458173
    116          1           0        8.787704    0.331417   -2.971575
    117          1           0        7.259149    0.837651   -2.454446
    118          1           0       10.108256   -1.202489   -1.793680
    119          1           0        9.529331   -1.659774   -0.239526
    120          1           0       10.144287    0.456072    0.639729
    121          1           0        9.056953    1.192011   -0.386759
    122          1           0       10.674790    1.574760   -2.179804
    123          1           0       11.730873    0.356322   -1.414910
    124          1           0       11.582694    2.279086    0.614617
    125          1           0       11.740028    3.916657   -1.872686
    126          1           0       11.746561    4.327581   -0.174403
    127          1           0       10.273703    3.662454   -1.023031
    128          1           0       13.693143    2.284053   -1.610219
    129          1           0       13.669878    1.018230   -0.505866
    130          1           0       13.611848    3.545826    1.074548
    131          1           0       14.857510    3.655408   -0.108885
    132          1           0       14.703428    1.046215    1.426211
    133          1           0       14.807354    2.546548    2.344913
    134          1           0       16.691492    3.205253    1.117271
    135          1           0       18.282814    1.089256    1.841337
    136          1           0       16.781194    0.698192    2.746212
    137          1           0       17.545765    2.189267    3.032351
    138          1           0       17.839140    0.878570   -0.203886
    139          1           0       17.081180    2.285692   -0.972551
    140          1           0       16.213531    0.843656   -0.751045
 ---------------------------------------------------------------------

 SCF Done:  E(RwB97XD) =  -3007.87892219     A.U. after   19 cycles

 Excitation energies and oscillator strengths:

 Excited State   1:      Singlet-A      1.7033 eV  727.91 nm  f=0.3752  <S**2>=0.000
     245 -> 248       -0.19506
     246 -> 247        0.68113
     245 <- 248       -0.11702
 This state for optimization and/or second-order correction.
 Total Energy, E(TD-HF/TD-DFT) =  -3007.81632736
 Copying the excited state density for this state as the 1-particle RhoCI density.

 Excited State   2:      Singlet-A      2.1972 eV  564.28 nm  f=0.0872  <S**2>=0.000
     245 -> 247        0.62516
     246 -> 248        0.31914

 Excited State   3:      Singlet-A      3.4944 eV  354.81 nm  f=0.0051  <S**2>=0.000
     241 -> 247       -0.12512
     243 -> 247       -0.23754
     243 -> 249       -0.13725
     243 -> 250        0.16388
     244 -> 247        0.57610
     244 -> 249        0.12899

 Excited State   4:      Singlet-A      3.5026 eV  353.97 nm  f=0.7211  <S**2>=0.000
     239 -> 247       -0.12198
     241 -> 247       -0.16716
     245 -> 247       -0.29179
     246 -> 248        0.60358
     245 <- 247        0.11646

 Excited State   5:      Singlet-A      3.5574 eV  348.53 nm  f=0.0036  <S**2>=0.000
     241 -> 247       -0.17895
     243 -> 247        0.53165
     243 -> 249        0.18848
     243 -> 250       -0.17285
     244 -> 247        0.29842

 The electronic state is 1-A.
 Alpha  occ. eigenvalues --  -46.94705 -19.30110 -19.29605 -19.25672 -19.24653
 Alpha  occ. eigenvalues --  -19.23764 -19.21531 -14.46453 -14.46419 -14.44126
 Alpha  occ. eigenvalues --  -14.43194 -10.43869 -10.42134 -10.40020 -10.36569
 Alpha  occ. eigenvalues --  -10.36224 -10.35885 -10.35477 -10.35028 -10.34336
 Alpha  occ. eigenvalues --  -10.33781 -10.33546 -10.32889 -10.32802 -10.32785
 Alpha  occ. eigenvalues --  -10.32351 -10.32120 -10.32005 -10.31806 -10.31727
 Alpha  occ. eigenvalues --  -10.31666 -10.31627 -10.31525 -10.31507 -10.31175
 Alpha  occ. eigenvalues --  -10.31169 -10.30993 -10.30943 -10.30805 -10.30668
 Alpha  occ. eigenvalues --  -10.30634 -10.30398 -10.30382 -10.30173 -10.30120
 Alpha  occ. eigenvalues --  -10.30094 -10.29970 -10.29838 -10.29539 -10.29523
 Alpha  occ. eigenvalues --  -10.29419 -10.29407 -10.29313 -10.29225 -10.29186
 Alpha  occ. eigenvalues --  -10.29080 -10.29044 -10.28880 -10.28786 -10.28763
 Alpha  occ. eigenvalues --  -10.28308 -10.28292 -10.28085 -10.28076 -10.27951
 Alpha  occ. eigenvalues --  -10.27527  -3.20638  -1.94250  -1.93748  -1.93616
 Alpha  occ. eigenvalues --   -1.18022  -1.16741  -1.13077  -1.11559  -1.10133
 Alpha  occ. eigenvalues --   -1.08202  -1.06371  -1.05374  -1.05359  -1.03357
 Alpha  occ. eigenvalues --   -0.94106  -0.92786  -0.92005  -0.91211  -0.90947
 Alpha  occ. eigenvalues --   -0.90750  -0.90352  -0.89855  -0.89339  -0.88944
 Alpha  occ. eigenvalues --   -0.87567  -0.87256  -0.86118  -0.85416  -0.84847
 Alpha  occ. eigenvalues --   -0.84425  -0.84170  -0.83083  -0.82643  -0.81760
 Alpha  occ. eigenvalues --   -0.81647  -0.80485  -0.79988  -0.78766  -0.78482
 Alpha  occ. eigenvalues --   -0.77508  -0.77239  -0.76867  -0.76436  -0.76362
 Alpha  occ. eigenvalues --   -0.75445  -0.74318  -0.72969  -0.72545  -0.70665
 Alpha  occ. eigenvalues --   -0.70532  -0.69819  -0.69094  -0.68720  -0.67675
 Alpha  occ. eigenvalues --   -0.67384  -0.66979  -0.66480  -0.65882  -0.65849
 Alpha  occ. eigenvalues --   -0.65027  -0.64814  -0.64693  -0.63427  -0.62474
 Alpha  occ. eigenvalues --   -0.62119  -0.61287  -0.60933  -0.60257  -0.59536
 Alpha  occ. eigenvalues --   -0.59060  -0.58254  -0.58181  -0.57460  -0.56960
 Alpha  occ. eigenvalues --   -0.56858  -0.56568  -0.56167  -0.55814  -0.55465
 Alpha  occ. eigenvalues --   -0.55422  -0.55346  -0.55082  -0.55041  -0.54966
 Alpha  occ. eigenvalues --   -0.54639  -0.54118  -0.54008  -0.53824  -0.53719
 Alpha  occ. eigenvalues --   -0.53592  -0.53442  -0.53199  -0.53092  -0.52720
 Alpha  occ. eigenvalues --   -0.52475  -0.52089  -0.51845  -0.51770  -0.51503
 Alpha  occ. eigenvalues --   -0.51373  -0.51233  -0.50937  -0.50733  -0.50435
 Alpha  occ. eigenvalues --   -0.50373  -0.50144  -0.50120  -0.49794  -0.49768
 Alpha  occ. eigenvalues --   -0.49289  -0.49224  -0.48967  -0.48848  -0.48660
 Alpha  occ. eigenvalues --   -0.48480  -0.47948  -0.47829  -0.47695  -0.47436
 Alpha  occ. eigenvalues --   -0.47381  -0.47245  -0.46980  -0.46665  -0.46631
 Alpha  occ. eigenvalues --   -0.46377  -0.46216  -0.45895  -0.45857  -0.45603
 Alpha  occ. eigenvalues --   -0.45347  -0.45214  -0.45099  -0.44881  -0.44853
 Alpha  occ. eigenvalues --   -0.44696  -0.44497  -0.44427  -0.44339  -0.44079
 Alpha  occ. eigenvalues --   -0.43562  -0.43389  -0.43236  -0.43200  -0.43073
 Alpha  occ. eigenvalues --   -0.42867  -0.42567  -0.42354  -0.42187  -0.41860
 Alpha  occ. eigenvalues --   -0.41824  -0.41667  -0.41469  -0.41163  -0.41032
 Alpha  occ. eigenvalues --   -0.40415  -0.40335  -0.40037  -0.39344  -0.39333
 Alpha  occ. eigenvalues --   -0.39009  -0.38487  -0.38453  -0.38179  -0.37951
 Alpha  occ. eigenvalues --   -0.37753  -0.37527  -0.37173  -0.36458  -0.36228
 Alpha  occ. eigenvalues --   -0.35810  -0.35405  -0.34990  -0.33638  -0.33381
 Alpha  occ. eigenvalues --   -0.32476  -0.31939  -0.31240  -0.30878  -0.25527
 Alpha  occ. eigenvalues --   -0.22438
 Alpha virt. eigenvalues --   -0.06315   0.00393   0.02836   0.05083   0.06333
 Alpha virt. eigenvalues --    0.06459   0.06892   0.07337   0.08894   0.09209
 Alpha virt. eigenvalues --    0.10274   0.12050   0.12377   0.12498   0.12674

 Mulliken charges:
               1
     1  Mg   0.969114
     2  C   -0.018090
     3  C   -0.098496
     4  C   -0.062596
     5  C   -0.095547
     6  N   -0.336072
     7  C    0.021212
     8  C   -0.131951
     9  C   -0.082179
    10  C    0.017787
    11  C    0.067266
    12  C    0.051847
    13  C   -0.012500
    14  C    0.199381
    15  O   -0.227407
    16  O   -0.402190
    17  N   -0.447861
    18  C    0.134455
    19  C   -0.187646
    20  C   -0.062255
    21  C    0.122821
    22  C    0.075400
    23  C    0.057863
    24  O   -0.232739
    25  C   -0.006445
    26  N   -0.371407
    27  C    0.083815
    28  C   -0.123357
    29  C   -0.090643
    30  C    0.077902
    31  C    0.036178
    32  C    0.008007
    33  C   -0.067261
    34  N   -0.436779
    35  C    0.124431
    36  C   -0.179661
    37  C    0.003417
    38  C    0.109328
    39  C    0.093733
    40  C    0.030946
    41  O   -0.200661
    42  C    0.009908
    43  C    0.262688
    44  O   -0.267095
    45  O   -0.349865
    46  C    0.120682
    47  C    0.221459
    48  C   -0.110210
    49  C   -0.210980
    50  C    0.019924
    51  C    0.067013
    52  C   -0.062665
    53  C   -0.001933
    54  C   -0.222464
    55  C    0.023864
    56  C    0.030722
    57  C   -0.031360
    58  C    0.020136
    59  C   -0.154533
    60  C   -0.004798
    61  C   -0.000594
    62  C   -0.014049
    63  C   -0.027624
    64  C   -0.201293
    65  C    0.014461
    66  C   -0.005914
    67  H   -0.000277
    68  H    0.022046
    69  H    0.004401
    70  H    0.059506
    71  H    0.041816
    72  H    0.053316
    73  H    0.028812
    74  H    0.043002
    75  H    0.029743
    76  H    0.039009
    77  H    0.051433
    78  H    0.044134
    79  H    0.070503
    80  H    0.038465
    81  H    0.048471
    82  H    0.055529
    83  H    0.062090
    84  H    0.060506
    85  H    0.041824
    86  H    0.024499
    87  H    0.031872
    88  H    0.036657
    89  H    0.044295
    90  H    0.036352
    91  H    0.023139
    92  H    0.031240
    93  H    0.038494
    94  H    0.053295
    95  H    0.032461
    96  H    0.069947
    97  H    0.050262
    98  H    0.061572
    99  H    0.053527
   100  H    0.060730
   101  H    0.058427
   102  H    0.052660
   103  H    0.056521
   104  H    0.033021
   105  H    0.054452
   106  H    0.035729
   107  H    0.050468
   108  H    0.022005
   109  H    0.033792
   110  H    0.029131
   111  H    0.024001
   112  H    0.028667
   113  H    0.014519
   114  H    0.019211
   115  H    0.026831
   116  H    0.008092
   117  H    0.027602
   118  H    0.019754
   119  H    0.000112
   120  H    0.017097
   121  H    0.008188
   122  H    0.027615
   123  H    0.012908
   124  H    0.017247
   125  H    0.017855
   126  H    0.022700
   127  H    0.029013
   128  H    0.010433
   129  H    0.019665
   130  H    0.016072
   131  H    0.019875
   132  H    0.018468
   133  H    0.012008
   134  H    0.023072
   135  H    0.026074
   136  H    0.024491
   137  H    0.021817
   138  H    0.027576
   139  H    0.027786
   140  H    0.025735
 Sum of Mulliken charges =  -0.00000

 Dipole moment (field-independent basis, Debye):
    X=              5.4720    Y=              5.2445    Z=             -2.4114  Tot=              7.9537
 Quadrupole moment (field-independent basis, Debye-Ang):
   XX=           -375.7682   YY=           -428.2868   ZZ=           -399.9281
   XY=            -20.4754   XZ=             16.4314   YZ=              2.3590

 Normal termination of Gaussian 16 at Fri Apr 29 02:26:09 2022.
