 Gaussian 16, Revision A.03,
 Gaussian 16:  ES64L-G16RevA.03 25-Dec-2016

 --------------------
 #p ZINDO=(nstates=5)
 --------------------

 -----------------------------
 step_1801_chromophore_6 ZINDO
 -----------------------------
 Symbolic Z-matrix:
 Charge =  0 Multiplicity = 1

                         Standard orientation:
 ---------------------------------------------------------------------
 Center     Atomic      Atomic             Coordinates (Angstroms)
 Number     Number       Type             X           Y           Z
 ---------------------------------------------------------------------
      1         12           0       -5.498373    1.062058   -0.117121
      2          6           0       -4.231656   -2.216859   -0.106744
      3          6           0       -2.281975    2.239099    0.031923
      4          6           0       -6.792627    4.084906    0.242046
      5          6           0       -8.800017   -0.435963   -0.031292
      6          7           0       -3.478288    0.065224   -0.087467
      7          6           0       -3.248433   -1.263233   -0.099118
      8          6           0       -1.777321   -1.526130   -0.181175
      9          6           0       -1.037856   -0.176290    0.103483
     10          6           0       -2.317706    0.776428    0.086109
     11          6           0       -0.231379    0.055255    1.343405
     12          6           0       -1.342291   -2.053663   -1.623164
     13          6           0       -0.383157   -3.277721   -1.655326
     14          6           0        0.450882   -3.632051   -0.394827
     15          8           0        0.566294   -4.715685    0.134637
     16          8           0        1.231059   -2.527770   -0.088917
     17          7           0       -4.622069    2.935652    0.059287
     18          6           0       -3.324897    3.209137   -0.026239
     19          6           0       -3.158560    4.684530   -0.091199
     20          6           0       -4.413738    5.207982    0.161777
     21          6           0       -5.352045    4.094688    0.188755
     22          6           0       -1.804207    5.190656   -0.279916
     23          6           0       -4.848343    6.739367    0.239512
     24          8           0       -5.998452    7.085520    0.481063
     25          6           0       -3.937111    7.894154    0.019093
     26          7           0       -7.478274    1.710830    0.052957
     27          6           0       -7.770570    3.004535    0.263101
     28          6           0       -9.277242    3.229173    0.368262
     29          6           0       -9.875389    1.795412    0.020607
     30          6           0       -8.604865    0.932144    0.022209
     31          6           0       -9.730353    3.823755    1.676735
     32          6           0      -10.774079    1.679665   -1.225843
     33          6           0      -12.207390    1.151976   -0.958859
     34          7           0       -6.358779   -0.865474   -0.056657
     35          6           0       -7.699258   -1.314390   -0.101830
     36          6           0       -7.824185   -2.769414   -0.149410
     37          6           0       -6.452401   -3.151222   -0.088135
     38          6           0       -5.613509   -1.995349   -0.067640
     39          6           0       -9.028661   -3.719034   -0.107670
     40          6           0       -5.544652   -4.212700   -0.182373
     41          8           0       -5.811755   -5.382305   -0.150100
     42          6           0       -4.116239   -3.733279   -0.281720
     43          6           0       -3.249322   -4.340484    0.760922
     44          8           0       -3.405761   -4.157337    1.978315
     45          8           0       -2.583751   -5.395839    0.177360
     46          6           0       -1.971760   -6.301861    1.161816
     47          6           0        2.409850   -2.732344    0.833753
     48          6           0        3.572186   -3.379746    0.100670
     49          6           0        4.790475   -3.513536    0.716236
     50          6           0        5.016212   -3.365299    2.238484
     51          6           0        5.931580   -3.973309   -0.129492
     52          6           0        7.150209   -3.034808   -0.067921
     53          6           0        7.358632   -2.257475   -1.461518
     54          6           0        7.996634   -0.862300   -1.336029
     55          6           0        7.836072   -0.070977   -2.624351
     56          6           0        9.471320   -0.860702   -0.977597
     57          6           0        9.917722    0.524590   -0.423846
     58          6           0       11.078058    1.210994   -1.234268
     59          6           0       11.828266    2.241843   -0.446502
     60          6           0       11.355095    3.613207   -0.898823
     61          6           0       13.388510    2.068002   -0.586272
     62          6           0       14.232841    2.934880    0.418584
     63          6           0       15.035423    2.083694    1.384311
     64          6           0       16.561110    2.123196    1.091857
     65          6           0       17.342609    1.478562    2.232300
     66          6           0       16.934488    1.486669   -0.246437
     67          1           0       -1.283647    2.647957    0.203813
     68          1           0       -7.222810    5.068568    0.442020
     69          1           0       -9.824827   -0.800764   -0.139349
     70          1           0       -1.476047   -2.285866    0.540028
     71          1           0       -0.491689    0.112540   -0.794071
     72          1           0       -0.727649    0.748522    2.022291
     73          1           0        0.689314    0.518316    0.987000
     74          1           0        0.020899   -0.944965    1.693820
     75          1           0       -0.816742   -1.262273   -2.158620
     76          1           0       -2.150446   -2.344265   -2.293801
     77          1           0        0.284655   -3.304836   -2.515958
     78          1           0       -0.925771   -4.177028   -1.944978
     79          1           0       -1.386223    5.426934    0.698688
     80          1           0       -1.846716    6.055920   -0.940875
     81          1           0       -1.250005    4.427949   -0.825824
     82          1           0       -3.113175    7.875586    0.732573
     83          1           0       -4.550234    8.782702    0.169369
     84          1           0       -3.560904    7.864073   -1.003708
     85          1           0       -9.601756    3.969503   -0.363538
     86          1           0      -10.453113    1.448277    0.877008
     87          1           0      -10.234635    3.047745    2.252603
     88          1           0      -10.399469    4.658580    1.468704
     89          1           0       -8.888682    4.216839    2.246337
     90          1           0      -10.368594    1.049207   -2.017967
     91          1           0      -10.738492    2.712687   -1.570832
     92          1           0      -12.641868    2.060817   -0.541967
     93          1           0      -12.288544    0.460989   -0.120610
     94          1           0      -12.708721    0.783488   -1.854271
     95          1           0       -9.978792   -3.219366    0.078150
     96          1           0       -8.727224   -4.484345    0.607625
     97          1           0       -9.125973   -4.235961   -1.062783
     98          1           0       -3.754985   -3.954535   -1.285510
     99          1           0       -2.469312   -7.270629    1.211839
    100          1           0       -1.832120   -5.955367    2.186166
    101          1           0       -0.962331   -6.471638    0.788876
    102          1           0        1.986413   -3.367260    1.612694
    103          1           0        2.679998   -1.836607    1.392648
    104          1           0        3.528576   -3.392195   -0.988437
    105          1           0        5.339178   -2.362527    2.518390
    106          1           0        5.843817   -4.054555    2.406957
    107          1           0        4.215226   -3.646309    2.922048
    108          1           0        5.532046   -4.111792   -1.133349
    109          1           0        6.265865   -4.959001    0.193392
    110          1           0        8.040152   -3.639170    0.112047
    111          1           0        7.185599   -2.253697    0.691700
    112          1           0        6.504154   -2.214671   -2.136079
    113          1           0        8.116225   -2.930563   -1.862767
    114          1           0        7.395660   -0.372439   -0.569985
    115          1           0        7.512522   -0.693626   -3.458173
    116          1           0        8.787704    0.331417   -2.971575
    117          1           0        7.259149    0.837651   -2.454446
    118          1           0       10.108256   -1.202489   -1.793680
    119          1           0        9.529331   -1.659774   -0.239526
    120          1           0       10.144287    0.456072    0.639729
    121          1           0        9.056953    1.192011   -0.386759
    122          1           0       10.674790    1.574760   -2.179804
    123          1           0       11.730873    0.356322   -1.414910
    124          1           0       11.582694    2.279086    0.614617
    125          1           0       11.740028    3.916657   -1.872686
    126          1           0       11.746561    4.327581   -0.174403
    127          1           0       10.273703    3.662454   -1.023031
    128          1           0       13.693143    2.284053   -1.610219
    129          1           0       13.669878    1.018230   -0.505866
    130          1           0       13.611848    3.545826    1.074548
    131          1           0       14.857510    3.655408   -0.108885
    132          1           0       14.703428    1.046215    1.426211
    133          1           0       14.807354    2.546548    2.344913
    134          1           0       16.691492    3.205253    1.117271
    135          1           0       18.282814    1.089256    1.841337
    136          1           0       16.781194    0.698192    2.746212
    137          1           0       17.545765    2.189267    3.032351
    138          1           0       17.839140    0.878570   -0.203886
    139          1           0       17.081180    2.285692   -0.972551
    140          1           0       16.213531    0.843656   -0.751045
 ---------------------------------------------------------------------

 SCF Done:  E(RZINDO/S) =  -474.368150742     A.U. after   19 cycles

 Excitation energies and oscillator strengths:

 Excited State   1:      Singlet-A      1.3193 eV  939.78 nm  f=0.5692  <S**2>=0.000
     175 ->178         0.18509
     176 ->177         0.66624
 This state for optimization and/or second-order correction.
 Total Energy, E(CIS/TDA) =  -474.319667957
 Copying the excited state density for this state as the 1-particle RhoCI density.

 Excited State   2:      Singlet-A      1.9379 eV  639.77 nm  f=0.0183  <S**2>=0.000
     175 ->177         0.51735
     176 ->178        -0.45511

 Excited State   3:      Singlet-A      2.9174 eV  424.99 nm  f=0.0053  <S**2>=0.000
     171 ->177         0.32489
     171 ->178        -0.12009
     171 ->179         0.26008
     171 ->180        -0.31819
     171 ->182         0.19595
     171 ->186        -0.18605
     171 ->189         0.19347
     171 ->205        -0.14699

 Excited State   4:      Singlet-A      2.9425 eV  421.35 nm  f=0.0004  <S**2>=0.000
     167 ->179         0.18996
     168 ->177        -0.23502
     168 ->179         0.42744
     168 ->180         0.21440
     168 ->182        -0.15993
     168 ->184         0.10297
     168 ->186        -0.19982
     169 ->179        -0.11195

 Excited State   5:      Singlet-A      3.0088 eV  412.07 nm  f=1.0631  <S**2>=0.000
     175 ->177         0.40077
     176 ->178         0.47732
     176 ->179        -0.19769
     176 ->180         0.12607

 The electronic state is 1-A.
 Alpha  occ. eigenvalues --   -1.82996  -1.81766  -1.79973  -1.72733  -1.71251
 Alpha  occ. eigenvalues --   -1.69046  -1.66326  -1.62348  -1.60548  -1.59067
 Alpha  occ. eigenvalues --   -1.56231  -1.52314  -1.48091  -1.47723  -1.46129
 Alpha  occ. eigenvalues --   -1.45095  -1.42470  -1.41091  -1.39776  -1.37888
 Alpha  occ. eigenvalues --   -1.36942  -1.32731  -1.31846  -1.31044  -1.28874
 Alpha  occ. eigenvalues --   -1.26952  -1.24460  -1.21960  -1.19482  -1.18358
 Alpha  occ. eigenvalues --   -1.17101  -1.16644  -1.16542  -1.15308  -1.13262
 Alpha  occ. eigenvalues --   -1.12016  -1.11251  -1.10338  -1.04666  -1.03867
 Alpha  occ. eigenvalues --   -1.02659  -1.01188  -0.98580  -0.97250  -0.96764
 Alpha  occ. eigenvalues --   -0.96183  -0.94829  -0.93691  -0.92921  -0.91344
 Alpha  occ. eigenvalues --   -0.89951  -0.89873  -0.89732  -0.89074  -0.88458
 Alpha  occ. eigenvalues --   -0.86076  -0.83662  -0.82847  -0.81177  -0.80659
 Alpha  occ. eigenvalues --   -0.78910  -0.78418  -0.76937  -0.76059  -0.75695
 Alpha  occ. eigenvalues --   -0.75683  -0.75185  -0.74958  -0.73872  -0.73276
 Alpha  occ. eigenvalues --   -0.72603  -0.72331  -0.71845  -0.71322  -0.70339
 Alpha  occ. eigenvalues --   -0.70059  -0.69552  -0.68909  -0.68575  -0.68120
 Alpha  occ. eigenvalues --   -0.67817  -0.67556  -0.67168  -0.66340  -0.65702
 Alpha  occ. eigenvalues --   -0.65375  -0.64725  -0.64397  -0.64119  -0.63604
 Alpha  occ. eigenvalues --   -0.63453  -0.62803  -0.62005  -0.61652  -0.61101
 Alpha  occ. eigenvalues --   -0.60935  -0.60671  -0.60504  -0.60340  -0.60184
 Alpha  occ. eigenvalues --   -0.59462  -0.59334  -0.59012  -0.58595  -0.58118
 Alpha  occ. eigenvalues --   -0.57951  -0.57626  -0.57253  -0.56443  -0.56411
 Alpha  occ. eigenvalues --   -0.55942  -0.55324  -0.54749  -0.54370  -0.54190
 Alpha  occ. eigenvalues --   -0.53787  -0.53590  -0.53341  -0.52976  -0.52666
 Alpha  occ. eigenvalues --   -0.52427  -0.52133  -0.51958  -0.51660  -0.51370
 Alpha  occ. eigenvalues --   -0.51281  -0.50942  -0.50658  -0.50345  -0.50172
 Alpha  occ. eigenvalues --   -0.49712  -0.49534  -0.49483  -0.49359  -0.49346
 Alpha  occ. eigenvalues --   -0.49021  -0.48473  -0.48207  -0.48151  -0.47997
 Alpha  occ. eigenvalues --   -0.47140  -0.46697  -0.46448  -0.46171  -0.46112
 Alpha  occ. eigenvalues --   -0.45916  -0.45678  -0.45592  -0.45493  -0.45332
 Alpha  occ. eigenvalues --   -0.44830  -0.44519  -0.44434  -0.44034  -0.43844
 Alpha  occ. eigenvalues --   -0.43590  -0.43490  -0.43266  -0.42129  -0.42110
 Alpha  occ. eigenvalues --   -0.41848  -0.40827  -0.40313  -0.38837  -0.38392
 Alpha  occ. eigenvalues --   -0.37345  -0.36560  -0.35871  -0.35126  -0.33878
 Alpha  occ. eigenvalues --   -0.32690  -0.32187  -0.32021  -0.31249  -0.26442
 Alpha  occ. eigenvalues --   -0.21368
 Alpha virt. eigenvalues --   -0.07789  -0.01940  -0.00202   0.01443   0.02062
 Alpha virt. eigenvalues --    0.02841   0.03008   0.03178   0.03946   0.04760
 Alpha virt. eigenvalues --    0.05948   0.06849   0.07317   0.07776   0.08245

 Mulliken charges:
               1
     1  Mg   0.424202
     2  C   -0.041185
     3  C   -0.111968
     4  C   -0.082210
     5  C   -0.056218
     6  N   -0.283648
     7  C    0.115332
     8  C    0.015750
     9  C    0.007639
    10  C    0.138637
    11  C   -0.044955
    12  C   -0.023758
    13  C   -0.004700
    14  C    0.472096
    15  O   -0.496610
    16  O   -0.300855
    17  N   -0.316157
    18  C    0.138298
    19  C    0.028834
    20  C   -0.028266
    21  C    0.137571
    22  C   -0.035845
    23  C    0.320119
    24  O   -0.510929
    25  C   -0.022294
    26  N   -0.249845
    27  C    0.163892
    28  C    0.007334
    29  C   -0.011413
    30  C    0.085420
    31  C   -0.046477
    32  C   -0.027760
    33  C   -0.062320
    34  N   -0.331037
    35  C    0.066414
    36  C    0.006561
    37  C   -0.066981
    38  C    0.105218
    39  C   -0.033876
    40  C    0.344078
    41  O   -0.541284
    42  C    0.058650
    43  C    0.482403
    44  O   -0.521804
    45  O   -0.255153
    46  C    0.070494
    47  C    0.098833
    48  C   -0.096576
    49  C    0.000872
    50  C   -0.044023
    51  C   -0.010562
    52  C   -0.036117
    53  C   -0.049671
    54  C   -0.006453
    55  C   -0.060548
    56  C   -0.027524
    57  C   -0.041684
    58  C   -0.028662
    59  C   -0.004332
    60  C   -0.055830
    61  C   -0.037500
    62  C   -0.038515
    63  C   -0.033343
    64  C   -0.005638
    65  C   -0.057393
    66  C   -0.053387
    67  H    0.018301
    68  H    0.041157
    69  H    0.038678
    70  H    0.041367
    71  H    0.033437
    72  H    0.036192
    73  H    0.014238
    74  H    0.035378
    75  H    0.021051
    76  H    0.026836
    77  H    0.041351
    78  H    0.029846
    79  H    0.043936
    80  H    0.023237
    81  H    0.031847
    82  H    0.034589
    83  H    0.043686
    84  H    0.036891
    85  H    0.030786
    86  H    0.025288
    87  H    0.023587
    88  H    0.020215
    89  H    0.025085
    90  H    0.020758
    91  H    0.020023
    92  H    0.013941
    93  H    0.025370
    94  H    0.028938
    95  H    0.026169
    96  H    0.043806
    97  H    0.030768
    98  H    0.050332
    99  H    0.039899
   100  H    0.051749
   101  H    0.032689
   102  H    0.047719
   103  H    0.043225
   104  H    0.040849
   105  H    0.030497
   106  H    0.018755
   107  H    0.032491
   108  H    0.024998
   109  H    0.024112
   110  H    0.016736
   111  H    0.025603
   112  H    0.029239
   113  H    0.012449
   114  H    0.017545
   115  H    0.021724
   116  H    0.009587
   117  H    0.017438
   118  H    0.024594
   119  H    0.007577
   120  H    0.017303
   121  H    0.012765
   122  H    0.028427
   123  H    0.012256
   124  H    0.023754
   125  H    0.013305
   126  H    0.012803
   127  H    0.017766
   128  H    0.014476
   129  H    0.017830
   130  H    0.014398
   131  H    0.020849
   132  H    0.020413
   133  H    0.009657
   134  H    0.023619
   135  H    0.019048
   136  H    0.019049
   137  H    0.012090
   138  H    0.018572
   139  H    0.011446
   140  H    0.020278
 Sum of Mulliken charges =  -0.00000

 Dipole moment (field-independent basis, Debye):
    X=              7.7992    Y=              9.3905    Z=             -4.0962  Tot=             12.8758
 N-N= 4.272322132972D+03 E-N= 0.000000000000D+00  KE=-9.219547312116D+03
 Leave Link  601 at Fri Apr 29 02:38:49 2022, MaxMem=  6710886400 cpu:               0.8 elap:               0.0
 (Enter /sw/apps/gaussian-16.0/g16/l9999.exe)
 1\1\GINC-BP1-COMPUTE154\SP\RZINDO CIS\STO-3G\C55H74Mg1N4O6\OF15641\29-
 Apr-2022\0\\#p ZINDO=(nstates=5)\\step_1801_chromophore_6 ZINDO\\0,1\M
 g,0,17.97,-1.859,27.603\C,0,17.189,0.23,30.32\C,0,19.886,-3.773,29.705
 \C,0,18.94,-3.541,24.925\C,0,16.083,0.458,25.548\N,0,18.427,-1.765,29.
 807\C,0,17.981,-0.831,30.671\C,0,18.414,-1.174,32.062\C,0,19.491,-2.30
 5,31.958\C,0,19.331,-2.61,30.4\C,0,20.931,-2.081,32.301\C,0,17.201,-1.
 703,32.954\C,0,17.08,-1.108,34.386\C,0,18.314,-0.433,35.043\O,0,18.362

 Normal termination of Gaussian 16 at Fri Apr 29 02:38:50 2022.
