 Gaussian 16, Revision A.03,
 Gaussian 16:  ES64L-G16RevA.03 25-Dec-2016

 ------------------------------
 #p blyp/Def2SVP td=(nstates=5)
 ------------------------------

 ---------------------------------------------------
 step_1701_chromophore_19 TDDFT with blyp functional
 ---------------------------------------------------
 Symbolic Z-matrix:
 Charge =  0 Multiplicity = 1

                         Standard orientation:
 ---------------------------------------------------------------------
 Center     Atomic      Atomic             Coordinates (Angstroms)
 Number     Number       Type             X           Y           Z
 ---------------------------------------------------------------------
      1         12           0       -5.994751    0.338634   -0.206335
      2          6           0       -3.711156   -2.202798   -0.363782
      3          6           0       -3.553404    2.541554    0.190948
      4          6           0       -8.354800    2.674469    0.467750
      5          6           0       -8.505113   -2.183187    0.006464
      6          7           0       -3.933331    0.102135    0.075571
      7          6           0       -3.180555   -0.978238   -0.176151
      8          6           0       -1.692668   -0.596619   -0.253022
      9          6           0       -1.650078    0.823861    0.385952
     10          6           0       -3.144068    1.206908    0.277485
     11          6           0       -1.114167    1.084137    1.836775
     12          6           0       -0.946322   -0.721325   -1.701994
     13          6           0        0.528116   -1.151885   -1.793689
     14          6           0        1.483297   -1.223586   -0.487786
     15          8           0        1.176637   -0.947571    0.663730
     16          8           0        2.760329   -1.625274   -0.879568
     17          7           0       -5.937694    2.377298    0.140222
     18          6           0       -4.816102    3.133538    0.171979
     19          6           0       -5.149942    4.544871    0.309901
     20          6           0       -6.625208    4.596278    0.391072
     21          6           0       -7.062121    3.183463    0.353948
     22          6           0       -4.135972    5.641701    0.203724
     23          6           0       -7.498288    5.871575    0.555154
     24          8           0       -8.734342    5.853756    0.556888
     25          6           0       -6.925641    7.205351    0.529726
     26          7           0       -8.040836    0.237973    0.338501
     27          6           0       -8.818468    1.344221    0.433924
     28          6           0      -10.224194    1.007187    0.822826
     29          6           0      -10.298959   -0.492767    0.543816
     30          6           0       -8.860233   -0.910367    0.207206
     31          6           0      -10.504510    1.430485    2.297025
     32          6           0      -11.420280   -0.827594   -0.550319
     33          6           0      -10.905904   -0.942360   -2.011793
     34          7           0       -6.139737   -1.790947   -0.285418
     35          6           0       -7.211341   -2.656141   -0.325862
     36          6           0       -6.770212   -4.001228   -0.642405
     37          6           0       -5.388632   -3.951684   -0.656809
     38          6           0       -5.056727   -2.519791   -0.422202
     39          6           0       -7.625764   -5.216430   -0.852142
     40          6           0       -4.086064   -4.623686   -0.795654
     41          8           0       -3.904186   -5.792686   -0.949472
     42          6           0       -2.960177   -3.486675   -0.735389
     43          6           0       -1.868317   -3.794220    0.227810
     44          8           0       -2.032660   -3.799191    1.446601
     45          8           0       -0.642112   -4.014071   -0.325780
     46          6           0        0.552514   -4.390577    0.508080
     47          6           0        3.830953   -1.382240    0.084336
     48          6           0        5.261027   -1.105758   -0.501956
     49          6           0        6.299557   -0.621087    0.238211
     50          6           0        6.277682   -0.270114    1.755001
     51          6           0        7.670475   -0.477565   -0.399853
     52          6           0        8.034729    0.983900   -0.660172
     53          6           0        8.392724    1.313544   -2.122100
     54          6           0        9.494692    2.440916   -2.200164
     55          6           0        9.058273    3.545015   -3.165806
     56          6           0       10.896178    1.775391   -2.657455
     57          6           0       12.157788    2.250241   -1.896185
     58          6           0       13.429582    1.407386   -2.240795
     59          6           0       14.078869    0.976552   -0.901524
     60          6           0       15.553889    0.548740   -1.122205
     61          6           0       13.295038   -0.161818   -0.198194
     62          6           0       13.604387   -0.174128    1.354733
     63          6           0       12.472781   -0.860909    2.113495
     64          6           0       12.491875   -0.666732    3.636424
     65          6           0       12.249068   -2.072324    4.335873
     66          6           0       11.328406    0.351619    4.140622
     67          1           0       -2.769012    3.272103    0.397743
     68          1           0       -9.105193    3.468493    0.463755
     69          1           0       -9.288582   -2.944156   -0.020101
     70          1           0       -1.196174   -1.322237    0.390414
     71          1           0       -0.986483    1.368036   -0.285942
     72          1           0       -1.917842    1.380868    2.511473
     73          1           0       -0.444177    1.933527    1.704212
     74          1           0       -0.619921    0.212577    2.264872
     75          1           0       -1.036809    0.148460   -2.352806
     76          1           0       -1.552772   -1.447895   -2.243413
     77          1           0        1.014513   -0.451085   -2.471969
     78          1           0        0.601025   -2.084537   -2.352639
     79          1           0       -3.130688    5.251293    0.046000
     80          1           0       -3.962773    6.198507    1.125097
     81          1           0       -4.392062    6.403162   -0.532270
     82          1           0       -6.745427    7.484679   -0.508972
     83          1           0       -6.036089    7.232899    1.159252
     84          1           0       -7.633222    7.814049    1.091902
     85          1           0      -10.797230    1.557523    0.077663
     86          1           0      -10.611395   -1.070954    1.412708
     87          1           0       -9.620519    1.866551    2.760164
     88          1           0      -10.979317    0.687699    2.939139
     89          1           0      -11.119409    2.326106    2.202276
     90          1           0      -11.996111    0.096832   -0.592628
     91          1           0      -12.110568   -1.594144   -0.198461
     92          1           0       -9.841322   -1.176242   -1.980699
     93          1           0      -11.005018   -0.093445   -2.687984
     94          1           0      -11.352528   -1.769962   -2.562877
     95          1           0       -7.018518   -6.041645   -0.482640
     96          1           0       -7.883630   -5.389129   -1.897154
     97          1           0       -8.599786   -5.035063   -0.398379
     98          1           0       -2.399582   -3.281087   -1.647385
     99          1           0        0.445545   -5.472098    0.589827
    100          1           0        0.461814   -4.062287    1.543748
    101          1           0        1.448986   -3.973006    0.048464
    102          1           0        4.017156   -2.273074    0.684498
    103          1           0        3.571928   -0.553475    0.743949
    104          1           0        5.462069   -1.549264   -1.477195
    105          1           0        7.049884   -0.852770    2.254966
    106          1           0        5.297171   -0.500715    2.172139
    107          1           0        6.531567    0.775756    1.925070
    108          1           0        7.655414   -0.993019   -1.360993
    109          1           0        8.395866   -1.073585    0.153769
    110          1           0        8.823644    1.307629    0.018690
    111          1           0        7.173658    1.597578   -0.395725
    112          1           0        7.433815    1.613150   -2.545944
    113          1           0        8.695638    0.460090   -2.727507
    114          1           0        9.680345    2.895670   -1.226252
    115          1           0        9.785979    3.629270   -3.973714
    116          1           0        9.042409    4.367130   -2.449487
    117          1           0        8.090594    3.323647   -3.616204
    118          1           0       11.112940    2.012207   -3.698599
    119          1           0       10.829142    0.688159   -2.660636
    120          1           0       11.826828    2.313698   -0.859902
    121          1           0       12.545521    3.226566   -2.189048
    122          1           0       14.150093    1.992682   -2.813358
    123          1           0       13.123188    0.498467   -2.756720
    124          1           0       14.133832    1.768190   -0.154469
    125          1           0       15.618915   -0.417248   -1.621862
    126          1           0       16.129028    0.487868   -0.197280
    127          1           0       15.996624    1.383392   -1.665240
    128          1           0       13.439958   -1.068072   -0.787135
    129          1           0       12.244649    0.047451   -0.400924
    130          1           0       13.846240    0.787715    1.807386
    131          1           0       14.497368   -0.790393    1.458233
    132          1           0       12.433823   -1.924366    1.873873
    133          1           0       11.510887   -0.513632    1.736379
    134          1           0       13.435805   -0.298185    4.039078
    135          1           0       11.386318   -1.890950    4.975385
    136          1           0       13.138883   -2.401381    4.871613
    137          1           0       11.894173   -2.854240    3.663510
    138          1           0       11.873920    1.266446    4.369679
    139          1           0       10.837063    0.189372    5.099432
    140          1           0       10.517755    0.564908    3.443761
 ---------------------------------------------------------------------

 SCF Done:  E(RB-LYP) =  -3007.36976808     A.U. after   20 cycles

 Excitation energies and oscillator strengths:

 Excited State   1:      Singlet-A      1.7973 eV  689.85 nm  f=0.3522  <S**2>=0.000
     245 -> 248        0.14691
     245 -> 249        0.10421
     246 -> 247        0.69793
     246 <- 247       -0.16225
 This state for optimization and/or second-order correction.
 Total Energy, E(TD-HF/TD-DFT) =  -3007.30372031
 Copying the excited state density for this state as the 1-particle RhoCI density.

 Excited State   2:      Singlet-A      1.9357 eV  640.51 nm  f=0.0029  <S**2>=0.000
     244 -> 247        0.68815
     245 -> 247        0.15219

 Excited State   3:      Singlet-A      2.0092 eV  617.07 nm  f=0.0573  <S**2>=0.000
     243 -> 247        0.21255
     244 -> 247       -0.15753
     245 -> 247        0.60742
     246 -> 248       -0.19000
     246 -> 249       -0.11228

 Excited State   4:      Singlet-A      2.1071 eV  588.40 nm  f=0.0076  <S**2>=0.000
     243 -> 247        0.67252
     245 -> 247       -0.18457

 Excited State   5:      Singlet-A      2.4610 eV  503.80 nm  f=0.0018  <S**2>=0.000
     240 -> 247        0.21474
     241 -> 247        0.53299
     242 -> 247        0.40320

 The electronic state is 1-A.
 Alpha  occ. eigenvalues --  -46.26069 -18.83453 -18.81600 -18.78998 -18.75819
 Alpha  occ. eigenvalues --  -18.75113 -18.75101 -14.02801 -14.02536 -14.00433
 Alpha  occ. eigenvalues --  -14.00241 -10.06312 -10.03053  -9.99941  -9.99504
 Alpha  occ. eigenvalues --   -9.98950  -9.97923  -9.96230  -9.95766  -9.95645
 Alpha  occ. eigenvalues --   -9.95548  -9.95529  -9.95136  -9.95040  -9.94980
 Alpha  occ. eigenvalues --   -9.94228  -9.94081  -9.93889  -9.93842  -9.93837
 Alpha  occ. eigenvalues --   -9.93482  -9.93290  -9.93249  -9.93217  -9.93166
 Alpha  occ. eigenvalues --   -9.93120  -9.93083  -9.92989  -9.92942  -9.92825
 Alpha  occ. eigenvalues --   -9.92490  -9.92466  -9.92413  -9.92225  -9.92137
 Alpha  occ. eigenvalues --   -9.92096  -9.92051  -9.91926  -9.91809  -9.91743
 Alpha  occ. eigenvalues --   -9.91663  -9.91613  -9.91563  -9.91548  -9.91529
 Alpha  occ. eigenvalues --   -9.91469  -9.91445  -9.91382  -9.91281  -9.91259
 Alpha  occ. eigenvalues --   -9.91176  -9.91101  -9.90852  -9.90849  -9.90743
 Alpha  occ. eigenvalues --   -9.90598  -2.90853  -1.71258  -1.70707  -1.70600
 Alpha  occ. eigenvalues --   -0.98529  -0.96508  -0.92785  -0.91359  -0.90768
 Alpha  occ. eigenvalues --   -0.88011  -0.86642  -0.85627  -0.84918  -0.84042
 Alpha  occ. eigenvalues --   -0.74980  -0.73744  -0.72960  -0.71845  -0.71731
 Alpha  occ. eigenvalues --   -0.71485  -0.71200  -0.70738  -0.70675  -0.70222
 Alpha  occ. eigenvalues --   -0.69585  -0.68828  -0.67989  -0.67045  -0.66753
 Alpha  occ. eigenvalues --   -0.66364  -0.65805  -0.65402  -0.64993  -0.64419
 Alpha  occ. eigenvalues --   -0.64271  -0.62325  -0.61864  -0.61458  -0.60969
 Alpha  occ. eigenvalues --   -0.60659  -0.59892  -0.59657  -0.59290  -0.59029
 Alpha  occ. eigenvalues --   -0.58660  -0.57643  -0.56512  -0.55592  -0.54862
 Alpha  occ. eigenvalues --   -0.53717  -0.53533  -0.52730  -0.52230  -0.51312
 Alpha  occ. eigenvalues --   -0.50870  -0.50687  -0.50351  -0.50339  -0.50137
 Alpha  occ. eigenvalues --   -0.49978  -0.49800  -0.48514  -0.47975  -0.46683
 Alpha  occ. eigenvalues --   -0.46076  -0.45759  -0.45284  -0.44802  -0.43863
 Alpha  occ. eigenvalues --   -0.43496  -0.43177  -0.43080  -0.42696  -0.42214
 Alpha  occ. eigenvalues --   -0.41605  -0.41548  -0.41463  -0.41365  -0.40888
 Alpha  occ. eigenvalues --   -0.40859  -0.40719  -0.40436  -0.40392  -0.40091
 Alpha  occ. eigenvalues --   -0.40054  -0.39932  -0.39676  -0.39307  -0.39175
 Alpha  occ. eigenvalues --   -0.38840  -0.38672  -0.38351  -0.38010  -0.37920
 Alpha  occ. eigenvalues --   -0.37796  -0.37588  -0.37381  -0.37136  -0.36851
 Alpha  occ. eigenvalues --   -0.36815  -0.36756  -0.36622  -0.36581  -0.36335
 Alpha  occ. eigenvalues --   -0.36152  -0.36081  -0.35773  -0.35645  -0.35507
 Alpha  occ. eigenvalues --   -0.35274  -0.35150  -0.34982  -0.34858  -0.34780
 Alpha  occ. eigenvalues --   -0.34645  -0.34332  -0.34304  -0.34217  -0.34014
 Alpha  occ. eigenvalues --   -0.33907  -0.33890  -0.33694  -0.33619  -0.33597
 Alpha  occ. eigenvalues --   -0.33352  -0.32904  -0.32752  -0.32422  -0.32023
 Alpha  occ. eigenvalues --   -0.31955  -0.31773  -0.31696  -0.31411  -0.31151
 Alpha  occ. eigenvalues --   -0.31032  -0.30954  -0.30773  -0.30542  -0.30294
 Alpha  occ. eigenvalues --   -0.30169  -0.29990  -0.29868  -0.29487  -0.29342
 Alpha  occ. eigenvalues --   -0.29185  -0.29102  -0.28917  -0.28893  -0.28784
 Alpha  occ. eigenvalues --   -0.28501  -0.28417  -0.28045  -0.28010  -0.27910
 Alpha  occ. eigenvalues --   -0.27619  -0.27545  -0.27430  -0.27391  -0.26611
 Alpha  occ. eigenvalues --   -0.26188  -0.26115  -0.25961  -0.25864  -0.25309
 Alpha  occ. eigenvalues --   -0.25187  -0.24421  -0.24170  -0.23744  -0.23653
 Alpha  occ. eigenvalues --   -0.23383  -0.22947  -0.21752  -0.20777  -0.20594
 Alpha  occ. eigenvalues --   -0.20288  -0.19960  -0.18882  -0.18323  -0.17081
 Alpha  occ. eigenvalues --   -0.15399
 Alpha virt. eigenvalues --   -0.11286  -0.06392  -0.05582  -0.04459  -0.04275
 Alpha virt. eigenvalues --   -0.02565  -0.02465  -0.02143  -0.01306   0.00255
 Alpha virt. eigenvalues --    0.00843   0.01499   0.02272   0.02545   0.03088

 Mulliken charges:
               1
     1  Mg   0.693808
     2  C    0.065382
     3  C   -0.055895
     4  C   -0.056429
     5  C   -0.075149
     6  N   -0.240773
     7  C   -0.113627
     8  C    0.036256
     9  C   -0.013098
    10  C    0.050722
    11  C    0.148130
    12  C    0.116345
    13  C    0.090438
    14  C    0.131838
    15  O   -0.180494
    16  O   -0.284873
    17  N   -0.301811
    18  C    0.128444
    19  C   -0.118854
    20  C    0.034626
    21  C    0.092133
    22  C    0.156786
    23  C   -0.085200
    24  O   -0.185477
    25  C    0.155517
    26  N   -0.253363
    27  C    0.007107
    28  C    0.062577
    29  C    0.017136
    30  C    0.089198
    31  C    0.140284
    32  C    0.088998
    33  C    0.041754
    34  N   -0.199299
    35  C    0.086313
    36  C   -0.198923
    37  C    0.097159
    38  C   -0.007268
    39  C    0.176573
    40  C   -0.011333
    41  O   -0.092110
    42  C    0.086227
    43  C    0.063590
    44  O   -0.198892
    45  O   -0.292270
    46  C    0.209195
    47  C    0.258622
    48  C   -0.088309
    49  C   -0.172990
    50  C    0.140444
    51  C    0.139363
    52  C    0.064224
    53  C    0.096062
    54  C   -0.099599
    55  C    0.134680
    56  C    0.069540
    57  C    0.053729
    58  C    0.133986
    59  C   -0.098749
    60  C    0.106263
    61  C    0.082569
    62  C    0.084891
    63  C    0.118847
    64  C   -0.086519
    65  C    0.091689
    66  C    0.065561
    67  H   -0.069840
    68  H   -0.047075
    69  H   -0.065230
    70  H    0.006234
    71  H   -0.036951
    72  H   -0.009244
    73  H   -0.014466
    74  H    0.016437
    75  H   -0.028715
    76  H   -0.033711
    77  H    0.001468
    78  H    0.010427
    79  H   -0.021143
    80  H   -0.003309
    81  H    0.006473
    82  H    0.033152
    83  H   -0.020866
    84  H   -0.004029
    85  H   -0.022837
    86  H   -0.032486
    87  H    0.000340
    88  H    0.002024
    89  H   -0.009661
    90  H   -0.028156
    91  H   -0.019998
    92  H   -0.002065
    93  H   -0.009074
    94  H   -0.016366
    95  H    0.021795
    96  H    0.000791
    97  H   -0.018719
    98  H   -0.012469
    99  H    0.020636
   100  H    0.022414
   101  H    0.037822
   102  H    0.010387
   103  H    0.018269
   104  H   -0.025102
   105  H    0.000530
   106  H   -0.008778
   107  H    0.001486
   108  H   -0.043905
   109  H   -0.022495
   110  H   -0.021023
   111  H   -0.021898
   112  H   -0.032855
   113  H   -0.024701
   114  H   -0.026738
   115  H   -0.015531
   116  H   -0.010024
   117  H   -0.016466
   118  H   -0.037914
   119  H   -0.027937
   120  H   -0.016887
   121  H   -0.030037
   122  H   -0.031371
   123  H   -0.034089
   124  H   -0.042316
   125  H   -0.017277
   126  H   -0.024119
   127  H   -0.023727
   128  H   -0.038214
   129  H   -0.046141
   130  H   -0.020831
   131  H   -0.023917
   132  H   -0.036231
   133  H   -0.039084
   134  H   -0.027067
   135  H   -0.028409
   136  H   -0.003809
   137  H   -0.019141
   138  H   -0.020158
   139  H   -0.014911
   140  H   -0.006866
 Sum of Mulliken charges =  -0.00000

 Dipole moment (field-independent basis, Debye):
    X=              5.1539    Y=              3.0766    Z=             -2.1064  Tot=              6.3612
 Quadrupole moment (field-independent basis, Debye-Ang):
   XX=           -382.4990   YY=           -429.0206   ZZ=           -404.9435
   XY=             10.4098   XZ=             12.4218   YZ=              1.7140

 Normal termination of Gaussian 16 at Thu Apr 28 19:51:31 2022.
