 Gaussian 16, Revision A.03,
 Gaussian 16:  ES64L-G16RevA.03 25-Dec-2016

 -----------------------------------
 #p cam-b3lyp/Def2SVP td=(nstates=5)
 -----------------------------------

 --------------------------------------------------------
 step_1701_chromophore_19 TDDFT with cam-b3lyp functional
 --------------------------------------------------------
 Symbolic Z-matrix:
 Charge =  0 Multiplicity = 1

                         Standard orientation:
 ---------------------------------------------------------------------
 Center     Atomic      Atomic             Coordinates (Angstroms)
 Number     Number       Type             X           Y           Z
 ---------------------------------------------------------------------
      1         12           0       -5.994751    0.338634   -0.206335
      2          6           0       -3.711156   -2.202798   -0.363782
      3          6           0       -3.553404    2.541554    0.190948
      4          6           0       -8.354800    2.674469    0.467750
      5          6           0       -8.505113   -2.183187    0.006464
      6          7           0       -3.933331    0.102135    0.075571
      7          6           0       -3.180555   -0.978238   -0.176151
      8          6           0       -1.692668   -0.596619   -0.253022
      9          6           0       -1.650078    0.823861    0.385952
     10          6           0       -3.144068    1.206908    0.277485
     11          6           0       -1.114167    1.084137    1.836775
     12          6           0       -0.946322   -0.721325   -1.701994
     13          6           0        0.528116   -1.151885   -1.793689
     14          6           0        1.483297   -1.223586   -0.487786
     15          8           0        1.176637   -0.947571    0.663730
     16          8           0        2.760329   -1.625274   -0.879568
     17          7           0       -5.937694    2.377298    0.140222
     18          6           0       -4.816102    3.133538    0.171979
     19          6           0       -5.149942    4.544871    0.309901
     20          6           0       -6.625208    4.596278    0.391072
     21          6           0       -7.062121    3.183463    0.353948
     22          6           0       -4.135972    5.641701    0.203724
     23          6           0       -7.498288    5.871575    0.555154
     24          8           0       -8.734342    5.853756    0.556888
     25          6           0       -6.925641    7.205351    0.529726
     26          7           0       -8.040836    0.237973    0.338501
     27          6           0       -8.818468    1.344221    0.433924
     28          6           0      -10.224194    1.007187    0.822826
     29          6           0      -10.298959   -0.492767    0.543816
     30          6           0       -8.860233   -0.910367    0.207206
     31          6           0      -10.504510    1.430485    2.297025
     32          6           0      -11.420280   -0.827594   -0.550319
     33          6           0      -10.905904   -0.942360   -2.011793
     34          7           0       -6.139737   -1.790947   -0.285418
     35          6           0       -7.211341   -2.656141   -0.325862
     36          6           0       -6.770212   -4.001228   -0.642405
     37          6           0       -5.388632   -3.951684   -0.656809
     38          6           0       -5.056727   -2.519791   -0.422202
     39          6           0       -7.625764   -5.216430   -0.852142
     40          6           0       -4.086064   -4.623686   -0.795654
     41          8           0       -3.904186   -5.792686   -0.949472
     42          6           0       -2.960177   -3.486675   -0.735389
     43          6           0       -1.868317   -3.794220    0.227810
     44          8           0       -2.032660   -3.799191    1.446601
     45          8           0       -0.642112   -4.014071   -0.325780
     46          6           0        0.552514   -4.390577    0.508080
     47          6           0        3.830953   -1.382240    0.084336
     48          6           0        5.261027   -1.105758   -0.501956
     49          6           0        6.299557   -0.621087    0.238211
     50          6           0        6.277682   -0.270114    1.755001
     51          6           0        7.670475   -0.477565   -0.399853
     52          6           0        8.034729    0.983900   -0.660172
     53          6           0        8.392724    1.313544   -2.122100
     54          6           0        9.494692    2.440916   -2.200164
     55          6           0        9.058273    3.545015   -3.165806
     56          6           0       10.896178    1.775391   -2.657455
     57          6           0       12.157788    2.250241   -1.896185
     58          6           0       13.429582    1.407386   -2.240795
     59          6           0       14.078869    0.976552   -0.901524
     60          6           0       15.553889    0.548740   -1.122205
     61          6           0       13.295038   -0.161818   -0.198194
     62          6           0       13.604387   -0.174128    1.354733
     63          6           0       12.472781   -0.860909    2.113495
     64          6           0       12.491875   -0.666732    3.636424
     65          6           0       12.249068   -2.072324    4.335873
     66          6           0       11.328406    0.351619    4.140622
     67          1           0       -2.769012    3.272103    0.397743
     68          1           0       -9.105193    3.468493    0.463755
     69          1           0       -9.288582   -2.944156   -0.020101
     70          1           0       -1.196174   -1.322237    0.390414
     71          1           0       -0.986483    1.368036   -0.285942
     72          1           0       -1.917842    1.380868    2.511473
     73          1           0       -0.444177    1.933527    1.704212
     74          1           0       -0.619921    0.212577    2.264872
     75          1           0       -1.036809    0.148460   -2.352806
     76          1           0       -1.552772   -1.447895   -2.243413
     77          1           0        1.014513   -0.451085   -2.471969
     78          1           0        0.601025   -2.084537   -2.352639
     79          1           0       -3.130688    5.251293    0.046000
     80          1           0       -3.962773    6.198507    1.125097
     81          1           0       -4.392062    6.403162   -0.532270
     82          1           0       -6.745427    7.484679   -0.508972
     83          1           0       -6.036089    7.232899    1.159252
     84          1           0       -7.633222    7.814049    1.091902
     85          1           0      -10.797230    1.557523    0.077663
     86          1           0      -10.611395   -1.070954    1.412708
     87          1           0       -9.620519    1.866551    2.760164
     88          1           0      -10.979317    0.687699    2.939139
     89          1           0      -11.119409    2.326106    2.202276
     90          1           0      -11.996111    0.096832   -0.592628
     91          1           0      -12.110568   -1.594144   -0.198461
     92          1           0       -9.841322   -1.176242   -1.980699
     93          1           0      -11.005018   -0.093445   -2.687984
     94          1           0      -11.352528   -1.769962   -2.562877
     95          1           0       -7.018518   -6.041645   -0.482640
     96          1           0       -7.883630   -5.389129   -1.897154
     97          1           0       -8.599786   -5.035063   -0.398379
     98          1           0       -2.399582   -3.281087   -1.647385
     99          1           0        0.445545   -5.472098    0.589827
    100          1           0        0.461814   -4.062287    1.543748
    101          1           0        1.448986   -3.973006    0.048464
    102          1           0        4.017156   -2.273074    0.684498
    103          1           0        3.571928   -0.553475    0.743949
    104          1           0        5.462069   -1.549264   -1.477195
    105          1           0        7.049884   -0.852770    2.254966
    106          1           0        5.297171   -0.500715    2.172139
    107          1           0        6.531567    0.775756    1.925070
    108          1           0        7.655414   -0.993019   -1.360993
    109          1           0        8.395866   -1.073585    0.153769
    110          1           0        8.823644    1.307629    0.018690
    111          1           0        7.173658    1.597578   -0.395725
    112          1           0        7.433815    1.613150   -2.545944
    113          1           0        8.695638    0.460090   -2.727507
    114          1           0        9.680345    2.895670   -1.226252
    115          1           0        9.785979    3.629270   -3.973714
    116          1           0        9.042409    4.367130   -2.449487
    117          1           0        8.090594    3.323647   -3.616204
    118          1           0       11.112940    2.012207   -3.698599
    119          1           0       10.829142    0.688159   -2.660636
    120          1           0       11.826828    2.313698   -0.859902
    121          1           0       12.545521    3.226566   -2.189048
    122          1           0       14.150093    1.992682   -2.813358
    123          1           0       13.123188    0.498467   -2.756720
    124          1           0       14.133832    1.768190   -0.154469
    125          1           0       15.618915   -0.417248   -1.621862
    126          1           0       16.129028    0.487868   -0.197280
    127          1           0       15.996624    1.383392   -1.665240
    128          1           0       13.439958   -1.068072   -0.787135
    129          1           0       12.244649    0.047451   -0.400924
    130          1           0       13.846240    0.787715    1.807386
    131          1           0       14.497368   -0.790393    1.458233
    132          1           0       12.433823   -1.924366    1.873873
    133          1           0       11.510887   -0.513632    1.736379
    134          1           0       13.435805   -0.298185    4.039078
    135          1           0       11.386318   -1.890950    4.975385
    136          1           0       13.138883   -2.401381    4.871613
    137          1           0       11.894173   -2.854240    3.663510
    138          1           0       11.873920    1.266446    4.369679
    139          1           0       10.837063    0.189372    5.099432
    140          1           0       10.517755    0.564908    3.443761
 ---------------------------------------------------------------------

 SCF Done:  E(RCAM-B3LYP) =  -3007.15953196     A.U. after   17 cycles

 Excitation energies and oscillator strengths:

 Excited State   1:      Singlet-A      1.6845 eV  736.01 nm  f=0.4262  <S**2>=0.000
     245 -> 248        0.16127
     246 -> 247        0.68960
     245 <- 248        0.10244
 This state for optimization and/or second-order correction.
 Total Energy, E(TD-HF/TD-DFT) =  -3007.09762595
 Copying the excited state density for this state as the 1-particle RhoCI density.

 Excited State   2:      Singlet-A      2.2517 eV  550.63 nm  f=0.1056  <S**2>=0.000
     245 -> 247        0.64073
     246 -> 248       -0.28030

 Excited State   3:      Singlet-A      3.3539 eV  369.67 nm  f=0.0149  <S**2>=0.000
     243 -> 247        0.15124
     244 -> 247        0.64906
     246 -> 248        0.20309

 Excited State   4:      Singlet-A      3.5291 eV  351.32 nm  f=0.1933  <S**2>=0.000
     241 -> 247        0.12810
     243 -> 247        0.44626
     244 -> 247       -0.23983
     245 -> 247        0.15157
     246 -> 248        0.41798

 Excited State   5:      Singlet-A      3.5862 eV  345.73 nm  f=0.0023  <S**2>=0.000
     239 -> 247       -0.11320
     240 -> 247        0.52722
     240 -> 248       -0.17694
     240 -> 249        0.32801
     240 -> 251       -0.16892

 The electronic state is 1-A.
 Alpha  occ. eigenvalues --  -46.87555 -19.26311 -19.24509 -19.22010 -19.18925
 Alpha  occ. eigenvalues --  -19.18544 -19.18148 -14.41645 -14.41388 -14.38959
 Alpha  occ. eigenvalues --  -14.38574 -10.41748 -10.38447 -10.35186 -10.34939
 Alpha  occ. eigenvalues --  -10.33032 -10.31996 -10.30840 -10.30332 -10.30298
 Alpha  occ. eigenvalues --  -10.29799 -10.29669 -10.29657 -10.29211 -10.29111
 Alpha  occ. eigenvalues --  -10.28888 -10.28184 -10.28089 -10.28071 -10.28035
 Alpha  occ. eigenvalues --  -10.27890 -10.27553 -10.27428 -10.27228 -10.27166
 Alpha  occ. eigenvalues --  -10.27140 -10.26938 -10.26782 -10.26748 -10.26672
 Alpha  occ. eigenvalues --  -10.26516 -10.26355 -10.26279 -10.26143 -10.25955
 Alpha  occ. eigenvalues --  -10.25852 -10.25715 -10.25658 -10.25639 -10.25584
 Alpha  occ. eigenvalues --  -10.25477 -10.25373 -10.25348 -10.25343 -10.25263
 Alpha  occ. eigenvalues --  -10.25191 -10.25113 -10.25031 -10.24983 -10.24917
 Alpha  occ. eigenvalues --  -10.24778 -10.24748 -10.24700 -10.24408 -10.24356
 Alpha  occ. eigenvalues --  -10.24204  -3.16248  -1.91128  -1.90684  -1.90578
 Alpha  occ. eigenvalues --   -1.16962  -1.14985  -1.11180  -1.09389  -1.09189
 Alpha  occ. eigenvalues --   -1.05879  -1.04302  -1.03142  -1.02570  -1.01612
 Alpha  occ. eigenvalues --   -0.92012  -0.90619  -0.89766  -0.88543  -0.88407
 Alpha  occ. eigenvalues --   -0.88149  -0.87737  -0.87300  -0.87239  -0.86786
 Alpha  occ. eigenvalues --   -0.86334  -0.85141  -0.84242  -0.83143  -0.82889
 Alpha  occ. eigenvalues --   -0.82501  -0.82130  -0.81185  -0.80797  -0.80278
 Alpha  occ. eigenvalues --   -0.80044  -0.78076  -0.77497  -0.76953  -0.76351
 Alpha  occ. eigenvalues --   -0.76039  -0.75208  -0.74878  -0.74555  -0.74251
 Alpha  occ. eigenvalues --   -0.73714  -0.72637  -0.71404  -0.70363  -0.69439
 Alpha  occ. eigenvalues --   -0.68267  -0.68101  -0.67092  -0.66797  -0.65511
 Alpha  occ. eigenvalues --   -0.64926  -0.64833  -0.64410  -0.64275  -0.64022
 Alpha  occ. eigenvalues --   -0.63929  -0.63697  -0.62369  -0.61553  -0.60179
 Alpha  occ. eigenvalues --   -0.59811  -0.59323  -0.58767  -0.58120  -0.57236
 Alpha  occ. eigenvalues --   -0.57034  -0.56647  -0.56565  -0.55775  -0.55351
 Alpha  occ. eigenvalues --   -0.54938  -0.54587  -0.54273  -0.54166  -0.53672
 Alpha  occ. eigenvalues --   -0.53563  -0.53513  -0.53339  -0.53040  -0.52942
 Alpha  occ. eigenvalues --   -0.52822  -0.52515  -0.52410  -0.52250  -0.51573
 Alpha  occ. eigenvalues --   -0.51474  -0.51235  -0.50657  -0.50583  -0.50309
 Alpha  occ. eigenvalues --   -0.50161  -0.49992  -0.49810  -0.49581  -0.49322
 Alpha  occ. eigenvalues --   -0.49172  -0.49002  -0.48877  -0.48771  -0.48707
 Alpha  occ. eigenvalues --   -0.48649  -0.48437  -0.48121  -0.47863  -0.47693
 Alpha  occ. eigenvalues --   -0.47362  -0.47029  -0.46968  -0.46778  -0.46539
 Alpha  occ. eigenvalues --   -0.46517  -0.46288  -0.46143  -0.46009  -0.45948
 Alpha  occ. eigenvalues --   -0.45675  -0.45592  -0.45558  -0.45455  -0.45334
 Alpha  occ. eigenvalues --   -0.45204  -0.44556  -0.44431  -0.44023  -0.43695
 Alpha  occ. eigenvalues --   -0.43522  -0.43363  -0.43197  -0.43119  -0.42715
 Alpha  occ. eigenvalues --   -0.42573  -0.42337  -0.42302  -0.41911  -0.41690
 Alpha  occ. eigenvalues --   -0.41510  -0.41415  -0.41310  -0.41099  -0.40740
 Alpha  occ. eigenvalues --   -0.40458  -0.40342  -0.40152  -0.39932  -0.39879
 Alpha  occ. eigenvalues --   -0.39724  -0.39435  -0.38953  -0.38911  -0.38827
 Alpha  occ. eigenvalues --   -0.38666  -0.38402  -0.38342  -0.38272  -0.37801
 Alpha  occ. eigenvalues --   -0.37350  -0.36876  -0.36714  -0.36613  -0.36296
 Alpha  occ. eigenvalues --   -0.35871  -0.35658  -0.35077  -0.34873  -0.34083
 Alpha  occ. eigenvalues --   -0.33947  -0.33117  -0.32556  -0.31009  -0.30903
 Alpha  occ. eigenvalues --   -0.30583  -0.30427  -0.29745  -0.29412  -0.23973
 Alpha  occ. eigenvalues --   -0.20589
 Alpha virt. eigenvalues --   -0.08412  -0.00975   0.00705   0.02310   0.02717
 Alpha virt. eigenvalues --    0.03799   0.04876   0.05421   0.05917   0.06698
 Alpha virt. eigenvalues --    0.07112   0.08112   0.08802   0.09349   0.09383

 Mulliken charges:
               1
     1  Mg   0.826899
     2  C    0.035777
     3  C   -0.068386
     4  C   -0.078109
     5  C   -0.076996
     6  N   -0.315213
     7  C   -0.063828
     8  C   -0.015772
     9  C   -0.061401
    10  C    0.065833
    11  C    0.091982
    12  C    0.066187
    13  C    0.029655
    14  C    0.202053
    15  O   -0.221545
    16  O   -0.349278
    17  N   -0.391745
    18  C    0.138278
    19  C   -0.122786
    20  C   -0.032228
    21  C    0.118381
    22  C    0.095131
    23  C   -0.001693
    24  O   -0.224033
    25  C    0.069867
    26  N   -0.321246
    27  C    0.035801
    28  C   -0.000832
    29  C   -0.032126
    30  C    0.091852
    31  C    0.079323
    32  C    0.028928
    33  C   -0.016223
    34  N   -0.286500
    35  C    0.086192
    36  C   -0.197146
    37  C    0.024119
    38  C    0.024160
    39  C    0.129485
    40  C    0.087285
    41  O   -0.132132
    42  C    0.006660
    43  C    0.156464
    44  O   -0.235007
    45  O   -0.358050
    46  C    0.172918
    47  C    0.232935
    48  C   -0.110207
    49  C   -0.196896
    50  C    0.084837
    51  C    0.080531
    52  C    0.011482
    53  C    0.045347
    54  C   -0.156403
    55  C    0.077390
    56  C    0.022449
    57  C    0.003171
    58  C    0.079111
    59  C   -0.156560
    60  C    0.050994
    61  C    0.034160
    62  C    0.030203
    63  C    0.069217
    64  C   -0.150425
    65  C    0.035381
    66  C    0.011409
    67  H   -0.037609
    68  H   -0.005381
    69  H   -0.030097
    70  H    0.038614
    71  H   -0.001457
    72  H    0.016706
    73  H    0.008138
    74  H    0.041823
    75  H    0.002330
    76  H   -0.004509
    77  H    0.033213
    78  H    0.042428
    79  H    0.009003
    80  H    0.025203
    81  H    0.033510
    82  H    0.060530
    83  H    0.008282
    84  H    0.031740
    85  H    0.011460
    86  H    0.004089
    87  H    0.027165
    88  H    0.026820
    89  H    0.014522
    90  H    0.001086
    91  H    0.009224
    92  H    0.020663
    93  H    0.014647
    94  H    0.008215
    95  H    0.046067
    96  H    0.026869
    97  H    0.003597
    98  H    0.029629
    99  H    0.045266
   100  H    0.049652
   101  H    0.055431
   102  H    0.034397
   103  H    0.044255
   104  H    0.009222
   105  H    0.024285
   106  H    0.014391
   107  H    0.025193
   108  H   -0.012391
   109  H    0.006136
   110  H    0.003174
   111  H    0.006739
   112  H   -0.003799
   113  H    0.002268
   114  H    0.003367
   115  H    0.008124
   116  H    0.013074
   117  H    0.007493
   118  H   -0.010456
   119  H   -0.002959
   120  H    0.006773
   121  H   -0.001612
   122  H   -0.001389
   123  H   -0.006282
   124  H   -0.010656
   125  H    0.005644
   126  H    0.000964
   127  H    0.000613
   128  H   -0.009837
   129  H   -0.021041
   130  H    0.006015
   131  H    0.002936
   132  H   -0.007128
   133  H   -0.013722
   134  H    0.005069
   135  H   -0.004455
   136  H    0.019356
   137  H    0.004324
   138  H    0.003043
   139  H    0.009118
   140  H    0.013801
 Sum of Mulliken charges =  -0.00000

 Dipole moment (field-independent basis, Debye):
    X=              5.2688    Y=              4.0021    Z=             -2.1676  Tot=              6.9625
 Quadrupole moment (field-independent basis, Debye-Ang):
   XX=           -382.3468   YY=           -424.3283   ZZ=           -404.7648
   XY=              5.2972   XZ=             12.6366   YZ=              2.5624

 Normal termination of Gaussian 16 at Thu Apr 28 18:47:35 2022.
