 Gaussian 16, Revision A.03,
 Gaussian 16:  ES64L-G16RevA.03 25-Dec-2016

 ---------------------------------
 #p PBE1PBE/Def2SVP td=(nstates=5)
 ---------------------------------

 ------------------------------------------------------
 step_1701_chromophore_19 TDDFT with PBE1PBE functional
 ------------------------------------------------------
 Symbolic Z-matrix:
 Charge =  0 Multiplicity = 1

                         Standard orientation:
 ---------------------------------------------------------------------
 Center     Atomic      Atomic             Coordinates (Angstroms)
 Number     Number       Type             X           Y           Z
 ---------------------------------------------------------------------
      1         12           0       -5.994751    0.338634   -0.206335
      2          6           0       -3.711156   -2.202798   -0.363782
      3          6           0       -3.553404    2.541554    0.190948
      4          6           0       -8.354800    2.674469    0.467750
      5          6           0       -8.505113   -2.183187    0.006464
      6          7           0       -3.933331    0.102135    0.075571
      7          6           0       -3.180555   -0.978238   -0.176151
      8          6           0       -1.692668   -0.596619   -0.253022
      9          6           0       -1.650078    0.823861    0.385952
     10          6           0       -3.144068    1.206908    0.277485
     11          6           0       -1.114167    1.084137    1.836775
     12          6           0       -0.946322   -0.721325   -1.701994
     13          6           0        0.528116   -1.151885   -1.793689
     14          6           0        1.483297   -1.223586   -0.487786
     15          8           0        1.176637   -0.947571    0.663730
     16          8           0        2.760329   -1.625274   -0.879568
     17          7           0       -5.937694    2.377298    0.140222
     18          6           0       -4.816102    3.133538    0.171979
     19          6           0       -5.149942    4.544871    0.309901
     20          6           0       -6.625208    4.596278    0.391072
     21          6           0       -7.062121    3.183463    0.353948
     22          6           0       -4.135972    5.641701    0.203724
     23          6           0       -7.498288    5.871575    0.555154
     24          8           0       -8.734342    5.853756    0.556888
     25          6           0       -6.925641    7.205351    0.529726
     26          7           0       -8.040836    0.237973    0.338501
     27          6           0       -8.818468    1.344221    0.433924
     28          6           0      -10.224194    1.007187    0.822826
     29          6           0      -10.298959   -0.492767    0.543816
     30          6           0       -8.860233   -0.910367    0.207206
     31          6           0      -10.504510    1.430485    2.297025
     32          6           0      -11.420280   -0.827594   -0.550319
     33          6           0      -10.905904   -0.942360   -2.011793
     34          7           0       -6.139737   -1.790947   -0.285418
     35          6           0       -7.211341   -2.656141   -0.325862
     36          6           0       -6.770212   -4.001228   -0.642405
     37          6           0       -5.388632   -3.951684   -0.656809
     38          6           0       -5.056727   -2.519791   -0.422202
     39          6           0       -7.625764   -5.216430   -0.852142
     40          6           0       -4.086064   -4.623686   -0.795654
     41          8           0       -3.904186   -5.792686   -0.949472
     42          6           0       -2.960177   -3.486675   -0.735389
     43          6           0       -1.868317   -3.794220    0.227810
     44          8           0       -2.032660   -3.799191    1.446601
     45          8           0       -0.642112   -4.014071   -0.325780
     46          6           0        0.552514   -4.390577    0.508080
     47          6           0        3.830953   -1.382240    0.084336
     48          6           0        5.261027   -1.105758   -0.501956
     49          6           0        6.299557   -0.621087    0.238211
     50          6           0        6.277682   -0.270114    1.755001
     51          6           0        7.670475   -0.477565   -0.399853
     52          6           0        8.034729    0.983900   -0.660172
     53          6           0        8.392724    1.313544   -2.122100
     54          6           0        9.494692    2.440916   -2.200164
     55          6           0        9.058273    3.545015   -3.165806
     56          6           0       10.896178    1.775391   -2.657455
     57          6           0       12.157788    2.250241   -1.896185
     58          6           0       13.429582    1.407386   -2.240795
     59          6           0       14.078869    0.976552   -0.901524
     60          6           0       15.553889    0.548740   -1.122205
     61          6           0       13.295038   -0.161818   -0.198194
     62          6           0       13.604387   -0.174128    1.354733
     63          6           0       12.472781   -0.860909    2.113495
     64          6           0       12.491875   -0.666732    3.636424
     65          6           0       12.249068   -2.072324    4.335873
     66          6           0       11.328406    0.351619    4.140622
     67          1           0       -2.769012    3.272103    0.397743
     68          1           0       -9.105193    3.468493    0.463755
     69          1           0       -9.288582   -2.944156   -0.020101
     70          1           0       -1.196174   -1.322237    0.390414
     71          1           0       -0.986483    1.368036   -0.285942
     72          1           0       -1.917842    1.380868    2.511473
     73          1           0       -0.444177    1.933527    1.704212
     74          1           0       -0.619921    0.212577    2.264872
     75          1           0       -1.036809    0.148460   -2.352806
     76          1           0       -1.552772   -1.447895   -2.243413
     77          1           0        1.014513   -0.451085   -2.471969
     78          1           0        0.601025   -2.084537   -2.352639
     79          1           0       -3.130688    5.251293    0.046000
     80          1           0       -3.962773    6.198507    1.125097
     81          1           0       -4.392062    6.403162   -0.532270
     82          1           0       -6.745427    7.484679   -0.508972
     83          1           0       -6.036089    7.232899    1.159252
     84          1           0       -7.633222    7.814049    1.091902
     85          1           0      -10.797230    1.557523    0.077663
     86          1           0      -10.611395   -1.070954    1.412708
     87          1           0       -9.620519    1.866551    2.760164
     88          1           0      -10.979317    0.687699    2.939139
     89          1           0      -11.119409    2.326106    2.202276
     90          1           0      -11.996111    0.096832   -0.592628
     91          1           0      -12.110568   -1.594144   -0.198461
     92          1           0       -9.841322   -1.176242   -1.980699
     93          1           0      -11.005018   -0.093445   -2.687984
     94          1           0      -11.352528   -1.769962   -2.562877
     95          1           0       -7.018518   -6.041645   -0.482640
     96          1           0       -7.883630   -5.389129   -1.897154
     97          1           0       -8.599786   -5.035063   -0.398379
     98          1           0       -2.399582   -3.281087   -1.647385
     99          1           0        0.445545   -5.472098    0.589827
    100          1           0        0.461814   -4.062287    1.543748
    101          1           0        1.448986   -3.973006    0.048464
    102          1           0        4.017156   -2.273074    0.684498
    103          1           0        3.571928   -0.553475    0.743949
    104          1           0        5.462069   -1.549264   -1.477195
    105          1           0        7.049884   -0.852770    2.254966
    106          1           0        5.297171   -0.500715    2.172139
    107          1           0        6.531567    0.775756    1.925070
    108          1           0        7.655414   -0.993019   -1.360993
    109          1           0        8.395866   -1.073585    0.153769
    110          1           0        8.823644    1.307629    0.018690
    111          1           0        7.173658    1.597578   -0.395725
    112          1           0        7.433815    1.613150   -2.545944
    113          1           0        8.695638    0.460090   -2.727507
    114          1           0        9.680345    2.895670   -1.226252
    115          1           0        9.785979    3.629270   -3.973714
    116          1           0        9.042409    4.367130   -2.449487
    117          1           0        8.090594    3.323647   -3.616204
    118          1           0       11.112940    2.012207   -3.698599
    119          1           0       10.829142    0.688159   -2.660636
    120          1           0       11.826828    2.313698   -0.859902
    121          1           0       12.545521    3.226566   -2.189048
    122          1           0       14.150093    1.992682   -2.813358
    123          1           0       13.123188    0.498467   -2.756720
    124          1           0       14.133832    1.768190   -0.154469
    125          1           0       15.618915   -0.417248   -1.621862
    126          1           0       16.129028    0.487868   -0.197280
    127          1           0       15.996624    1.383392   -1.665240
    128          1           0       13.439958   -1.068072   -0.787135
    129          1           0       12.244649    0.047451   -0.400924
    130          1           0       13.846240    0.787715    1.807386
    131          1           0       14.497368   -0.790393    1.458233
    132          1           0       12.433823   -1.924366    1.873873
    133          1           0       11.510887   -0.513632    1.736379
    134          1           0       13.435805   -0.298185    4.039078
    135          1           0       11.386318   -1.890950    4.975385
    136          1           0       13.138883   -2.401381    4.871613
    137          1           0       11.894173   -2.854240    3.663510
    138          1           0       11.873920    1.266446    4.369679
    139          1           0       10.837063    0.189372    5.099432
    140          1           0       10.517755    0.564908    3.443761
 ---------------------------------------------------------------------

 SCF Done:  E(RPBE1PBE) =  -3005.34605405     A.U. after   15 cycles

 Excitation energies and oscillator strengths:

 Excited State   1:      Singlet-A      1.8368 eV  675.01 nm  f=0.4145  <S**2>=0.000
     245 -> 248        0.14949
     246 -> 247        0.69807
     246 <- 247       -0.11831
 This state for optimization and/or second-order correction.
 Total Energy, E(TD-HF/TD-DFT) =  -3005.27855340
 Copying the excited state density for this state as the 1-particle RhoCI density.

 Excited State   2:      Singlet-A      2.2461 eV  551.99 nm  f=0.1004  <S**2>=0.000
     245 -> 247        0.65226
     246 -> 248       -0.24855

 Excited State   3:      Singlet-A      3.0475 eV  406.84 nm  f=0.0033  <S**2>=0.000
     243 -> 247       -0.11667
     244 -> 247        0.68270

 Excited State   4:      Singlet-A      3.0727 eV  403.51 nm  f=0.0000  <S**2>=0.000
     242 -> 247        0.66941
     242 -> 248       -0.12028
     242 -> 249        0.16104

 Excited State   5:      Singlet-A      3.1249 eV  396.76 nm  f=0.0014  <S**2>=0.000
     241 -> 247        0.55889
     241 -> 249       -0.11017
     241 -> 250        0.10171
     243 -> 247        0.34235
     244 -> 247        0.12081
     246 -> 248        0.12312

 The electronic state is 1-A.
 Alpha  occ. eigenvalues --  -46.90963 -19.27016 -19.25164 -19.22278 -19.19219
 Alpha  occ. eigenvalues --  -19.18633 -19.18394 -14.41161 -14.40924 -14.38569
 Alpha  occ. eigenvalues --  -14.38279 -10.38828 -10.35484 -10.32415 -10.31930
 Alpha  occ. eigenvalues --  -10.30469 -10.29226 -10.28483 -10.27952 -10.27841
 Alpha  occ. eigenvalues --  -10.27610 -10.27568 -10.27172 -10.26849 -10.26699
 Alpha  occ. eigenvalues --  -10.26627 -10.25874 -10.25787 -10.25747 -10.25707
 Alpha  occ. eigenvalues --  -10.25647 -10.25425 -10.25274 -10.24951 -10.24727
 Alpha  occ. eigenvalues --  -10.24642 -10.24532 -10.24499 -10.24467 -10.24353
 Alpha  occ. eigenvalues --  -10.24332 -10.24033 -10.23948 -10.23845 -10.23634
 Alpha  occ. eigenvalues --  -10.23417 -10.23259 -10.23176 -10.23143 -10.23048
 Alpha  occ. eigenvalues --  -10.23008 -10.22955 -10.22870 -10.22860 -10.22846
 Alpha  occ. eigenvalues --  -10.22794 -10.22715 -10.22680 -10.22554 -10.22482
 Alpha  occ. eigenvalues --  -10.22386 -10.22290 -10.22165 -10.21811 -10.21776
 Alpha  occ. eigenvalues --  -10.21596  -3.13229  -1.86051  -1.85585  -1.85483
 Alpha  occ. eigenvalues --   -1.11771  -1.09755  -1.06041  -1.04069  -1.03981
 Alpha  occ. eigenvalues --   -1.00701  -0.98993  -0.97870  -0.97149  -0.96211
 Alpha  occ. eigenvalues --   -0.86421  -0.84743  -0.83847  -0.82836  -0.82568
 Alpha  occ. eigenvalues --   -0.82328  -0.82059  -0.81622  -0.81405  -0.81112
 Alpha  occ. eigenvalues --   -0.80535  -0.79381  -0.78433  -0.77463  -0.77106
 Alpha  occ. eigenvalues --   -0.76664  -0.76258  -0.75483  -0.75017  -0.74591
 Alpha  occ. eigenvalues --   -0.74258  -0.72351  -0.71746  -0.71282  -0.70568
 Alpha  occ. eigenvalues --   -0.70334  -0.69307  -0.69224  -0.68699  -0.68429
 Alpha  occ. eigenvalues --   -0.68037  -0.67107  -0.65850  -0.64679  -0.63825
 Alpha  occ. eigenvalues --   -0.62652  -0.62433  -0.61377  -0.61141  -0.59758
 Alpha  occ. eigenvalues --   -0.59459  -0.59281  -0.58791  -0.58583  -0.58492
 Alpha  occ. eigenvalues --   -0.58227  -0.58154  -0.56573  -0.56176  -0.54606
 Alpha  occ. eigenvalues --   -0.54284  -0.53855  -0.53366  -0.52819  -0.51580
 Alpha  occ. eigenvalues --   -0.51451  -0.51208  -0.51119  -0.50410  -0.49879
 Alpha  occ. eigenvalues --   -0.49500  -0.49161  -0.48798  -0.48534  -0.48230
 Alpha  occ. eigenvalues --   -0.48041  -0.47929  -0.47560  -0.47486  -0.47457
 Alpha  occ. eigenvalues --   -0.47416  -0.47147  -0.46912  -0.46804  -0.46087
 Alpha  occ. eigenvalues --   -0.45997  -0.45842  -0.45173  -0.45128  -0.45049
 Alpha  occ. eigenvalues --   -0.44728  -0.44485  -0.44352  -0.44154  -0.43926
 Alpha  occ. eigenvalues --   -0.43742  -0.43594  -0.43433  -0.43341  -0.43265
 Alpha  occ. eigenvalues --   -0.43248  -0.43035  -0.42727  -0.42505  -0.42371
 Alpha  occ. eigenvalues --   -0.42011  -0.41679  -0.41638  -0.41477  -0.41255
 Alpha  occ. eigenvalues --   -0.41101  -0.41006  -0.40824  -0.40674  -0.40630
 Alpha  occ. eigenvalues --   -0.40402  -0.40288  -0.40254  -0.40178  -0.40116
 Alpha  occ. eigenvalues --   -0.39898  -0.39336  -0.39144  -0.38795  -0.38489
 Alpha  occ. eigenvalues --   -0.38323  -0.38210  -0.37978  -0.37934  -0.37540
 Alpha  occ. eigenvalues --   -0.37336  -0.37238  -0.37073  -0.36797  -0.36407
 Alpha  occ. eigenvalues --   -0.36278  -0.36263  -0.36107  -0.35949  -0.35622
 Alpha  occ. eigenvalues --   -0.35251  -0.35166  -0.34929  -0.34771  -0.34655
 Alpha  occ. eigenvalues --   -0.34632  -0.34364  -0.33767  -0.33749  -0.33681
 Alpha  occ. eigenvalues --   -0.33607  -0.33284  -0.33133  -0.33063  -0.32732
 Alpha  occ. eigenvalues --   -0.32362  -0.31790  -0.31691  -0.31462  -0.31318
 Alpha  occ. eigenvalues --   -0.30852  -0.30592  -0.30067  -0.29832  -0.29178
 Alpha  occ. eigenvalues --   -0.29079  -0.28514  -0.27554  -0.26609  -0.25713
 Alpha  occ. eigenvalues --   -0.25657  -0.25500  -0.25431  -0.24960  -0.20834
 Alpha  occ. eigenvalues --   -0.18281
 Alpha virt. eigenvalues --   -0.10881  -0.04577  -0.03414  -0.01890  -0.00902
 Alpha virt. eigenvalues --   -0.00257   0.00533   0.00812   0.01496   0.03234
 Alpha virt. eigenvalues --    0.03448   0.04465   0.05145   0.05495   0.06088

 Mulliken charges:
               1
     1  Mg   0.974967
     2  C    0.016843
     3  C   -0.062010
     4  C   -0.069202
     5  C   -0.071898
     6  N   -0.424244
     7  C    0.020921
     8  C   -0.086236
     9  C   -0.130436
    10  C    0.093903
    11  C    0.035959
    12  C    0.015954
    13  C   -0.038620
    14  C    0.256143
    15  O   -0.253413
    16  O   -0.379901
    17  N   -0.506273
    18  C    0.162447
    19  C   -0.150856
    20  C   -0.079291
    21  C    0.145810
    22  C    0.036993
    23  C    0.047975
    24  O   -0.260171
    25  C   -0.004680
    26  N   -0.421552
    27  C    0.072613
    28  C   -0.085499
    29  C   -0.093410
    30  C    0.115243
    31  C    0.021738
    32  C   -0.038191
    33  C   -0.085723
    34  N   -0.413946
    35  C    0.111984
    36  C   -0.221186
    37  C   -0.020197
    38  C    0.079510
    39  C    0.076722
    40  C    0.190796
    41  O   -0.179029
    42  C   -0.110669
    43  C    0.254257
    44  O   -0.269497
    45  O   -0.392742
    46  C    0.117737
    47  C    0.196831
    48  C   -0.121840
    49  C   -0.243334
    50  C    0.023994
    51  C    0.019742
    52  C   -0.050747
    53  C   -0.006423
    54  C   -0.244220
    55  C    0.020224
    56  C   -0.026181
    57  C   -0.059548
    58  C    0.022395
    59  C   -0.247489
    60  C   -0.006894
    61  C   -0.016589
    62  C   -0.035315
    63  C    0.018494
    64  C   -0.243858
    65  C   -0.023669
    66  C   -0.046742
    67  H   -0.004551
    68  H    0.026228
    69  H    0.002185
    70  H    0.082566
    71  H    0.036048
    72  H    0.044913
    73  H    0.035198
    74  H    0.068446
    75  H    0.034302
    76  H    0.029703
    77  H    0.064699
    78  H    0.071773
    79  H    0.035581
    80  H    0.051656
    81  H    0.060671
    82  H    0.085976
    83  H    0.035721
    84  H    0.058534
    85  H    0.048501
    86  H    0.041844
    87  H    0.056030
    88  H    0.052996
    89  H    0.042360
    90  H    0.036331
    91  H    0.039943
    92  H    0.052650
    93  H    0.042161
    94  H    0.036606
    95  H    0.073123
    96  H    0.055766
    97  H    0.032019
    98  H    0.069562
    99  H    0.067605
   100  H    0.069700
   101  H    0.078084
   102  H    0.061551
   103  H    0.069084
   104  H    0.037934
   105  H    0.051514
   106  H    0.041284
   107  H    0.052031
   108  H    0.020731
   109  H    0.038051
   110  H    0.035337
   111  H    0.040620
   112  H    0.029124
   113  H    0.032301
   114  H    0.039486
   115  H    0.035010
   116  H    0.040033
   117  H    0.034391
   118  H    0.022608
   119  H    0.027212
   120  H    0.037779
   121  H    0.032204
   122  H    0.030051
   123  H    0.026493
   124  H    0.028449
   125  H    0.032969
   126  H    0.028977
   127  H    0.029100
   128  H    0.021586
   129  H    0.015456
   130  H    0.036657
   131  H    0.037129
   132  H    0.025096
   133  H    0.019048
   134  H    0.041291
   135  H    0.023192
   136  H    0.046279
   137  H    0.031006
   138  H    0.031079
   139  H    0.035364
   140  H    0.039090
 Sum of Mulliken charges =  -0.00000

 Dipole moment (field-independent basis, Debye):
    X=              5.2466    Y=              3.6723    Z=             -2.1989  Tot=              6.7711
 Quadrupole moment (field-independent basis, Debye-Ang):
   XX=           -376.0009   YY=           -422.3018   ZZ=           -402.0174
   XY=              8.2912   XZ=             12.8219   YZ=              2.7381

 Normal termination of Gaussian 16 at Thu Apr 28 19:06:53 2022.
