 Gaussian 16, Revision A.03,
 Gaussian 16:  ES64L-G16RevA.03 25-Dec-2016

 --------------------------------
 #p wB97XD/Def2SVP td=(nstates=5)
 --------------------------------

 -----------------------------------------------------
 step_1701_chromophore_19 TDDFT with wB97XD functional
 -----------------------------------------------------
 Symbolic Z-matrix:
 Charge =  0 Multiplicity = 1

                         Standard orientation:
 ---------------------------------------------------------------------
 Center     Atomic      Atomic             Coordinates (Angstroms)
 Number     Number       Type             X           Y           Z
 ---------------------------------------------------------------------
      1         12           0       -5.994751    0.338634   -0.206335
      2          6           0       -3.711156   -2.202798   -0.363782
      3          6           0       -3.553404    2.541554    0.190948
      4          6           0       -8.354800    2.674469    0.467750
      5          6           0       -8.505113   -2.183187    0.006464
      6          7           0       -3.933331    0.102135    0.075571
      7          6           0       -3.180555   -0.978238   -0.176151
      8          6           0       -1.692668   -0.596619   -0.253022
      9          6           0       -1.650078    0.823861    0.385952
     10          6           0       -3.144068    1.206908    0.277485
     11          6           0       -1.114167    1.084137    1.836775
     12          6           0       -0.946322   -0.721325   -1.701994
     13          6           0        0.528116   -1.151885   -1.793689
     14          6           0        1.483297   -1.223586   -0.487786
     15          8           0        1.176637   -0.947571    0.663730
     16          8           0        2.760329   -1.625274   -0.879568
     17          7           0       -5.937694    2.377298    0.140222
     18          6           0       -4.816102    3.133538    0.171979
     19          6           0       -5.149942    4.544871    0.309901
     20          6           0       -6.625208    4.596278    0.391072
     21          6           0       -7.062121    3.183463    0.353948
     22          6           0       -4.135972    5.641701    0.203724
     23          6           0       -7.498288    5.871575    0.555154
     24          8           0       -8.734342    5.853756    0.556888
     25          6           0       -6.925641    7.205351    0.529726
     26          7           0       -8.040836    0.237973    0.338501
     27          6           0       -8.818468    1.344221    0.433924
     28          6           0      -10.224194    1.007187    0.822826
     29          6           0      -10.298959   -0.492767    0.543816
     30          6           0       -8.860233   -0.910367    0.207206
     31          6           0      -10.504510    1.430485    2.297025
     32          6           0      -11.420280   -0.827594   -0.550319
     33          6           0      -10.905904   -0.942360   -2.011793
     34          7           0       -6.139737   -1.790947   -0.285418
     35          6           0       -7.211341   -2.656141   -0.325862
     36          6           0       -6.770212   -4.001228   -0.642405
     37          6           0       -5.388632   -3.951684   -0.656809
     38          6           0       -5.056727   -2.519791   -0.422202
     39          6           0       -7.625764   -5.216430   -0.852142
     40          6           0       -4.086064   -4.623686   -0.795654
     41          8           0       -3.904186   -5.792686   -0.949472
     42          6           0       -2.960177   -3.486675   -0.735389
     43          6           0       -1.868317   -3.794220    0.227810
     44          8           0       -2.032660   -3.799191    1.446601
     45          8           0       -0.642112   -4.014071   -0.325780
     46          6           0        0.552514   -4.390577    0.508080
     47          6           0        3.830953   -1.382240    0.084336
     48          6           0        5.261027   -1.105758   -0.501956
     49          6           0        6.299557   -0.621087    0.238211
     50          6           0        6.277682   -0.270114    1.755001
     51          6           0        7.670475   -0.477565   -0.399853
     52          6           0        8.034729    0.983900   -0.660172
     53          6           0        8.392724    1.313544   -2.122100
     54          6           0        9.494692    2.440916   -2.200164
     55          6           0        9.058273    3.545015   -3.165806
     56          6           0       10.896178    1.775391   -2.657455
     57          6           0       12.157788    2.250241   -1.896185
     58          6           0       13.429582    1.407386   -2.240795
     59          6           0       14.078869    0.976552   -0.901524
     60          6           0       15.553889    0.548740   -1.122205
     61          6           0       13.295038   -0.161818   -0.198194
     62          6           0       13.604387   -0.174128    1.354733
     63          6           0       12.472781   -0.860909    2.113495
     64          6           0       12.491875   -0.666732    3.636424
     65          6           0       12.249068   -2.072324    4.335873
     66          6           0       11.328406    0.351619    4.140622
     67          1           0       -2.769012    3.272103    0.397743
     68          1           0       -9.105193    3.468493    0.463755
     69          1           0       -9.288582   -2.944156   -0.020101
     70          1           0       -1.196174   -1.322237    0.390414
     71          1           0       -0.986483    1.368036   -0.285942
     72          1           0       -1.917842    1.380868    2.511473
     73          1           0       -0.444177    1.933527    1.704212
     74          1           0       -0.619921    0.212577    2.264872
     75          1           0       -1.036809    0.148460   -2.352806
     76          1           0       -1.552772   -1.447895   -2.243413
     77          1           0        1.014513   -0.451085   -2.471969
     78          1           0        0.601025   -2.084537   -2.352639
     79          1           0       -3.130688    5.251293    0.046000
     80          1           0       -3.962773    6.198507    1.125097
     81          1           0       -4.392062    6.403162   -0.532270
     82          1           0       -6.745427    7.484679   -0.508972
     83          1           0       -6.036089    7.232899    1.159252
     84          1           0       -7.633222    7.814049    1.091902
     85          1           0      -10.797230    1.557523    0.077663
     86          1           0      -10.611395   -1.070954    1.412708
     87          1           0       -9.620519    1.866551    2.760164
     88          1           0      -10.979317    0.687699    2.939139
     89          1           0      -11.119409    2.326106    2.202276
     90          1           0      -11.996111    0.096832   -0.592628
     91          1           0      -12.110568   -1.594144   -0.198461
     92          1           0       -9.841322   -1.176242   -1.980699
     93          1           0      -11.005018   -0.093445   -2.687984
     94          1           0      -11.352528   -1.769962   -2.562877
     95          1           0       -7.018518   -6.041645   -0.482640
     96          1           0       -7.883630   -5.389129   -1.897154
     97          1           0       -8.599786   -5.035063   -0.398379
     98          1           0       -2.399582   -3.281087   -1.647385
     99          1           0        0.445545   -5.472098    0.589827
    100          1           0        0.461814   -4.062287    1.543748
    101          1           0        1.448986   -3.973006    0.048464
    102          1           0        4.017156   -2.273074    0.684498
    103          1           0        3.571928   -0.553475    0.743949
    104          1           0        5.462069   -1.549264   -1.477195
    105          1           0        7.049884   -0.852770    2.254966
    106          1           0        5.297171   -0.500715    2.172139
    107          1           0        6.531567    0.775756    1.925070
    108          1           0        7.655414   -0.993019   -1.360993
    109          1           0        8.395866   -1.073585    0.153769
    110          1           0        8.823644    1.307629    0.018690
    111          1           0        7.173658    1.597578   -0.395725
    112          1           0        7.433815    1.613150   -2.545944
    113          1           0        8.695638    0.460090   -2.727507
    114          1           0        9.680345    2.895670   -1.226252
    115          1           0        9.785979    3.629270   -3.973714
    116          1           0        9.042409    4.367130   -2.449487
    117          1           0        8.090594    3.323647   -3.616204
    118          1           0       11.112940    2.012207   -3.698599
    119          1           0       10.829142    0.688159   -2.660636
    120          1           0       11.826828    2.313698   -0.859902
    121          1           0       12.545521    3.226566   -2.189048
    122          1           0       14.150093    1.992682   -2.813358
    123          1           0       13.123188    0.498467   -2.756720
    124          1           0       14.133832    1.768190   -0.154469
    125          1           0       15.618915   -0.417248   -1.621862
    126          1           0       16.129028    0.487868   -0.197280
    127          1           0       15.996624    1.383392   -1.665240
    128          1           0       13.439958   -1.068072   -0.787135
    129          1           0       12.244649    0.047451   -0.400924
    130          1           0       13.846240    0.787715    1.807386
    131          1           0       14.497368   -0.790393    1.458233
    132          1           0       12.433823   -1.924366    1.873873
    133          1           0       11.510887   -0.513632    1.736379
    134          1           0       13.435805   -0.298185    4.039078
    135          1           0       11.386318   -1.890950    4.975385
    136          1           0       13.138883   -2.401381    4.871613
    137          1           0       11.894173   -2.854240    3.663510
    138          1           0       11.873920    1.266446    4.369679
    139          1           0       10.837063    0.189372    5.099432
    140          1           0       10.517755    0.564908    3.443761
 ---------------------------------------------------------------------

 SCF Done:  E(RwB97XD) =  -3007.85772108     A.U. after   19 cycles

 Excitation energies and oscillator strengths:

 Excited State   1:      Singlet-A      1.6296 eV  760.82 nm  f=0.4244  <S**2>=0.000
     245 -> 248        0.16677
     246 -> 247        0.68702
     245 <- 248        0.11102
 This state for optimization and/or second-order correction.
 Total Energy, E(TD-HF/TD-DFT) =  -3007.79783404
 Copying the excited state density for this state as the 1-particle RhoCI density.

 Excited State   2:      Singlet-A      2.1954 eV  564.76 nm  f=0.1025  <S**2>=0.000
     245 -> 247        0.63877
     246 -> 248       -0.28282

 Excited State   3:      Singlet-A      3.3675 eV  368.18 nm  f=0.0232  <S**2>=0.000
     243 -> 247        0.25016
     244 -> 247        0.60381
     246 -> 248        0.22776

 Excited State   4:      Singlet-A      3.5511 eV  349.14 nm  f=0.2356  <S**2>=0.000
     241 -> 247        0.11929
     243 -> 247        0.35982
     244 -> 247       -0.31983
     245 -> 247        0.16548
     246 -> 248        0.42886

 Excited State   5:      Singlet-A      3.5976 eV  344.63 nm  f=0.0098  <S**2>=0.000
     240 -> 247        0.51914
     240 -> 248       -0.17870
     240 -> 249        0.35523
     240 -> 250        0.16585

 The electronic state is 1-A.
 Alpha  occ. eigenvalues --  -46.93920 -19.31547 -19.29695 -19.26913 -19.23926
 Alpha  occ. eigenvalues --  -19.23628 -19.23058 -14.46242 -14.46000 -14.43595
 Alpha  occ. eigenvalues --  -14.43129 -10.45592 -10.42262 -10.39166 -10.38951
 Alpha  occ. eigenvalues --  -10.36944 -10.35741 -10.34905 -10.34400 -10.34361
 Alpha  occ. eigenvalues --  -10.33753 -10.33740 -10.33626 -10.33453 -10.33025
 Alpha  occ. eigenvalues --  -10.32833 -10.32264 -10.32208 -10.32109 -10.32024
 Alpha  occ. eigenvalues --  -10.31825 -10.31634 -10.31491 -10.31217 -10.31216
 Alpha  occ. eigenvalues --  -10.31101 -10.30779 -10.30779 -10.30757 -10.30699
 Alpha  occ. eigenvalues --  -10.30587 -10.30418 -10.30285 -10.30074 -10.29923
 Alpha  occ. eigenvalues --  -10.29784 -10.29730 -10.29612 -10.29509 -10.29474
 Alpha  occ. eigenvalues --  -10.29395 -10.29315 -10.29295 -10.29243 -10.29199
 Alpha  occ. eigenvalues --  -10.29147 -10.29043 -10.28916 -10.28875 -10.28800
 Alpha  occ. eigenvalues --  -10.28777 -10.28660 -10.28505 -10.28228 -10.28179
 Alpha  occ. eigenvalues --  -10.28035  -3.20023  -1.93596  -1.93134  -1.93028
 Alpha  occ. eigenvalues --   -1.19123  -1.17119  -1.13390  -1.11651  -1.11382
 Alpha  occ. eigenvalues --   -1.08032  -1.06285  -1.05139  -1.04591  -1.03662
 Alpha  occ. eigenvalues --   -0.93942  -0.92416  -0.91521  -0.90447  -0.90221
 Alpha  occ. eigenvalues --   -0.89970  -0.89605  -0.89181  -0.89067  -0.88732
 Alpha  occ. eigenvalues --   -0.88290  -0.87017  -0.86089  -0.85054  -0.84777
 Alpha  occ. eigenvalues --   -0.84371  -0.84044  -0.83073  -0.82665  -0.82202
 Alpha  occ. eigenvalues --   -0.81907  -0.80057  -0.79396  -0.78872  -0.78215
 Alpha  occ. eigenvalues --   -0.77934  -0.77001  -0.76791  -0.76377  -0.76090
 Alpha  occ. eigenvalues --   -0.75637  -0.74609  -0.73374  -0.72284  -0.71332
 Alpha  occ. eigenvalues --   -0.70184  -0.70044  -0.68998  -0.68786  -0.67377
 Alpha  occ. eigenvalues --   -0.66886  -0.66796  -0.66230  -0.66221  -0.65949
 Alpha  occ. eigenvalues --   -0.65821  -0.65657  -0.64207  -0.63522  -0.62101
 Alpha  occ. eigenvalues --   -0.61846  -0.61266  -0.60757  -0.60115  -0.59068
 Alpha  occ. eigenvalues --   -0.58960  -0.58613  -0.58542  -0.57743  -0.57248
 Alpha  occ. eigenvalues --   -0.56933  -0.56532  -0.56180  -0.56011  -0.55561
 Alpha  occ. eigenvalues --   -0.55420  -0.55393  -0.55299  -0.54905  -0.54847
 Alpha  occ. eigenvalues --   -0.54727  -0.54463  -0.54288  -0.54162  -0.53532
 Alpha  occ. eigenvalues --   -0.53350  -0.53131  -0.52527  -0.52492  -0.52208
 Alpha  occ. eigenvalues --   -0.52047  -0.51988  -0.51727  -0.51482  -0.51257
 Alpha  occ. eigenvalues --   -0.51116  -0.50896  -0.50764  -0.50665  -0.50639
 Alpha  occ. eigenvalues --   -0.50551  -0.50318  -0.50054  -0.49765  -0.49602
 Alpha  occ. eigenvalues --   -0.49241  -0.48908  -0.48865  -0.48695  -0.48442
 Alpha  occ. eigenvalues --   -0.48368  -0.48250  -0.48064  -0.47901  -0.47863
 Alpha  occ. eigenvalues --   -0.47568  -0.47509  -0.47450  -0.47385  -0.47227
 Alpha  occ. eigenvalues --   -0.47063  -0.46460  -0.46303  -0.45916  -0.45612
 Alpha  occ. eigenvalues --   -0.45449  -0.45325  -0.45063  -0.45029  -0.44668
 Alpha  occ. eigenvalues --   -0.44450  -0.44271  -0.44200  -0.43851  -0.43740
 Alpha  occ. eigenvalues --   -0.43384  -0.43325  -0.43189  -0.43059  -0.42654
 Alpha  occ. eigenvalues --   -0.42331  -0.42248  -0.42014  -0.41806  -0.41731
 Alpha  occ. eigenvalues --   -0.41617  -0.41330  -0.40809  -0.40756  -0.40700
 Alpha  occ. eigenvalues --   -0.40558  -0.40257  -0.40224  -0.40116  -0.39745
 Alpha  occ. eigenvalues --   -0.39304  -0.38797  -0.38722  -0.38462  -0.38209
 Alpha  occ. eigenvalues --   -0.37739  -0.37644  -0.37009  -0.36703  -0.35950
 Alpha  occ. eigenvalues --   -0.35922  -0.35225  -0.34578  -0.33179  -0.32876
 Alpha  occ. eigenvalues --   -0.32563  -0.32453  -0.31908  -0.31609  -0.25908
 Alpha  occ. eigenvalues --   -0.22386
 Alpha virt. eigenvalues --   -0.06759   0.00947   0.02759   0.04631   0.05605
 Alpha virt. eigenvalues --    0.06023   0.07259   0.07620   0.08256   0.09807
 Alpha virt. eigenvalues --    0.10119   0.11122   0.11775   0.12296   0.12718

 Mulliken charges:
               1
     1  Mg   0.964187
     2  C    0.018869
     3  C   -0.078618
     4  C   -0.088315
     5  C   -0.086727
     6  N   -0.388661
     7  C   -0.018223
     8  C   -0.053545
     9  C   -0.107953
    10  C    0.085246
    11  C    0.044686
    12  C    0.025895
    13  C   -0.022788
    14  C    0.242012
    15  O   -0.248411
    16  O   -0.378043
    17  N   -0.474635
    18  C    0.156563
    19  C   -0.140256
    20  C   -0.074085
    21  C    0.141364
    22  C    0.046498
    23  C    0.046439
    24  O   -0.253678
    25  C    0.005688
    26  N   -0.390146
    27  C    0.061977
    28  C   -0.056626
    29  C   -0.077253
    30  C    0.109006
    31  C    0.031875
    32  C   -0.021795
    33  C   -0.067883
    34  N   -0.373424
    35  C    0.098958
    36  C   -0.215237
    37  C   -0.018078
    38  C    0.060020
    39  C    0.088185
    40  C    0.168786
    41  O   -0.170993
    42  C   -0.065680
    43  C    0.226444
    44  O   -0.263644
    45  O   -0.388553
    46  C    0.131982
    47  C    0.211354
    48  C   -0.131613
    49  C   -0.228642
    50  C    0.037584
    51  C    0.037552
    52  C   -0.034275
    53  C    0.009022
    54  C   -0.213618
    55  C    0.031538
    56  C   -0.010991
    57  C   -0.041640
    58  C    0.037422
    59  C   -0.211435
    60  C    0.003878
    61  C   -0.001138
    62  C   -0.018388
    63  C    0.034870
    64  C   -0.218800
    65  C   -0.009342
    66  C   -0.033512
    67  H   -0.013240
    68  H    0.021337
    69  H   -0.004092
    70  H    0.059808
    71  H    0.025276
    72  H    0.038681
    73  H    0.029759
    74  H    0.064885
    75  H    0.027753
    76  H    0.019226
    77  H    0.059288
    78  H    0.067405
    79  H    0.032568
    80  H    0.048106
    81  H    0.056502
    82  H    0.083402
    83  H    0.029204
    84  H    0.057798
    85  H    0.036538
    86  H    0.031795
    87  H    0.048546
    88  H    0.049227
    89  H    0.036495
    90  H    0.025472
    91  H    0.034982
    92  H    0.040538
    93  H    0.036912
    94  H    0.031093
    95  H    0.068971
    96  H    0.050291
    97  H    0.024767
    98  H    0.058166
    99  H    0.064860
   100  H    0.067310
   101  H    0.073062
   102  H    0.055448
   103  H    0.062293
   104  H    0.036329
   105  H    0.045990
   106  H    0.035601
   107  H    0.046674
   108  H    0.010452
   109  H    0.031675
   110  H    0.025479
   111  H    0.030327
   112  H    0.019966
   113  H    0.023130
   114  H    0.025866
   115  H    0.028672
   116  H    0.034985
   117  H    0.028408
   118  H    0.012417
   119  H    0.015956
   120  H    0.025590
   121  H    0.024452
   122  H    0.023328
   123  H    0.015812
   124  H    0.013897
   125  H    0.026527
   126  H    0.023322
   127  H    0.022210
   128  H    0.013423
   129  H   -0.001431
   130  H    0.028144
   131  H    0.027694
   132  H    0.015765
   133  H    0.007420
   134  H    0.032255
   135  H    0.015547
   136  H    0.041478
   137  H    0.024391
   138  H    0.024305
   139  H    0.029263
   140  H    0.032991
 Sum of Mulliken charges =  -0.00000

 Dipole moment (field-independent basis, Debye):
    X=              5.3042    Y=              4.2304    Z=             -2.1870  Tot=              7.1284
 Quadrupole moment (field-independent basis, Debye-Ang):
   XX=           -377.2233   YY=           -419.7977   ZZ=           -401.6760
   XY=              4.5015   XZ=             12.7621   YZ=              2.8082

 Normal termination of Gaussian 16 at Thu Apr 28 19:39:13 2022.
