 Gaussian 16, Revision A.03,
 Gaussian 16:  ES64L-G16RevA.03 25-Dec-2016

 --------------------
 #p ZINDO=(nstates=5)
 --------------------

 ------------------------------
 step_1701_chromophore_19 ZINDO
 ------------------------------
 Symbolic Z-matrix:
 Charge =  0 Multiplicity = 1

                         Standard orientation:
 ---------------------------------------------------------------------
 Center     Atomic      Atomic             Coordinates (Angstroms)
 Number     Number       Type             X           Y           Z
 ---------------------------------------------------------------------
      1         12           0       -5.994751    0.338634   -0.206335
      2          6           0       -3.711156   -2.202798   -0.363782
      3          6           0       -3.553404    2.541554    0.190948
      4          6           0       -8.354800    2.674469    0.467750
      5          6           0       -8.505113   -2.183187    0.006464
      6          7           0       -3.933331    0.102135    0.075571
      7          6           0       -3.180555   -0.978238   -0.176151
      8          6           0       -1.692668   -0.596619   -0.253022
      9          6           0       -1.650078    0.823861    0.385952
     10          6           0       -3.144068    1.206908    0.277485
     11          6           0       -1.114167    1.084137    1.836775
     12          6           0       -0.946322   -0.721325   -1.701994
     13          6           0        0.528116   -1.151885   -1.793689
     14          6           0        1.483297   -1.223586   -0.487786
     15          8           0        1.176637   -0.947571    0.663730
     16          8           0        2.760329   -1.625274   -0.879568
     17          7           0       -5.937694    2.377298    0.140222
     18          6           0       -4.816102    3.133538    0.171979
     19          6           0       -5.149942    4.544871    0.309901
     20          6           0       -6.625208    4.596278    0.391072
     21          6           0       -7.062121    3.183463    0.353948
     22          6           0       -4.135972    5.641701    0.203724
     23          6           0       -7.498288    5.871575    0.555154
     24          8           0       -8.734342    5.853756    0.556888
     25          6           0       -6.925641    7.205351    0.529726
     26          7           0       -8.040836    0.237973    0.338501
     27          6           0       -8.818468    1.344221    0.433924
     28          6           0      -10.224194    1.007187    0.822826
     29          6           0      -10.298959   -0.492767    0.543816
     30          6           0       -8.860233   -0.910367    0.207206
     31          6           0      -10.504510    1.430485    2.297025
     32          6           0      -11.420280   -0.827594   -0.550319
     33          6           0      -10.905904   -0.942360   -2.011793
     34          7           0       -6.139737   -1.790947   -0.285418
     35          6           0       -7.211341   -2.656141   -0.325862
     36          6           0       -6.770212   -4.001228   -0.642405
     37          6           0       -5.388632   -3.951684   -0.656809
     38          6           0       -5.056727   -2.519791   -0.422202
     39          6           0       -7.625764   -5.216430   -0.852142
     40          6           0       -4.086064   -4.623686   -0.795654
     41          8           0       -3.904186   -5.792686   -0.949472
     42          6           0       -2.960177   -3.486675   -0.735389
     43          6           0       -1.868317   -3.794220    0.227810
     44          8           0       -2.032660   -3.799191    1.446601
     45          8           0       -0.642112   -4.014071   -0.325780
     46          6           0        0.552514   -4.390577    0.508080
     47          6           0        3.830953   -1.382240    0.084336
     48          6           0        5.261027   -1.105758   -0.501956
     49          6           0        6.299557   -0.621087    0.238211
     50          6           0        6.277682   -0.270114    1.755001
     51          6           0        7.670475   -0.477565   -0.399853
     52          6           0        8.034729    0.983900   -0.660172
     53          6           0        8.392724    1.313544   -2.122100
     54          6           0        9.494692    2.440916   -2.200164
     55          6           0        9.058273    3.545015   -3.165806
     56          6           0       10.896178    1.775391   -2.657455
     57          6           0       12.157788    2.250241   -1.896185
     58          6           0       13.429582    1.407386   -2.240795
     59          6           0       14.078869    0.976552   -0.901524
     60          6           0       15.553889    0.548740   -1.122205
     61          6           0       13.295038   -0.161818   -0.198194
     62          6           0       13.604387   -0.174128    1.354733
     63          6           0       12.472781   -0.860909    2.113495
     64          6           0       12.491875   -0.666732    3.636424
     65          6           0       12.249068   -2.072324    4.335873
     66          6           0       11.328406    0.351619    4.140622
     67          1           0       -2.769012    3.272103    0.397743
     68          1           0       -9.105193    3.468493    0.463755
     69          1           0       -9.288582   -2.944156   -0.020101
     70          1           0       -1.196174   -1.322237    0.390414
     71          1           0       -0.986483    1.368036   -0.285942
     72          1           0       -1.917842    1.380868    2.511473
     73          1           0       -0.444177    1.933527    1.704212
     74          1           0       -0.619921    0.212577    2.264872
     75          1           0       -1.036809    0.148460   -2.352806
     76          1           0       -1.552772   -1.447895   -2.243413
     77          1           0        1.014513   -0.451085   -2.471969
     78          1           0        0.601025   -2.084537   -2.352639
     79          1           0       -3.130688    5.251293    0.046000
     80          1           0       -3.962773    6.198507    1.125097
     81          1           0       -4.392062    6.403162   -0.532270
     82          1           0       -6.745427    7.484679   -0.508972
     83          1           0       -6.036089    7.232899    1.159252
     84          1           0       -7.633222    7.814049    1.091902
     85          1           0      -10.797230    1.557523    0.077663
     86          1           0      -10.611395   -1.070954    1.412708
     87          1           0       -9.620519    1.866551    2.760164
     88          1           0      -10.979317    0.687699    2.939139
     89          1           0      -11.119409    2.326106    2.202276
     90          1           0      -11.996111    0.096832   -0.592628
     91          1           0      -12.110568   -1.594144   -0.198461
     92          1           0       -9.841322   -1.176242   -1.980699
     93          1           0      -11.005018   -0.093445   -2.687984
     94          1           0      -11.352528   -1.769962   -2.562877
     95          1           0       -7.018518   -6.041645   -0.482640
     96          1           0       -7.883630   -5.389129   -1.897154
     97          1           0       -8.599786   -5.035063   -0.398379
     98          1           0       -2.399582   -3.281087   -1.647385
     99          1           0        0.445545   -5.472098    0.589827
    100          1           0        0.461814   -4.062287    1.543748
    101          1           0        1.448986   -3.973006    0.048464
    102          1           0        4.017156   -2.273074    0.684498
    103          1           0        3.571928   -0.553475    0.743949
    104          1           0        5.462069   -1.549264   -1.477195
    105          1           0        7.049884   -0.852770    2.254966
    106          1           0        5.297171   -0.500715    2.172139
    107          1           0        6.531567    0.775756    1.925070
    108          1           0        7.655414   -0.993019   -1.360993
    109          1           0        8.395866   -1.073585    0.153769
    110          1           0        8.823644    1.307629    0.018690
    111          1           0        7.173658    1.597578   -0.395725
    112          1           0        7.433815    1.613150   -2.545944
    113          1           0        8.695638    0.460090   -2.727507
    114          1           0        9.680345    2.895670   -1.226252
    115          1           0        9.785979    3.629270   -3.973714
    116          1           0        9.042409    4.367130   -2.449487
    117          1           0        8.090594    3.323647   -3.616204
    118          1           0       11.112940    2.012207   -3.698599
    119          1           0       10.829142    0.688159   -2.660636
    120          1           0       11.826828    2.313698   -0.859902
    121          1           0       12.545521    3.226566   -2.189048
    122          1           0       14.150093    1.992682   -2.813358
    123          1           0       13.123188    0.498467   -2.756720
    124          1           0       14.133832    1.768190   -0.154469
    125          1           0       15.618915   -0.417248   -1.621862
    126          1           0       16.129028    0.487868   -0.197280
    127          1           0       15.996624    1.383392   -1.665240
    128          1           0       13.439958   -1.068072   -0.787135
    129          1           0       12.244649    0.047451   -0.400924
    130          1           0       13.846240    0.787715    1.807386
    131          1           0       14.497368   -0.790393    1.458233
    132          1           0       12.433823   -1.924366    1.873873
    133          1           0       11.510887   -0.513632    1.736379
    134          1           0       13.435805   -0.298185    4.039078
    135          1           0       11.386318   -1.890950    4.975385
    136          1           0       13.138883   -2.401381    4.871613
    137          1           0       11.894173   -2.854240    3.663510
    138          1           0       11.873920    1.266446    4.369679
    139          1           0       10.837063    0.189372    5.099432
    140          1           0       10.517755    0.564908    3.443761
 ---------------------------------------------------------------------

 SCF Done:  E(RZINDO/S) =  -474.081994958     A.U. after   19 cycles

 Excitation energies and oscillator strengths:

 Excited State   1:      Singlet-A      1.2296 eV 1008.30 nm  f=0.6589  <S**2>=0.000
     175 ->178         0.18112
     176 ->177         0.66652
 This state for optimization and/or second-order correction.
 Total Energy, E(CIS/TDA) =  -474.036806662
 Copying the excited state density for this state as the 1-particle RhoCI density.

 Excited State   2:      Singlet-A      1.9459 eV  637.17 nm  f=0.0422  <S**2>=0.000
     175 ->177         0.54800
     176 ->178        -0.42101

 Excited State   3:      Singlet-A      2.9094 eV  426.15 nm  f=0.0014  <S**2>=0.000
     168 ->177         0.30586
     168 ->178        -0.13350
     168 ->179        -0.42769
     168 ->181         0.25680
     168 ->186        -0.27392

 Excited State   4:      Singlet-A      2.9933 eV  414.20 nm  f=0.6192  <S**2>=0.000
     171 ->177        -0.12131
     175 ->177         0.30360
     176 ->178         0.40920
     176 ->179        -0.37408
     176 ->181        -0.19979

 Excited State   5:      Singlet-A      3.0434 eV  407.39 nm  f=0.3570  <S**2>=0.000
     171 ->177        -0.16412
     175 ->177         0.21227
     176 ->178         0.32301
     176 ->179         0.49984

 The electronic state is 1-A.
 Alpha  occ. eigenvalues --   -1.84536  -1.80978  -1.79769  -1.71308  -1.70128
 Alpha  occ. eigenvalues --   -1.69374  -1.64654  -1.59854  -1.59813  -1.58226
 Alpha  occ. eigenvalues --   -1.54281  -1.50722  -1.48886  -1.48176  -1.45050
 Alpha  occ. eigenvalues --   -1.42679  -1.41529  -1.40159  -1.38408  -1.37947
 Alpha  occ. eigenvalues --   -1.35478  -1.33567  -1.32995  -1.31998  -1.28594
 Alpha  occ. eigenvalues --   -1.27529  -1.25169  -1.21856  -1.20464  -1.18328
 Alpha  occ. eigenvalues --   -1.17806  -1.14634  -1.14477  -1.14040  -1.12286
 Alpha  occ. eigenvalues --   -1.11887  -1.10879  -1.10259  -1.05356  -1.04074
 Alpha  occ. eigenvalues --   -1.03282  -1.01405  -0.99156  -0.98229  -0.96987
 Alpha  occ. eigenvalues --   -0.96610  -0.95115  -0.93856  -0.93020  -0.92134
 Alpha  occ. eigenvalues --   -0.90134  -0.89743  -0.89700  -0.87664  -0.86008
 Alpha  occ. eigenvalues --   -0.84773  -0.83583  -0.82775  -0.81415  -0.80021
 Alpha  occ. eigenvalues --   -0.79582  -0.78757  -0.75976  -0.75631  -0.75242
 Alpha  occ. eigenvalues --   -0.74898  -0.74503  -0.74217  -0.73256  -0.72828
 Alpha  occ. eigenvalues --   -0.72447  -0.71649  -0.71343  -0.71209  -0.70180
 Alpha  occ. eigenvalues --   -0.69649  -0.68876  -0.68729  -0.68245  -0.67443
 Alpha  occ. eigenvalues --   -0.67313  -0.67239  -0.66553  -0.66287  -0.65990
 Alpha  occ. eigenvalues --   -0.64931  -0.64655  -0.63967  -0.63562  -0.63425
 Alpha  occ. eigenvalues --   -0.62845  -0.62441  -0.62157  -0.62120  -0.61899
 Alpha  occ. eigenvalues --   -0.61574  -0.61308  -0.60939  -0.60556  -0.60346
 Alpha  occ. eigenvalues --   -0.60168  -0.59531  -0.59368  -0.58955  -0.58418
 Alpha  occ. eigenvalues --   -0.58256  -0.58102  -0.57250  -0.57140  -0.56667
 Alpha  occ. eigenvalues --   -0.56352  -0.55757  -0.55690  -0.55263  -0.54642
 Alpha  occ. eigenvalues --   -0.53927  -0.53848  -0.53463  -0.53356  -0.53029
 Alpha  occ. eigenvalues --   -0.52413  -0.52304  -0.51893  -0.51534  -0.51345
 Alpha  occ. eigenvalues --   -0.51294  -0.50455  -0.50370  -0.49896  -0.49481
 Alpha  occ. eigenvalues --   -0.49358  -0.49292  -0.49028  -0.48942  -0.48664
 Alpha  occ. eigenvalues --   -0.48376  -0.48068  -0.47814  -0.47622  -0.47408
 Alpha  occ. eigenvalues --   -0.47396  -0.47303  -0.47082  -0.46746  -0.46693
 Alpha  occ. eigenvalues --   -0.46221  -0.46208  -0.45918  -0.45719  -0.45271
 Alpha  occ. eigenvalues --   -0.44809  -0.44734  -0.44486  -0.44199  -0.43768
 Alpha  occ. eigenvalues --   -0.43617  -0.43120  -0.42831  -0.42452  -0.42250
 Alpha  occ. eigenvalues --   -0.41903  -0.41456  -0.40562  -0.39398  -0.38609
 Alpha  occ. eigenvalues --   -0.37295  -0.36795  -0.35180  -0.34865  -0.34312
 Alpha  occ. eigenvalues --   -0.32798  -0.32336  -0.32304  -0.32210  -0.26612
 Alpha  occ. eigenvalues --   -0.21215
 Alpha virt. eigenvalues --   -0.08256  -0.01381  -0.00089   0.01351   0.01732
 Alpha virt. eigenvalues --    0.02265   0.03222   0.03332   0.04166   0.04942
 Alpha virt. eigenvalues --    0.06541   0.07121   0.07316   0.07524   0.08431

 Mulliken charges:
               1
     1  Mg   0.417903
     2  C   -0.029758
     3  C   -0.082763
     4  C   -0.070360
     5  C   -0.049349
     6  N   -0.272479
     7  C    0.127253
     8  C    0.000056
     9  C    0.002351
    10  C    0.144059
    11  C   -0.044249
    12  C   -0.025985
    13  C    0.009692
    14  C    0.463609
    15  O   -0.502900
    16  O   -0.274196
    17  N   -0.335625
    18  C    0.132168
    19  C    0.007117
    20  C   -0.057116
    21  C    0.138585
    22  C   -0.038180
    23  C    0.331389
    24  O   -0.532175
    25  C   -0.025388
    26  N   -0.283506
    27  C    0.168015
    28  C    0.010990
    29  C   -0.001685
    30  C    0.104575
    31  C   -0.049996
    32  C   -0.037977
    33  C   -0.060708
    34  N   -0.305808
    35  C    0.074379
    36  C    0.031856
    37  C   -0.074009
    38  C    0.106822
    39  C   -0.042524
    40  C    0.346039
    41  O   -0.499008
    42  C    0.049573
    43  C    0.487617
    44  O   -0.534510
    45  O   -0.289553
    46  C    0.073988
    47  C    0.097439
    48  C   -0.101896
    49  C   -0.007157
    50  C   -0.043415
    51  C   -0.020994
    52  C   -0.025951
    53  C   -0.035241
    54  C   -0.020971
    55  C   -0.063610
    56  C   -0.045632
    57  C   -0.043594
    58  C   -0.032904
    59  C   -0.020490
    60  C   -0.064295
    61  C   -0.042198
    62  C   -0.030964
    63  C   -0.028356
    64  C   -0.014283
    65  C   -0.069083
    66  C   -0.069482
    67  H    0.015576
    68  H    0.041913
    69  H    0.024058
    70  H    0.045590
    71  H    0.023097
    72  H    0.023002
    73  H    0.019774
    74  H    0.041267
    75  H    0.023856
    76  H    0.015192
    77  H    0.034872
    78  H    0.044500
    79  H    0.023263
    80  H    0.027717
    81  H    0.031881
    82  H    0.055887
    83  H    0.021274
    84  H    0.041710
    85  H    0.036275
    86  H    0.025633
    87  H    0.029223
    88  H    0.031738
    89  H    0.017045
    90  H    0.011728
    91  H    0.030999
    92  H    0.021201
    93  H    0.024464
    94  H    0.013167
    95  H    0.042950
    96  H    0.030324
    97  H    0.024648
    98  H    0.049630
    99  H    0.045155
   100  H    0.052537
   101  H    0.047618
   102  H    0.045633
   103  H    0.051983
   104  H    0.039066
   105  H    0.029521
   106  H    0.025931
   107  H    0.029648
   108  H    0.012048
   109  H    0.025328
   110  H    0.018027
   111  H    0.018562
   112  H    0.015392
   113  H    0.024751
   114  H    0.025810
   115  H    0.024288
   116  H    0.024790
   117  H    0.023208
   118  H    0.012813
   119  H    0.020791
   120  H    0.025010
   121  H    0.016802
   122  H    0.024694
   123  H    0.024171
   124  H    0.019367
   125  H    0.023808
   126  H    0.012599
   127  H    0.013508
   128  H    0.026083
   129  H    0.009661
   130  H    0.031617
   131  H    0.015695
   132  H    0.018147
   133  H    0.014821
   134  H    0.028178
   135  H    0.017538
   136  H    0.023841
   137  H    0.019874
   138  H    0.007192
   139  H    0.021524
   140  H    0.024359
 Sum of Mulliken charges =  -0.00000

 Dipole moment (field-independent basis, Debye):
    X=              5.8365    Y=              6.5769    Z=             -3.9974  Tot=              9.6592
 N-N= 4.284687251701D+03 E-N= 0.000000000000D+00  KE=-9.244099747555D+03
 Leave Link  601 at Thu Apr 28 19:51:38 2022, MaxMem=  6710886400 cpu:               0.7 elap:               0.0
 (Enter /sw/apps/gaussian-16.0/g16/l9999.exe)
 1\1\GINC-BP1-COMPUTE132\SP\RZINDO CIS\STO-3G\C55H74Mg1N4O6\OF15641\28-
 Apr-2022\0\\#p ZINDO=(nstates=5)\\step_1701_chromophore_19 ZINDO\\0,1\
 Mg,0,26.,50.566,26.273\C,0,23.903,51.62,28.761\C,0,28.06,49.274,28.522
 \C,0,28.235,50.056,23.778\C,0,24.042,52.542,24.044\N,0,26.017,50.656,2
 8.365\C,0,25.012,50.985,29.189\C,0,25.304,50.503,30.62\C,0,26.828,50.1
 8,30.589\C,0,27.043,50.068,29.062\C,0,27.906,51.119,31.234\C,0,24.362,
 49.316,31.233\C,0,23.99,49.298,32.726\C,0,24.723,50.259,33.804\O,0,25.

 Normal termination of Gaussian 16 at Thu Apr 28 19:51:38 2022.
