 Gaussian 16, Revision A.03,
 Gaussian 16:  ES64L-G16RevA.03 25-Dec-2016

 ------------------------------
 #p blyp/Def2SVP td=(nstates=5)
 ------------------------------

 -------------------------------------------------
 step_251_chromophore_6 TDDFT with blyp functional
 -------------------------------------------------
 Symbolic Z-matrix:
 Charge =  0 Multiplicity = 1

                         Standard orientation:
 ---------------------------------------------------------------------
 Center     Atomic      Atomic             Coordinates (Angstroms)
 Number     Number       Type             X           Y           Z
 ---------------------------------------------------------------------
      1         12           0       -5.772991    0.942658   -0.356431
      2          6           0       -4.633987   -2.305711   -0.192726
      3          6           0       -2.508283    1.952556   -0.186627
      4          6           0       -6.889635    4.126949   -0.222992
      5          6           0       -9.037551   -0.177379    0.064636
      6          7           0       -3.807204   -0.158158   -0.065219
      7          6           0       -3.579949   -1.404887   -0.224978
      8          6           0       -2.030349   -1.859423   -0.247716
      9          6           0       -1.385449   -0.451629    0.065066
     10          6           0       -2.637138    0.547223    0.022167
     11          6           0       -0.698842   -0.320527    1.523995
     12          6           0       -1.528874   -2.510139   -1.609112
     13          6           0       -0.398844   -3.596840   -1.527076
     14          6           0        0.293558   -3.747686   -0.206300
     15          8           0        0.018345   -4.470899    0.747120
     16          8           0        1.480835   -3.031993   -0.209116
     17          7           0       -4.866996    2.741831   -0.303103
     18          6           0       -3.439696    2.998037   -0.321750
     19          6           0       -3.256747    4.444958   -0.369019
     20          6           0       -4.513548    5.091760   -0.266304
     21          6           0       -5.496695    3.985616   -0.304871
     22          6           0       -1.865950    4.944467   -0.528454
     23          6           0       -4.888926    6.592169   -0.254896
     24          8           0       -5.981554    7.036752   -0.063253
     25          6           0       -3.691778    7.561364   -0.329517
     26          7           0       -7.677624    1.918161   -0.006923
     27          6           0       -7.900454    3.194239    0.008791
     28          6           0       -9.349984    3.520247    0.467937
     29          6           0      -10.062084    2.146443    0.447863
     30          6           0       -8.875522    1.205749    0.131755
     31          6           0       -9.352754    4.208556    1.849501
     32          6           0      -11.240933    2.098952   -0.572053
     33          6           0      -12.481147    2.913095   -0.169288
     34          7           0       -6.707913   -0.879883   -0.109554
     35          6           0       -8.059283   -1.171374   -0.054090
     36          6           0       -8.168307   -2.606322   -0.032642
     37          6           0       -6.852277   -3.158112   -0.042952
     38          6           0       -6.029049   -2.002316   -0.127946
     39          6           0       -9.384398   -3.327894    0.056285
     40          6           0       -6.033286   -4.327070   -0.094114
     41          8           0       -6.385532   -5.540401    0.002477
     42          6           0       -4.549486   -3.790635   -0.073957
     43          6           0       -3.913678   -4.325216    1.111267
     44          8           0       -4.028785   -3.845458    2.238801
     45          8           0       -3.321288   -5.509210    0.752438
     46          6           0       -2.853805   -6.298218    1.911768
     47          6           0        2.435529   -3.193609    0.906326
     48          6           0        3.773110   -2.591546    0.643252
     49          6           0        4.921225   -3.137306    0.245946
     50          6           0        5.193848   -4.604474   -0.178222
     51          6           0        6.216010   -2.264426    0.194354
     52          6           0        6.293982   -1.227972   -0.976619
     53          6           0        7.390943   -1.511865   -1.998679
     54          6           0        8.617880   -0.558210   -1.886903
     55          6           0        9.163633   -0.265115   -3.318647
     56          6           0        9.713051   -1.150200   -0.976989
     57          6           0       10.661651   -0.064975   -0.374182
     58          6           0       12.143712   -0.240557   -0.867451
     59          6           0       13.023549    1.050354   -0.689119
     60          6           0       13.091613    1.697047   -2.029718
     61          6           0       14.435297    0.682594   -0.154950
     62          6           0       15.186671    1.941967    0.239162
     63          6           0       15.792991    1.977607    1.661991
     64          6           0       16.972049    2.952241    1.836961
     65          6           0       16.698213    4.032427    2.961895
     66          6           0       18.327762    2.242097    1.855643
     67          1           0       -1.478286    2.305307   -0.107822
     68          1           0       -7.176950    5.180994   -0.207062
     69          1           0      -10.085726   -0.479230    0.124575
     70          1           0       -1.946231   -2.511148    0.622301
     71          1           0       -0.609427   -0.224865   -0.665737
     72          1           0       -1.105746   -1.108619    2.158225
     73          1           0       -0.930104    0.654843    1.951816
     74          1           0        0.388469   -0.397438    1.555693
     75          1           0       -1.131663   -1.660984   -2.164587
     76          1           0       -2.301949   -2.789773   -2.325662
     77          1           0        0.391711   -3.465444   -2.265799
     78          1           0       -0.842895   -4.580610   -1.679393
     79          1           0       -1.367505    5.009056    0.439174
     80          1           0       -1.802355    5.837452   -1.150414
     81          1           0       -1.333988    4.204205   -1.125585
     82          1           0       -3.229253    7.637847   -1.314045
     83          1           0       -3.024416    7.132128    0.417118
     84          1           0       -3.882080    8.578610    0.011375
     85          1           0       -9.710286    4.160523   -0.336899
     86          1           0      -10.404612    1.898641    1.452509
     87          1           0       -8.484503    4.011224    2.478612
     88          1           0      -10.140795    3.940524    2.554026
     89          1           0       -9.410507    5.276014    1.636861
     90          1           0      -11.582653    1.068870   -0.663398
     91          1           0      -10.893071    2.426514   -1.552328
     92          1           0      -12.234803    3.457340    0.742432
     93          1           0      -13.242611    2.229256    0.206029
     94          1           0      -12.968410    3.538334   -0.917067
     95          1           0      -10.049388   -2.826581   -0.647080
     96          1           0       -9.886896   -3.311337    1.023268
     97          1           0       -9.174348   -4.382364   -0.125741
     98          1           0       -4.111087   -4.260146   -0.954956
     99          1           0       -3.751652   -6.600951    2.451322
    100          1           0       -2.098291   -5.766031    2.488810
    101          1           0       -2.377155   -7.196362    1.518723
    102          1           0        2.625104   -4.237297    1.156592
    103          1           0        2.122203   -2.610621    1.772633
    104          1           0        3.952106   -1.551817    0.919103
    105          1           0        4.375920   -5.300517    0.009842
    106          1           0        6.115771   -5.117456    0.092992
    107          1           0        5.287611   -4.690376   -1.261111
    108          1           0        7.095592   -2.904141    0.122697
    109          1           0        6.254543   -1.719473    1.137177
    110          1           0        6.405466   -0.235893   -0.540876
    111          1           0        5.326480   -1.213173   -1.478765
    112          1           0        6.941674   -1.606564   -2.986606
    113          1           0        7.757966   -2.520055   -1.810614
    114          1           0        8.280526    0.431818   -1.582558
    115          1           0        8.704991    0.659627   -3.669018
    116          1           0        9.017051   -1.100545   -4.003095
    117          1           0       10.252465   -0.224233   -3.295864
    118          1           0       10.318212   -1.887346   -1.504078
    119          1           0        9.318521   -1.745977   -0.153063
    120          1           0       10.586230   -0.232578    0.700488
    121          1           0       10.225850    0.905625   -0.614234
    122          1           0       12.177662   -0.642811   -1.879795
    123          1           0       12.676693   -0.916371   -0.199523
    124          1           0       12.580906    1.721560    0.046271
    125          1           0       13.273964    2.771506   -2.041346
    126          1           0       12.227066    1.488241   -2.659907
    127          1           0       13.926924    1.367093   -2.648277
    128          1           0       15.020657    0.172284   -0.920555
    129          1           0       14.563825    0.025085    0.704332
    130          1           0       14.550669    2.791846   -0.004888
    131          1           0       16.005475    1.971209   -0.480151
    132          1           0       16.063723    0.968623    1.972209
    133          1           0       14.918420    2.304222    2.225472
    134          1           0       17.036449    3.547268    0.926486
    135          1           0       16.120640    3.642581    3.800157
    136          1           0       16.241338    4.952915    2.599702
    137          1           0       17.640966    4.325456    3.422915
    138          1           0       18.519072    1.838531    2.849214
    139          1           0       19.089069    2.963089    1.557945
    140          1           0       18.284071    1.344512    1.237612
 ---------------------------------------------------------------------

 SCF Done:  E(RB-LYP) =  -3007.39896974     A.U. after   20 cycles

 Excitation energies and oscillator strengths:

 Excited State   1:      Singlet-A      1.8481 eV  670.89 nm  f=0.2996  <S**2>=0.000
     245 -> 248       -0.21153
     246 -> 247        0.68073
     246 <- 247       -0.13742
 This state for optimization and/or second-order correction.
 Total Energy, E(TD-HF/TD-DFT) =  -3007.33105454
 Copying the excited state density for this state as the 1-particle RhoCI density.

 Excited State   2:      Singlet-A      1.9119 eV  648.50 nm  f=0.0051  <S**2>=0.000
     244 -> 247        0.67326
     245 -> 247       -0.20354

 Excited State   3:      Singlet-A      1.9819 eV  625.57 nm  f=0.0728  <S**2>=0.000
     244 -> 247        0.21098
     245 -> 247        0.62445
     246 -> 248        0.21649

 Excited State   4:      Singlet-A      2.2225 eV  557.86 nm  f=0.0006  <S**2>=0.000
     243 -> 247        0.70427

 Excited State   5:      Singlet-A      2.5412 eV  487.90 nm  f=0.0011  <S**2>=0.000
     240 -> 247        0.21745
     241 -> 247        0.50372
     242 -> 247        0.43356

 The electronic state is 1-A.
 Alpha  occ. eigenvalues --  -46.26833 -18.81594 -18.80919 -18.77011 -18.76628
 Alpha  occ. eigenvalues --  -18.75499 -18.75113 -14.03246 -14.02700 -14.01020
 Alpha  occ. eigenvalues --  -14.00584 -10.04326 -10.02410 -10.00761  -9.99261
 Alpha  occ. eigenvalues --   -9.98052  -9.97019  -9.96187  -9.96052  -9.96000
 Alpha  occ. eigenvalues --   -9.95892  -9.95884  -9.95794  -9.94979  -9.94844
 Alpha  occ. eigenvalues --   -9.94781  -9.94559  -9.94360  -9.94283  -9.94124
 Alpha  occ. eigenvalues --   -9.94011  -9.93655  -9.93608  -9.93361  -9.93255
 Alpha  occ. eigenvalues --   -9.92980  -9.92885  -9.92844  -9.92751  -9.92660
 Alpha  occ. eigenvalues --   -9.92604  -9.92599  -9.92369  -9.92351  -9.92218
 Alpha  occ. eigenvalues --   -9.92004  -9.91984  -9.91948  -9.91946  -9.91830
 Alpha  occ. eigenvalues --   -9.91757  -9.91668  -9.91626  -9.91362  -9.91266
 Alpha  occ. eigenvalues --   -9.91240  -9.91224  -9.91140  -9.91097  -9.91048
 Alpha  occ. eigenvalues --   -9.91032  -9.91012  -9.90670  -9.90643  -9.90562
 Alpha  occ. eigenvalues --   -9.90473  -2.91538  -1.71955  -1.71442  -1.71236
 Alpha  occ. eigenvalues --   -0.97141  -0.96114  -0.93734  -0.89147  -0.88618
 Alpha  occ. eigenvalues --   -0.88337  -0.87542  -0.86597  -0.85944  -0.83100
 Alpha  occ. eigenvalues --   -0.75258  -0.73703  -0.73238  -0.72555  -0.72474
 Alpha  occ. eigenvalues --   -0.71983  -0.71479  -0.70952  -0.70906  -0.70405
 Alpha  occ. eigenvalues --   -0.70104  -0.69020  -0.68111  -0.67291  -0.66995
 Alpha  occ. eigenvalues --   -0.66472  -0.65872  -0.65267  -0.64937  -0.64263
 Alpha  occ. eigenvalues --   -0.64170  -0.62619  -0.62339  -0.61717  -0.60849
 Alpha  occ. eigenvalues --   -0.60372  -0.60048  -0.59647  -0.59540  -0.59151
 Alpha  occ. eigenvalues --   -0.58385  -0.57224  -0.56522  -0.56203  -0.54745
 Alpha  occ. eigenvalues --   -0.54153  -0.53671  -0.52551  -0.52078  -0.51669
 Alpha  occ. eigenvalues --   -0.51283  -0.50746  -0.50563  -0.50352  -0.50081
 Alpha  occ. eigenvalues --   -0.49738  -0.49653  -0.49166  -0.47234  -0.46318
 Alpha  occ. eigenvalues --   -0.46203  -0.45828  -0.45548  -0.44970  -0.44342
 Alpha  occ. eigenvalues --   -0.43797  -0.43008  -0.42742  -0.42606  -0.42020
 Alpha  occ. eigenvalues --   -0.41847  -0.41620  -0.41484  -0.41396  -0.40990
 Alpha  occ. eigenvalues --   -0.40905  -0.40884  -0.40315  -0.40078  -0.39936
 Alpha  occ. eigenvalues --   -0.39531  -0.39508  -0.39413  -0.39295  -0.39155
 Alpha  occ. eigenvalues --   -0.39076  -0.38860  -0.38480  -0.38350  -0.38298
 Alpha  occ. eigenvalues --   -0.38070  -0.37850  -0.37707  -0.37089  -0.37057
 Alpha  occ. eigenvalues --   -0.36970  -0.36740  -0.36523  -0.36408  -0.36272
 Alpha  occ. eigenvalues --   -0.36240  -0.36040  -0.35732  -0.35569  -0.35367
 Alpha  occ. eigenvalues --   -0.35063  -0.34770  -0.34621  -0.34384  -0.34307
 Alpha  occ. eigenvalues --   -0.34200  -0.34150  -0.34080  -0.34001  -0.33864
 Alpha  occ. eigenvalues --   -0.33718  -0.33642  -0.33190  -0.33146  -0.33056
 Alpha  occ. eigenvalues --   -0.32751  -0.32730  -0.32419  -0.31997  -0.31943
 Alpha  occ. eigenvalues --   -0.31801  -0.31714  -0.31632  -0.31343  -0.31275
 Alpha  occ. eigenvalues --   -0.31128  -0.31086  -0.31071  -0.30906  -0.30501
 Alpha  occ. eigenvalues --   -0.30343  -0.30221  -0.30086  -0.29988  -0.29867
 Alpha  occ. eigenvalues --   -0.29625  -0.29442  -0.29308  -0.29173  -0.28988
 Alpha  occ. eigenvalues --   -0.28658  -0.28618  -0.28345  -0.28252  -0.28061
 Alpha  occ. eigenvalues --   -0.27689  -0.27431  -0.27228  -0.26873  -0.26481
 Alpha  occ. eigenvalues --   -0.26349  -0.26264  -0.25798  -0.25618  -0.25395
 Alpha  occ. eigenvalues --   -0.25024  -0.24960  -0.24054  -0.23921  -0.23539
 Alpha  occ. eigenvalues --   -0.23382  -0.22350  -0.21971  -0.21101  -0.20884
 Alpha  occ. eigenvalues --   -0.20560  -0.20108  -0.19353  -0.18205  -0.16880
 Alpha  occ. eigenvalues --   -0.15800
 Alpha virt. eigenvalues --   -0.11290  -0.06661  -0.06345  -0.04730  -0.03667
 Alpha virt. eigenvalues --   -0.03095  -0.02300  -0.01609  -0.01085   0.00747
 Alpha virt. eigenvalues --    0.01761   0.02015   0.02490   0.03037   0.03144

 Mulliken charges:
               1
     1  Mg   0.702120
     2  C    0.070082
     3  C   -0.043856
     4  C   -0.043681
     5  C   -0.090934
     6  N   -0.138936
     7  C   -0.169900
     8  C    0.029211
     9  C   -0.038090
    10  C    0.030076
    11  C    0.090473
    12  C    0.126360
    13  C    0.180880
    14  C    0.055251
    15  O   -0.200219
    16  O   -0.290025
    17  N   -0.361470
    18  C    0.136625
    19  C   -0.123463
    20  C    0.000135
    21  C    0.090394
    22  C    0.166683
    23  C   -0.042845
    24  O   -0.119976
    25  C    0.093781
    26  N   -0.188261
    27  C   -0.019028
    28  C    0.060605
    29  C    0.034884
    30  C    0.015598
    31  C    0.123666
    32  C    0.080563
    33  C    0.078064
    34  N   -0.242131
    35  C    0.154450
    36  C   -0.167907
    37  C    0.132277
    38  C    0.043592
    39  C    0.163837
    40  C   -0.083148
    41  O   -0.177263
    42  C    0.069949
    43  C    0.126253
    44  O   -0.202101
    45  O   -0.272525
    46  C    0.232317
    47  C    0.366692
    48  C   -0.110838
    49  C   -0.123286
    50  C    0.116496
    51  C    0.100613
    52  C    0.094883
    53  C    0.107675
    54  C   -0.071268
    55  C    0.102646
    56  C    0.090949
    57  C    0.084679
    58  C    0.108305
    59  C   -0.063947
    60  C    0.116628
    61  C    0.103643
    62  C    0.025390
    63  C    0.125790
    64  C   -0.067958
    65  C    0.089794
    66  C    0.106290
    67  H   -0.062409
    68  H   -0.056780
    69  H   -0.066788
    70  H    0.022262
    71  H   -0.018030
    72  H    0.009201
    73  H   -0.007998
    74  H   -0.005432
    75  H   -0.034263
    76  H   -0.013613
    77  H   -0.000121
    78  H    0.006970
    79  H    0.013685
    80  H   -0.008994
    81  H   -0.008742
    82  H    0.022671
    83  H    0.007611
    84  H   -0.012917
    85  H   -0.023986
    86  H   -0.027145
    87  H   -0.004921
    88  H   -0.011004
    89  H    0.004614
    90  H   -0.024075
    91  H   -0.020633
    92  H   -0.017287
    93  H   -0.021380
    94  H    0.003436
    95  H   -0.005368
    96  H   -0.000153
    97  H    0.005673
    98  H   -0.013870
    99  H    0.016640
   100  H    0.026038
   101  H    0.002068
   102  H   -0.002239
   103  H   -0.006907
   104  H   -0.046052
   105  H   -0.019347
   106  H   -0.004495
   107  H   -0.010699
   108  H   -0.025203
   109  H   -0.020965
   110  H   -0.033944
   111  H   -0.029920
   112  H   -0.039578
   113  H   -0.043192
   114  H   -0.032995
   115  H   -0.007387
   116  H   -0.022486
   117  H   -0.025884
   118  H   -0.037165
   119  H   -0.042262
   120  H   -0.029726
   121  H   -0.025010
   122  H   -0.022709
   123  H   -0.046356
   124  H   -0.033958
   125  H   -0.024498
   126  H   -0.017519
   127  H   -0.031414
   128  H   -0.043129
   129  H   -0.043434
   130  H   -0.027988
   131  H   -0.043714
   132  H   -0.035428
   133  H   -0.038404
   134  H   -0.036110
   135  H   -0.015334
   136  H   -0.009138
   137  H   -0.033061
   138  H   -0.021112
   139  H   -0.004835
   140  H   -0.016904
 Sum of Mulliken charges =  -0.00000

 Dipole moment (field-independent basis, Debye):
    X=              4.6523    Y=              3.0417    Z=             -2.7307  Tot=              6.1929
 Quadrupole moment (field-independent basis, Debye-Ang):
   XX=           -376.9929   YY=           -434.2502   ZZ=           -404.7910
   XY=            -23.5402   XZ=              5.8805   YZ=              5.1846

 Normal termination of Gaussian 16 at Fri Apr 29 11:37:31 2022.
