 Gaussian 16, Revision A.03,
 Gaussian 16:  ES64L-G16RevA.03 25-Dec-2016

 -----------------------------------
 #p cam-b3lyp/Def2SVP td=(nstates=5)
 -----------------------------------

 ------------------------------------------------------
 step_251_chromophore_6 TDDFT with cam-b3lyp functional
 ------------------------------------------------------
 Symbolic Z-matrix:
 Charge =  0 Multiplicity = 1

                         Standard orientation:
 ---------------------------------------------------------------------
 Center     Atomic      Atomic             Coordinates (Angstroms)
 Number     Number       Type             X           Y           Z
 ---------------------------------------------------------------------
      1         12           0       -5.772991    0.942658   -0.356431
      2          6           0       -4.633987   -2.305711   -0.192726
      3          6           0       -2.508283    1.952556   -0.186627
      4          6           0       -6.889635    4.126949   -0.222992
      5          6           0       -9.037551   -0.177379    0.064636
      6          7           0       -3.807204   -0.158158   -0.065219
      7          6           0       -3.579949   -1.404887   -0.224978
      8          6           0       -2.030349   -1.859423   -0.247716
      9          6           0       -1.385449   -0.451629    0.065066
     10          6           0       -2.637138    0.547223    0.022167
     11          6           0       -0.698842   -0.320527    1.523995
     12          6           0       -1.528874   -2.510139   -1.609112
     13          6           0       -0.398844   -3.596840   -1.527076
     14          6           0        0.293558   -3.747686   -0.206300
     15          8           0        0.018345   -4.470899    0.747120
     16          8           0        1.480835   -3.031993   -0.209116
     17          7           0       -4.866996    2.741831   -0.303103
     18          6           0       -3.439696    2.998037   -0.321750
     19          6           0       -3.256747    4.444958   -0.369019
     20          6           0       -4.513548    5.091760   -0.266304
     21          6           0       -5.496695    3.985616   -0.304871
     22          6           0       -1.865950    4.944467   -0.528454
     23          6           0       -4.888926    6.592169   -0.254896
     24          8           0       -5.981554    7.036752   -0.063253
     25          6           0       -3.691778    7.561364   -0.329517
     26          7           0       -7.677624    1.918161   -0.006923
     27          6           0       -7.900454    3.194239    0.008791
     28          6           0       -9.349984    3.520247    0.467937
     29          6           0      -10.062084    2.146443    0.447863
     30          6           0       -8.875522    1.205749    0.131755
     31          6           0       -9.352754    4.208556    1.849501
     32          6           0      -11.240933    2.098952   -0.572053
     33          6           0      -12.481147    2.913095   -0.169288
     34          7           0       -6.707913   -0.879883   -0.109554
     35          6           0       -8.059283   -1.171374   -0.054090
     36          6           0       -8.168307   -2.606322   -0.032642
     37          6           0       -6.852277   -3.158112   -0.042952
     38          6           0       -6.029049   -2.002316   -0.127946
     39          6           0       -9.384398   -3.327894    0.056285
     40          6           0       -6.033286   -4.327070   -0.094114
     41          8           0       -6.385532   -5.540401    0.002477
     42          6           0       -4.549486   -3.790635   -0.073957
     43          6           0       -3.913678   -4.325216    1.111267
     44          8           0       -4.028785   -3.845458    2.238801
     45          8           0       -3.321288   -5.509210    0.752438
     46          6           0       -2.853805   -6.298218    1.911768
     47          6           0        2.435529   -3.193609    0.906326
     48          6           0        3.773110   -2.591546    0.643252
     49          6           0        4.921225   -3.137306    0.245946
     50          6           0        5.193848   -4.604474   -0.178222
     51          6           0        6.216010   -2.264426    0.194354
     52          6           0        6.293982   -1.227972   -0.976619
     53          6           0        7.390943   -1.511865   -1.998679
     54          6           0        8.617880   -0.558210   -1.886903
     55          6           0        9.163633   -0.265115   -3.318647
     56          6           0        9.713051   -1.150200   -0.976989
     57          6           0       10.661651   -0.064975   -0.374182
     58          6           0       12.143712   -0.240557   -0.867451
     59          6           0       13.023549    1.050354   -0.689119
     60          6           0       13.091613    1.697047   -2.029718
     61          6           0       14.435297    0.682594   -0.154950
     62          6           0       15.186671    1.941967    0.239162
     63          6           0       15.792991    1.977607    1.661991
     64          6           0       16.972049    2.952241    1.836961
     65          6           0       16.698213    4.032427    2.961895
     66          6           0       18.327762    2.242097    1.855643
     67          1           0       -1.478286    2.305307   -0.107822
     68          1           0       -7.176950    5.180994   -0.207062
     69          1           0      -10.085726   -0.479230    0.124575
     70          1           0       -1.946231   -2.511148    0.622301
     71          1           0       -0.609427   -0.224865   -0.665737
     72          1           0       -1.105746   -1.108619    2.158225
     73          1           0       -0.930104    0.654843    1.951816
     74          1           0        0.388469   -0.397438    1.555693
     75          1           0       -1.131663   -1.660984   -2.164587
     76          1           0       -2.301949   -2.789773   -2.325662
     77          1           0        0.391711   -3.465444   -2.265799
     78          1           0       -0.842895   -4.580610   -1.679393
     79          1           0       -1.367505    5.009056    0.439174
     80          1           0       -1.802355    5.837452   -1.150414
     81          1           0       -1.333988    4.204205   -1.125585
     82          1           0       -3.229253    7.637847   -1.314045
     83          1           0       -3.024416    7.132128    0.417118
     84          1           0       -3.882080    8.578610    0.011375
     85          1           0       -9.710286    4.160523   -0.336899
     86          1           0      -10.404612    1.898641    1.452509
     87          1           0       -8.484503    4.011224    2.478612
     88          1           0      -10.140795    3.940524    2.554026
     89          1           0       -9.410507    5.276014    1.636861
     90          1           0      -11.582653    1.068870   -0.663398
     91          1           0      -10.893071    2.426514   -1.552328
     92          1           0      -12.234803    3.457340    0.742432
     93          1           0      -13.242611    2.229256    0.206029
     94          1           0      -12.968410    3.538334   -0.917067
     95          1           0      -10.049388   -2.826581   -0.647080
     96          1           0       -9.886896   -3.311337    1.023268
     97          1           0       -9.174348   -4.382364   -0.125741
     98          1           0       -4.111087   -4.260146   -0.954956
     99          1           0       -3.751652   -6.600951    2.451322
    100          1           0       -2.098291   -5.766031    2.488810
    101          1           0       -2.377155   -7.196362    1.518723
    102          1           0        2.625104   -4.237297    1.156592
    103          1           0        2.122203   -2.610621    1.772633
    104          1           0        3.952106   -1.551817    0.919103
    105          1           0        4.375920   -5.300517    0.009842
    106          1           0        6.115771   -5.117456    0.092992
    107          1           0        5.287611   -4.690376   -1.261111
    108          1           0        7.095592   -2.904141    0.122697
    109          1           0        6.254543   -1.719473    1.137177
    110          1           0        6.405466   -0.235893   -0.540876
    111          1           0        5.326480   -1.213173   -1.478765
    112          1           0        6.941674   -1.606564   -2.986606
    113          1           0        7.757966   -2.520055   -1.810614
    114          1           0        8.280526    0.431818   -1.582558
    115          1           0        8.704991    0.659627   -3.669018
    116          1           0        9.017051   -1.100545   -4.003095
    117          1           0       10.252465   -0.224233   -3.295864
    118          1           0       10.318212   -1.887346   -1.504078
    119          1           0        9.318521   -1.745977   -0.153063
    120          1           0       10.586230   -0.232578    0.700488
    121          1           0       10.225850    0.905625   -0.614234
    122          1           0       12.177662   -0.642811   -1.879795
    123          1           0       12.676693   -0.916371   -0.199523
    124          1           0       12.580906    1.721560    0.046271
    125          1           0       13.273964    2.771506   -2.041346
    126          1           0       12.227066    1.488241   -2.659907
    127          1           0       13.926924    1.367093   -2.648277
    128          1           0       15.020657    0.172284   -0.920555
    129          1           0       14.563825    0.025085    0.704332
    130          1           0       14.550669    2.791846   -0.004888
    131          1           0       16.005475    1.971209   -0.480151
    132          1           0       16.063723    0.968623    1.972209
    133          1           0       14.918420    2.304222    2.225472
    134          1           0       17.036449    3.547268    0.926486
    135          1           0       16.120640    3.642581    3.800157
    136          1           0       16.241338    4.952915    2.599702
    137          1           0       17.640966    4.325456    3.422915
    138          1           0       18.519072    1.838531    2.849214
    139          1           0       19.089069    2.963089    1.557945
    140          1           0       18.284071    1.344512    1.237612
 ---------------------------------------------------------------------

 SCF Done:  E(RCAM-B3LYP) =  -3007.18914699     A.U. after   18 cycles

 Excitation energies and oscillator strengths:

 Excited State   1:      Singlet-A      1.7728 eV  699.38 nm  f=0.3716  <S**2>=0.000
     245 -> 248       -0.19971
     246 -> 247        0.67915
     245 <- 248       -0.10979
 This state for optimization and/or second-order correction.
 Total Energy, E(TD-HF/TD-DFT) =  -3007.12399836
 Copying the excited state density for this state as the 1-particle RhoCI density.

 Excited State   2:      Singlet-A      2.2140 eV  560.00 nm  f=0.1172  <S**2>=0.000
     245 -> 247        0.64280
     246 -> 248        0.28182

 Excited State   3:      Singlet-A      3.3895 eV  365.79 nm  f=0.0009  <S**2>=0.000
     242 -> 247        0.41345
     242 -> 249       -0.24421
     242 -> 250       -0.16673
     243 -> 247        0.30117
     243 -> 249       -0.20079
     243 -> 250       -0.13833
     244 -> 247        0.25383

 Excited State   4:      Singlet-A      3.4793 eV  356.35 nm  f=0.0036  <S**2>=0.000
     243 -> 247       -0.39682
     244 -> 247        0.55751

 Excited State   5:      Singlet-A      3.5310 eV  351.13 nm  f=0.4581  <S**2>=0.000
     240 -> 247       -0.11242
     241 -> 247        0.11738
     242 -> 247        0.18733
     243 -> 247       -0.17434
     244 -> 247       -0.15119
     245 -> 247       -0.21737
     246 -> 248        0.56980

 The electronic state is 1-A.
 Alpha  occ. eigenvalues --  -46.88315 -19.24472 -19.23802 -19.20088 -19.20024
 Alpha  occ. eigenvalues --  -19.18551 -19.18010 -14.42181 -14.41443 -14.39590
 Alpha  occ. eigenvalues --  -14.38837 -10.39674 -10.37825 -10.36199 -10.34511
 Alpha  occ. eigenvalues --  -10.32177 -10.31765 -10.30581 -10.30574 -10.30388
 Alpha  occ. eigenvalues --  -10.30369 -10.30325 -10.29914 -10.29345 -10.29081
 Alpha  occ. eigenvalues --  -10.28992 -10.28826 -10.28564 -10.28339 -10.28259
 Alpha  occ. eigenvalues --  -10.28063 -10.28001 -10.27696 -10.27529 -10.27474
 Alpha  occ. eigenvalues --  -10.27114 -10.26978 -10.26833 -10.26816 -10.26585
 Alpha  occ. eigenvalues --  -10.26484 -10.26428 -10.26217 -10.26139 -10.26107
 Alpha  occ. eigenvalues --  -10.26046 -10.25731 -10.25720 -10.25711 -10.25583
 Alpha  occ. eigenvalues --  -10.25331 -10.25328 -10.25323 -10.25231 -10.25064
 Alpha  occ. eigenvalues --  -10.24951 -10.24939 -10.24703 -10.24686 -10.24678
 Alpha  occ. eigenvalues --  -10.24642 -10.24524 -10.24346 -10.24314 -10.24234
 Alpha  occ. eigenvalues --  -10.24136  -3.16929  -1.91822  -1.91391  -1.91231
 Alpha  occ. eigenvalues --   -1.15603  -1.14590  -1.12442  -1.06971  -1.06619
 Alpha  occ. eigenvalues --   -1.06269  -1.05337  -1.04223  -1.03348  -1.00781
 Alpha  occ. eigenvalues --   -0.92316  -0.90581  -0.90075  -0.89296  -0.89196
 Alpha  occ. eigenvalues --   -0.88711  -0.88227  -0.87553  -0.87470  -0.86929
 Alpha  occ. eigenvalues --   -0.86746  -0.85399  -0.84419  -0.83373  -0.83181
 Alpha  occ. eigenvalues --   -0.82563  -0.82035  -0.81221  -0.80907  -0.80100
 Alpha  occ. eigenvalues --   -0.79969  -0.78466  -0.77998  -0.77184  -0.76209
 Alpha  occ. eigenvalues --   -0.75745  -0.75356  -0.74958  -0.74749  -0.74422
 Alpha  occ. eigenvalues --   -0.73457  -0.72154  -0.71418  -0.71065  -0.69305
 Alpha  occ. eigenvalues --   -0.68788  -0.68224  -0.67087  -0.66425  -0.65932
 Alpha  occ. eigenvalues --   -0.65315  -0.64918  -0.64682  -0.64438  -0.64012
 Alpha  occ. eigenvalues --   -0.63659  -0.63392  -0.63123  -0.60933  -0.59953
 Alpha  occ. eigenvalues --   -0.59825  -0.59356  -0.59045  -0.58232  -0.57820
 Alpha  occ. eigenvalues --   -0.57330  -0.56263  -0.55932  -0.55861  -0.55169
 Alpha  occ. eigenvalues --   -0.54916  -0.54814  -0.54440  -0.54213  -0.53889
 Alpha  occ. eigenvalues --   -0.53760  -0.53546  -0.53075  -0.52943  -0.52752
 Alpha  occ. eigenvalues --   -0.52567  -0.52254  -0.52013  -0.51878  -0.51753
 Alpha  occ. eigenvalues --   -0.51594  -0.51268  -0.51014  -0.50925  -0.50881
 Alpha  occ. eigenvalues --   -0.50499  -0.50431  -0.50246  -0.50030  -0.49231
 Alpha  occ. eigenvalues --   -0.49216  -0.48917  -0.48757  -0.48666  -0.48407
 Alpha  occ. eigenvalues --   -0.48363  -0.48267  -0.48007  -0.47996  -0.47434
 Alpha  occ. eigenvalues --   -0.47235  -0.47044  -0.46710  -0.46320  -0.46194
 Alpha  occ. eigenvalues --   -0.46077  -0.46020  -0.45856  -0.45715  -0.45619
 Alpha  occ. eigenvalues --   -0.45534  -0.45393  -0.44889  -0.44768  -0.44678
 Alpha  occ. eigenvalues --   -0.44326  -0.44264  -0.44084  -0.43724  -0.43611
 Alpha  occ. eigenvalues --   -0.43542  -0.43443  -0.43204  -0.43098  -0.42749
 Alpha  occ. eigenvalues --   -0.42683  -0.42662  -0.42469  -0.42337  -0.41979
 Alpha  occ. eigenvalues --   -0.41689  -0.41535  -0.41492  -0.41313  -0.41064
 Alpha  occ. eigenvalues --   -0.40958  -0.40772  -0.40589  -0.40478  -0.40360
 Alpha  occ. eigenvalues --   -0.40201  -0.39694  -0.39329  -0.39298  -0.38941
 Alpha  occ. eigenvalues --   -0.38547  -0.38239  -0.38061  -0.37660  -0.37587
 Alpha  occ. eigenvalues --   -0.37218  -0.36829  -0.36569  -0.36378  -0.36282
 Alpha  occ. eigenvalues --   -0.36189  -0.35646  -0.35594  -0.34323  -0.34238
 Alpha  occ. eigenvalues --   -0.33879  -0.33416  -0.33099  -0.31675  -0.31126
 Alpha  occ. eigenvalues --   -0.31085  -0.30164  -0.30018  -0.29022  -0.23567
 Alpha  occ. eigenvalues --   -0.21152
 Alpha virt. eigenvalues --   -0.08316  -0.01620   0.00100   0.02230   0.02655
 Alpha virt. eigenvalues --    0.03950   0.04428   0.05870   0.06541   0.06771
 Alpha virt. eigenvalues --    0.08432   0.08653   0.09204   0.09349   0.09556

 Mulliken charges:
               1
     1  Mg   0.834138
     2  C    0.046266
     3  C   -0.060882
     4  C   -0.071517
     5  C   -0.093704
     6  N   -0.207378
     7  C   -0.122303
     8  C   -0.024616
     9  C   -0.084635
    10  C    0.045425
    11  C    0.040746
    12  C    0.076491
    13  C    0.110083
    14  C    0.132869
    15  O   -0.240133
    16  O   -0.354926
    17  N   -0.449193
    18  C    0.143897
    19  C   -0.127527
    20  C   -0.063261
    21  C    0.122760
    22  C    0.101146
    23  C    0.037102
    24  O   -0.159215
    25  C    0.015557
    26  N   -0.261488
    27  C    0.011004
    28  C    0.001239
    29  C   -0.019853
    30  C    0.031611
    31  C    0.063980
    32  C    0.026432
    33  C    0.015662
    34  N   -0.333795
    35  C    0.151236
    36  C   -0.161268
    37  C    0.055356
    38  C    0.081744
    39  C    0.103686
    40  C    0.015827
    41  O   -0.218446
    42  C   -0.011089
    43  C    0.211999
    44  O   -0.237384
    45  O   -0.334782
    46  C    0.190941
    47  C    0.337318
    48  C   -0.133133
    49  C   -0.144192
    50  C    0.056331
    51  C    0.044730
    52  C    0.036548
    53  C    0.051979
    54  C   -0.128549
    55  C    0.049764
    56  C    0.038569
    57  C    0.032465
    58  C    0.053821
    59  C   -0.123989
    60  C    0.056804
    61  C    0.051568
    62  C   -0.024610
    63  C    0.066840
    64  C   -0.131477
    65  C    0.031688
    66  C    0.049026
    67  H   -0.027866
    68  H   -0.015589
    69  H   -0.031237
    70  H    0.050954
    71  H    0.016416
    72  H    0.033375
    73  H    0.016873
    74  H    0.016675
    75  H   -0.002753
    76  H    0.018260
    77  H    0.035183
    78  H    0.038618
    79  H    0.042937
    80  H    0.020138
    81  H    0.020454
    82  H    0.049132
    83  H    0.033132
    84  H    0.022617
    85  H    0.011192
    86  H    0.008506
    87  H    0.021746
    88  H    0.013191
    89  H    0.028257
    90  H    0.004167
    91  H    0.007077
    92  H    0.004351
    93  H    0.003660
    94  H    0.027740
    95  H    0.016901
    96  H    0.026450
    97  H    0.033538
    98  H    0.030152
    99  H    0.040427
   100  H    0.048846
   101  H    0.026449
   102  H    0.026092
   103  H    0.018120
   104  H   -0.014907
   105  H    0.005834
   106  H    0.020792
   107  H    0.013794
   108  H    0.000927
   109  H    0.009680
   110  H   -0.005036
   111  H    0.001234
   112  H   -0.007655
   113  H   -0.015484
   114  H   -0.002297
   115  H    0.016590
   116  H    0.002047
   117  H   -0.006744
   118  H   -0.007929
   119  H   -0.013724
   120  H   -0.000494
   121  H    0.001301
   122  H    0.002976
   123  H   -0.015166
   124  H   -0.002010
   125  H    0.000755
   126  H    0.005759
   127  H   -0.005494
   128  H   -0.013101
   129  H   -0.013489
   130  H   -0.001455
   131  H   -0.015503
   132  H   -0.007179
   133  H   -0.008551
   134  H   -0.003491
   135  H    0.008055
   136  H    0.014799
   137  H   -0.007703
   138  H    0.002241
   139  H    0.018444
   140  H    0.006703
 Sum of Mulliken charges =  -0.00000

 Dipole moment (field-independent basis, Debye):
    X=              5.3324    Y=              3.8991    Z=             -2.9150  Tot=              7.2204
 Quadrupole moment (field-independent basis, Debye-Ang):
   XX=           -380.8432   YY=           -429.5207   ZZ=           -404.6216
   XY=            -27.4872   XZ=              6.3473   YZ=              5.3007

 Normal termination of Gaussian 16 at Fri Apr 29 10:40:09 2022.
