 Gaussian 16, Revision A.03,
 Gaussian 16:  ES64L-G16RevA.03 25-Dec-2016

 ---------------------------------
 #p PBE1PBE/Def2SVP td=(nstates=5)
 ---------------------------------

 ----------------------------------------------------
 step_251_chromophore_6 TDDFT with PBE1PBE functional
 ----------------------------------------------------
 Symbolic Z-matrix:
 Charge =  0 Multiplicity = 1

                         Standard orientation:
 ---------------------------------------------------------------------
 Center     Atomic      Atomic             Coordinates (Angstroms)
 Number     Number       Type             X           Y           Z
 ---------------------------------------------------------------------
      1         12           0       -5.772991    0.942658   -0.356431
      2          6           0       -4.633987   -2.305711   -0.192726
      3          6           0       -2.508283    1.952556   -0.186627
      4          6           0       -6.889635    4.126949   -0.222992
      5          6           0       -9.037551   -0.177379    0.064636
      6          7           0       -3.807204   -0.158158   -0.065219
      7          6           0       -3.579949   -1.404887   -0.224978
      8          6           0       -2.030349   -1.859423   -0.247716
      9          6           0       -1.385449   -0.451629    0.065066
     10          6           0       -2.637138    0.547223    0.022167
     11          6           0       -0.698842   -0.320527    1.523995
     12          6           0       -1.528874   -2.510139   -1.609112
     13          6           0       -0.398844   -3.596840   -1.527076
     14          6           0        0.293558   -3.747686   -0.206300
     15          8           0        0.018345   -4.470899    0.747120
     16          8           0        1.480835   -3.031993   -0.209116
     17          7           0       -4.866996    2.741831   -0.303103
     18          6           0       -3.439696    2.998037   -0.321750
     19          6           0       -3.256747    4.444958   -0.369019
     20          6           0       -4.513548    5.091760   -0.266304
     21          6           0       -5.496695    3.985616   -0.304871
     22          6           0       -1.865950    4.944467   -0.528454
     23          6           0       -4.888926    6.592169   -0.254896
     24          8           0       -5.981554    7.036752   -0.063253
     25          6           0       -3.691778    7.561364   -0.329517
     26          7           0       -7.677624    1.918161   -0.006923
     27          6           0       -7.900454    3.194239    0.008791
     28          6           0       -9.349984    3.520247    0.467937
     29          6           0      -10.062084    2.146443    0.447863
     30          6           0       -8.875522    1.205749    0.131755
     31          6           0       -9.352754    4.208556    1.849501
     32          6           0      -11.240933    2.098952   -0.572053
     33          6           0      -12.481147    2.913095   -0.169288
     34          7           0       -6.707913   -0.879883   -0.109554
     35          6           0       -8.059283   -1.171374   -0.054090
     36          6           0       -8.168307   -2.606322   -0.032642
     37          6           0       -6.852277   -3.158112   -0.042952
     38          6           0       -6.029049   -2.002316   -0.127946
     39          6           0       -9.384398   -3.327894    0.056285
     40          6           0       -6.033286   -4.327070   -0.094114
     41          8           0       -6.385532   -5.540401    0.002477
     42          6           0       -4.549486   -3.790635   -0.073957
     43          6           0       -3.913678   -4.325216    1.111267
     44          8           0       -4.028785   -3.845458    2.238801
     45          8           0       -3.321288   -5.509210    0.752438
     46          6           0       -2.853805   -6.298218    1.911768
     47          6           0        2.435529   -3.193609    0.906326
     48          6           0        3.773110   -2.591546    0.643252
     49          6           0        4.921225   -3.137306    0.245946
     50          6           0        5.193848   -4.604474   -0.178222
     51          6           0        6.216010   -2.264426    0.194354
     52          6           0        6.293982   -1.227972   -0.976619
     53          6           0        7.390943   -1.511865   -1.998679
     54          6           0        8.617880   -0.558210   -1.886903
     55          6           0        9.163633   -0.265115   -3.318647
     56          6           0        9.713051   -1.150200   -0.976989
     57          6           0       10.661651   -0.064975   -0.374182
     58          6           0       12.143712   -0.240557   -0.867451
     59          6           0       13.023549    1.050354   -0.689119
     60          6           0       13.091613    1.697047   -2.029718
     61          6           0       14.435297    0.682594   -0.154950
     62          6           0       15.186671    1.941967    0.239162
     63          6           0       15.792991    1.977607    1.661991
     64          6           0       16.972049    2.952241    1.836961
     65          6           0       16.698213    4.032427    2.961895
     66          6           0       18.327762    2.242097    1.855643
     67          1           0       -1.478286    2.305307   -0.107822
     68          1           0       -7.176950    5.180994   -0.207062
     69          1           0      -10.085726   -0.479230    0.124575
     70          1           0       -1.946231   -2.511148    0.622301
     71          1           0       -0.609427   -0.224865   -0.665737
     72          1           0       -1.105746   -1.108619    2.158225
     73          1           0       -0.930104    0.654843    1.951816
     74          1           0        0.388469   -0.397438    1.555693
     75          1           0       -1.131663   -1.660984   -2.164587
     76          1           0       -2.301949   -2.789773   -2.325662
     77          1           0        0.391711   -3.465444   -2.265799
     78          1           0       -0.842895   -4.580610   -1.679393
     79          1           0       -1.367505    5.009056    0.439174
     80          1           0       -1.802355    5.837452   -1.150414
     81          1           0       -1.333988    4.204205   -1.125585
     82          1           0       -3.229253    7.637847   -1.314045
     83          1           0       -3.024416    7.132128    0.417118
     84          1           0       -3.882080    8.578610    0.011375
     85          1           0       -9.710286    4.160523   -0.336899
     86          1           0      -10.404612    1.898641    1.452509
     87          1           0       -8.484503    4.011224    2.478612
     88          1           0      -10.140795    3.940524    2.554026
     89          1           0       -9.410507    5.276014    1.636861
     90          1           0      -11.582653    1.068870   -0.663398
     91          1           0      -10.893071    2.426514   -1.552328
     92          1           0      -12.234803    3.457340    0.742432
     93          1           0      -13.242611    2.229256    0.206029
     94          1           0      -12.968410    3.538334   -0.917067
     95          1           0      -10.049388   -2.826581   -0.647080
     96          1           0       -9.886896   -3.311337    1.023268
     97          1           0       -9.174348   -4.382364   -0.125741
     98          1           0       -4.111087   -4.260146   -0.954956
     99          1           0       -3.751652   -6.600951    2.451322
    100          1           0       -2.098291   -5.766031    2.488810
    101          1           0       -2.377155   -7.196362    1.518723
    102          1           0        2.625104   -4.237297    1.156592
    103          1           0        2.122203   -2.610621    1.772633
    104          1           0        3.952106   -1.551817    0.919103
    105          1           0        4.375920   -5.300517    0.009842
    106          1           0        6.115771   -5.117456    0.092992
    107          1           0        5.287611   -4.690376   -1.261111
    108          1           0        7.095592   -2.904141    0.122697
    109          1           0        6.254543   -1.719473    1.137177
    110          1           0        6.405466   -0.235893   -0.540876
    111          1           0        5.326480   -1.213173   -1.478765
    112          1           0        6.941674   -1.606564   -2.986606
    113          1           0        7.757966   -2.520055   -1.810614
    114          1           0        8.280526    0.431818   -1.582558
    115          1           0        8.704991    0.659627   -3.669018
    116          1           0        9.017051   -1.100545   -4.003095
    117          1           0       10.252465   -0.224233   -3.295864
    118          1           0       10.318212   -1.887346   -1.504078
    119          1           0        9.318521   -1.745977   -0.153063
    120          1           0       10.586230   -0.232578    0.700488
    121          1           0       10.225850    0.905625   -0.614234
    122          1           0       12.177662   -0.642811   -1.879795
    123          1           0       12.676693   -0.916371   -0.199523
    124          1           0       12.580906    1.721560    0.046271
    125          1           0       13.273964    2.771506   -2.041346
    126          1           0       12.227066    1.488241   -2.659907
    127          1           0       13.926924    1.367093   -2.648277
    128          1           0       15.020657    0.172284   -0.920555
    129          1           0       14.563825    0.025085    0.704332
    130          1           0       14.550669    2.791846   -0.004888
    131          1           0       16.005475    1.971209   -0.480151
    132          1           0       16.063723    0.968623    1.972209
    133          1           0       14.918420    2.304222    2.225472
    134          1           0       17.036449    3.547268    0.926486
    135          1           0       16.120640    3.642581    3.800157
    136          1           0       16.241338    4.952915    2.599702
    137          1           0       17.640966    4.325456    3.422915
    138          1           0       18.519072    1.838531    2.849214
    139          1           0       19.089069    2.963089    1.557945
    140          1           0       18.284071    1.344512    1.237612
 ---------------------------------------------------------------------

 SCF Done:  E(RPBE1PBE) =  -3005.37715471     A.U. after   16 cycles

 Excitation energies and oscillator strengths:

 Excited State   1:      Singlet-A      1.9108 eV  648.87 nm  f=0.3626  <S**2>=0.000
     245 -> 248        0.19508
     246 -> 247        0.68513
 This state for optimization and/or second-order correction.
 Total Energy, E(TD-HF/TD-DFT) =  -3005.30693553
 Copying the excited state density for this state as the 1-particle RhoCI density.

 Excited State   2:      Singlet-A      2.2085 eV  561.40 nm  f=0.1135  <S**2>=0.000
     245 -> 247        0.65612
     246 -> 248       -0.25229

 Excited State   3:      Singlet-A      2.9183 eV  424.86 nm  f=0.0002  <S**2>=0.000
     243 -> 247        0.49034
     243 -> 249       -0.16258
     244 -> 247        0.44958
     244 -> 249       -0.10255

 Excited State   4:      Singlet-A      3.1172 eV  397.75 nm  f=0.0025  <S**2>=0.000
     242 -> 247       -0.17193
     243 -> 247       -0.45959
     244 -> 247        0.49757

 Excited State   5:      Singlet-A      3.2668 eV  379.52 nm  f=0.0050  <S**2>=0.000
     241 -> 247        0.52779
     241 -> 249        0.12925
     242 -> 247       -0.41183
     244 -> 247       -0.10072

 The electronic state is 1-A.
 Alpha  occ. eigenvalues --  -46.91741 -19.25128 -19.24482 -19.20253 -19.20129
 Alpha  occ. eigenvalues --  -19.18801 -19.18442 -14.41569 -14.40991 -14.39251
 Alpha  occ. eigenvalues --  -14.38563 -10.36683 -10.34831 -10.33184 -10.31805
 Alpha  occ. eigenvalues --  -10.29522 -10.29398 -10.28313 -10.28157 -10.28118
 Alpha  occ. eigenvalues --  -10.28094 -10.27899 -10.27147 -10.26901 -10.26791
 Alpha  occ. eigenvalues --  -10.26764 -10.26762 -10.26190 -10.26021 -10.25890
 Alpha  occ. eigenvalues --  -10.25740 -10.25528 -10.25366 -10.25317 -10.25229
 Alpha  occ. eigenvalues --  -10.24850 -10.24615 -10.24476 -10.24382 -10.24306
 Alpha  occ. eigenvalues --  -10.24165 -10.23825 -10.23824 -10.23724 -10.23473
 Alpha  occ. eigenvalues --  -10.23404 -10.23380 -10.23370 -10.23264 -10.23051
 Alpha  occ. eigenvalues --  -10.22894 -10.22894 -10.22873 -10.22782 -10.22630
 Alpha  occ. eigenvalues --  -10.22535 -10.22514 -10.22262 -10.22243 -10.22091
 Alpha  occ. eigenvalues --  -10.22079 -10.22049 -10.22025 -10.21904 -10.21658
 Alpha  occ. eigenvalues --  -10.21604  -3.13932  -1.86766  -1.86312  -1.86158
 Alpha  occ. eigenvalues --   -1.10364  -1.09362  -1.07049  -1.01803  -1.01461
 Alpha  occ. eigenvalues --   -1.01107  -0.99971  -0.98897  -0.98170  -0.95259
 Alpha  occ. eigenvalues --   -0.86749  -0.84693  -0.84171  -0.83539  -0.83382
 Alpha  occ. eigenvalues --   -0.82846  -0.82459  -0.81835  -0.81645  -0.81271
 Alpha  occ. eigenvalues --   -0.81034  -0.79594  -0.78584  -0.77692  -0.77424
 Alpha  occ. eigenvalues --   -0.76751  -0.76244  -0.75377  -0.75166  -0.74409
 Alpha  occ. eigenvalues --   -0.74139  -0.72704  -0.72209  -0.71514  -0.70382
 Alpha  occ. eigenvalues --   -0.69821  -0.69721  -0.69108  -0.69075  -0.68585
 Alpha  occ. eigenvalues --   -0.67753  -0.66633  -0.65798  -0.65431  -0.63661
 Alpha  occ. eigenvalues --   -0.62988  -0.62764  -0.61462  -0.60669  -0.60331
 Alpha  occ. eigenvalues --   -0.59725  -0.59241  -0.59097  -0.58587  -0.58572
 Alpha  occ. eigenvalues --   -0.57948  -0.57800  -0.57301  -0.55522  -0.54411
 Alpha  occ. eigenvalues --   -0.54189  -0.53901  -0.53630  -0.52944  -0.52391
 Alpha  occ. eigenvalues --   -0.51771  -0.50719  -0.50460  -0.50336  -0.49696
 Alpha  occ. eigenvalues --   -0.49518  -0.49310  -0.48817  -0.48714  -0.48397
 Alpha  occ. eigenvalues --   -0.48361  -0.47931  -0.47376  -0.47313  -0.47182
 Alpha  occ. eigenvalues --   -0.47139  -0.46844  -0.46607  -0.46390  -0.46305
 Alpha  occ. eigenvalues --   -0.46173  -0.45802  -0.45544  -0.45516  -0.45376
 Alpha  occ. eigenvalues --   -0.45066  -0.45015  -0.44727  -0.44537  -0.43922
 Alpha  occ. eigenvalues --   -0.43742  -0.43490  -0.43347  -0.43275  -0.43014
 Alpha  occ. eigenvalues --   -0.42992  -0.42869  -0.42673  -0.42611  -0.42110
 Alpha  occ. eigenvalues --   -0.41827  -0.41701  -0.41313  -0.41047  -0.40916
 Alpha  occ. eigenvalues --   -0.40787  -0.40634  -0.40467  -0.40342  -0.40289
 Alpha  occ. eigenvalues --   -0.40254  -0.40094  -0.39590  -0.39528  -0.39437
 Alpha  occ. eigenvalues --   -0.39110  -0.38970  -0.38894  -0.38482  -0.38356
 Alpha  occ. eigenvalues --   -0.38262  -0.38131  -0.37893  -0.37805  -0.37578
 Alpha  occ. eigenvalues --   -0.37479  -0.37448  -0.37303  -0.37104  -0.36860
 Alpha  occ. eigenvalues --   -0.36445  -0.36378  -0.36329  -0.36038  -0.35948
 Alpha  occ. eigenvalues --   -0.35715  -0.35569  -0.35436  -0.35278  -0.35156
 Alpha  occ. eigenvalues --   -0.35137  -0.34607  -0.34266  -0.34059  -0.33738
 Alpha  occ. eigenvalues --   -0.33377  -0.33031  -0.33007  -0.32606  -0.32463
 Alpha  occ. eigenvalues --   -0.32032  -0.31906  -0.31518  -0.31360  -0.31210
 Alpha  occ. eigenvalues --   -0.31074  -0.30525  -0.30453  -0.29519  -0.29075
 Alpha  occ. eigenvalues --   -0.28954  -0.28878  -0.27915  -0.26861  -0.26393
 Alpha  occ. eigenvalues --   -0.26179  -0.25682  -0.25163  -0.24792  -0.20520
 Alpha  occ. eigenvalues --   -0.18753
 Alpha virt. eigenvalues --   -0.10832  -0.05068  -0.04092  -0.02148  -0.00572
 Alpha virt. eigenvalues --   -0.00119   0.00011   0.01329   0.01923   0.03574
 Alpha virt. eigenvalues --    0.04491   0.05075   0.05575   0.05994   0.06100

 Mulliken charges:
               1
     1  Mg   0.982821
     2  C    0.034194
     3  C   -0.062265
     4  C   -0.065951
     5  C   -0.085323
     6  N   -0.313137
     7  C   -0.037114
     8  C   -0.099268
     9  C   -0.154509
    10  C    0.076401
    11  C   -0.014132
    12  C    0.031221
    13  C    0.034387
    14  C    0.199007
    15  O   -0.273967
    16  O   -0.385274
    17  N   -0.557200
    18  C    0.163710
    19  C   -0.161400
    20  C   -0.103123
    21  C    0.152138
    22  C    0.039389
    23  C    0.087952
    24  O   -0.199761
    25  C   -0.057936
    26  N   -0.365409
    27  C    0.052720
    28  C   -0.078281
    29  C   -0.097681
    30  C    0.071773
    31  C    0.009267
    32  C   -0.037310
    33  C   -0.054456
    34  N   -0.470005
    35  C    0.178522
    36  C   -0.193610
    37  C    0.020317
    38  C    0.136718
    39  C    0.050893
    40  C    0.103474
    41  O   -0.260813
    42  C   -0.114596
    43  C    0.299907
    44  O   -0.271933
    45  O   -0.366596
    46  C    0.135190
    47  C    0.293522
    48  C   -0.145739
    49  C   -0.186067
    50  C   -0.001772
    51  C   -0.019574
    52  C   -0.022448
    53  C   -0.002553
    54  C   -0.218613
    55  C   -0.010300
    56  C   -0.015229
    57  C   -0.027753
    58  C   -0.005430
    59  C   -0.219906
    60  C    0.000966
    61  C    0.003082
    62  C   -0.085534
    63  C    0.007778
    64  C   -0.221644
    65  C   -0.029890
    66  C   -0.014981
    67  H    0.002784
    68  H    0.018475
    69  H    0.000450
    70  H    0.093439
    71  H    0.050712
    72  H    0.059317
    73  H    0.044840
    74  H    0.044598
    75  H    0.029950
    76  H    0.048257
    77  H    0.066251
    78  H    0.070320
    79  H    0.069926
    80  H    0.048155
    81  H    0.047309
    82  H    0.074335
    83  H    0.061302
    84  H    0.050030
    85  H    0.048002
    86  H    0.046096
    87  H    0.049268
    88  H    0.038978
    89  H    0.055460
    90  H    0.037541
    91  H    0.040028
    92  H    0.034062
    93  H    0.031933
    94  H    0.054848
    95  H    0.044873
    96  H    0.055541
    97  H    0.062209
    98  H    0.068791
    99  H    0.062493
   100  H    0.070519
   101  H    0.048522
   102  H    0.052342
   103  H    0.044861
   104  H    0.014944
   105  H    0.033155
   106  H    0.046490
   107  H    0.042365
   108  H    0.031546
   109  H    0.042574
   110  H    0.026806
   111  H    0.034420
   112  H    0.024268
   113  H    0.018099
   114  H    0.034377
   115  H    0.043942
   116  H    0.029516
   117  H    0.024247
   118  H    0.024713
   119  H    0.021158
   120  H    0.032811
   121  H    0.033378
   122  H    0.033589
   123  H    0.020123
   124  H    0.035726
   125  H    0.028032
   126  H    0.036340
   127  H    0.021959
   128  H    0.019794
   129  H    0.018273
   130  H    0.030987
   131  H    0.018544
   132  H    0.024232
   133  H    0.025940
   134  H    0.035291
   135  H    0.035181
   136  H    0.041909
   137  H    0.020488
   138  H    0.030659
   139  H    0.045686
   140  H    0.034752
 Sum of Mulliken charges =  -0.00000

 Dipole moment (field-independent basis, Debye):
    X=              5.0725    Y=              3.5406    Z=             -2.8848  Tot=              6.8256
 Quadrupole moment (field-independent basis, Debye-Ang):
   XX=           -371.2440   YY=           -427.5846   ZZ=           -402.2266
   XY=            -26.0711   XZ=              5.6746   YZ=              5.6498

 Normal termination of Gaussian 16 at Fri Apr 29 10:59:58 2022.
