 Gaussian 16, Revision A.03,
 Gaussian 16:  ES64L-G16RevA.03 25-Dec-2016

 --------------------------------
 #p wB97XD/Def2SVP td=(nstates=5)
 --------------------------------

 ---------------------------------------------------
 step_251_chromophore_6 TDDFT with wB97XD functional
 ---------------------------------------------------
 Symbolic Z-matrix:
 Charge =  0 Multiplicity = 1

                         Standard orientation:
 ---------------------------------------------------------------------
 Center     Atomic      Atomic             Coordinates (Angstroms)
 Number     Number       Type             X           Y           Z
 ---------------------------------------------------------------------
      1         12           0       -5.772991    0.942658   -0.356431
      2          6           0       -4.633987   -2.305711   -0.192726
      3          6           0       -2.508283    1.952556   -0.186627
      4          6           0       -6.889635    4.126949   -0.222992
      5          6           0       -9.037551   -0.177379    0.064636
      6          7           0       -3.807204   -0.158158   -0.065219
      7          6           0       -3.579949   -1.404887   -0.224978
      8          6           0       -2.030349   -1.859423   -0.247716
      9          6           0       -1.385449   -0.451629    0.065066
     10          6           0       -2.637138    0.547223    0.022167
     11          6           0       -0.698842   -0.320527    1.523995
     12          6           0       -1.528874   -2.510139   -1.609112
     13          6           0       -0.398844   -3.596840   -1.527076
     14          6           0        0.293558   -3.747686   -0.206300
     15          8           0        0.018345   -4.470899    0.747120
     16          8           0        1.480835   -3.031993   -0.209116
     17          7           0       -4.866996    2.741831   -0.303103
     18          6           0       -3.439696    2.998037   -0.321750
     19          6           0       -3.256747    4.444958   -0.369019
     20          6           0       -4.513548    5.091760   -0.266304
     21          6           0       -5.496695    3.985616   -0.304871
     22          6           0       -1.865950    4.944467   -0.528454
     23          6           0       -4.888926    6.592169   -0.254896
     24          8           0       -5.981554    7.036752   -0.063253
     25          6           0       -3.691778    7.561364   -0.329517
     26          7           0       -7.677624    1.918161   -0.006923
     27          6           0       -7.900454    3.194239    0.008791
     28          6           0       -9.349984    3.520247    0.467937
     29          6           0      -10.062084    2.146443    0.447863
     30          6           0       -8.875522    1.205749    0.131755
     31          6           0       -9.352754    4.208556    1.849501
     32          6           0      -11.240933    2.098952   -0.572053
     33          6           0      -12.481147    2.913095   -0.169288
     34          7           0       -6.707913   -0.879883   -0.109554
     35          6           0       -8.059283   -1.171374   -0.054090
     36          6           0       -8.168307   -2.606322   -0.032642
     37          6           0       -6.852277   -3.158112   -0.042952
     38          6           0       -6.029049   -2.002316   -0.127946
     39          6           0       -9.384398   -3.327894    0.056285
     40          6           0       -6.033286   -4.327070   -0.094114
     41          8           0       -6.385532   -5.540401    0.002477
     42          6           0       -4.549486   -3.790635   -0.073957
     43          6           0       -3.913678   -4.325216    1.111267
     44          8           0       -4.028785   -3.845458    2.238801
     45          8           0       -3.321288   -5.509210    0.752438
     46          6           0       -2.853805   -6.298218    1.911768
     47          6           0        2.435529   -3.193609    0.906326
     48          6           0        3.773110   -2.591546    0.643252
     49          6           0        4.921225   -3.137306    0.245946
     50          6           0        5.193848   -4.604474   -0.178222
     51          6           0        6.216010   -2.264426    0.194354
     52          6           0        6.293982   -1.227972   -0.976619
     53          6           0        7.390943   -1.511865   -1.998679
     54          6           0        8.617880   -0.558210   -1.886903
     55          6           0        9.163633   -0.265115   -3.318647
     56          6           0        9.713051   -1.150200   -0.976989
     57          6           0       10.661651   -0.064975   -0.374182
     58          6           0       12.143712   -0.240557   -0.867451
     59          6           0       13.023549    1.050354   -0.689119
     60          6           0       13.091613    1.697047   -2.029718
     61          6           0       14.435297    0.682594   -0.154950
     62          6           0       15.186671    1.941967    0.239162
     63          6           0       15.792991    1.977607    1.661991
     64          6           0       16.972049    2.952241    1.836961
     65          6           0       16.698213    4.032427    2.961895
     66          6           0       18.327762    2.242097    1.855643
     67          1           0       -1.478286    2.305307   -0.107822
     68          1           0       -7.176950    5.180994   -0.207062
     69          1           0      -10.085726   -0.479230    0.124575
     70          1           0       -1.946231   -2.511148    0.622301
     71          1           0       -0.609427   -0.224865   -0.665737
     72          1           0       -1.105746   -1.108619    2.158225
     73          1           0       -0.930104    0.654843    1.951816
     74          1           0        0.388469   -0.397438    1.555693
     75          1           0       -1.131663   -1.660984   -2.164587
     76          1           0       -2.301949   -2.789773   -2.325662
     77          1           0        0.391711   -3.465444   -2.265799
     78          1           0       -0.842895   -4.580610   -1.679393
     79          1           0       -1.367505    5.009056    0.439174
     80          1           0       -1.802355    5.837452   -1.150414
     81          1           0       -1.333988    4.204205   -1.125585
     82          1           0       -3.229253    7.637847   -1.314045
     83          1           0       -3.024416    7.132128    0.417118
     84          1           0       -3.882080    8.578610    0.011375
     85          1           0       -9.710286    4.160523   -0.336899
     86          1           0      -10.404612    1.898641    1.452509
     87          1           0       -8.484503    4.011224    2.478612
     88          1           0      -10.140795    3.940524    2.554026
     89          1           0       -9.410507    5.276014    1.636861
     90          1           0      -11.582653    1.068870   -0.663398
     91          1           0      -10.893071    2.426514   -1.552328
     92          1           0      -12.234803    3.457340    0.742432
     93          1           0      -13.242611    2.229256    0.206029
     94          1           0      -12.968410    3.538334   -0.917067
     95          1           0      -10.049388   -2.826581   -0.647080
     96          1           0       -9.886896   -3.311337    1.023268
     97          1           0       -9.174348   -4.382364   -0.125741
     98          1           0       -4.111087   -4.260146   -0.954956
     99          1           0       -3.751652   -6.600951    2.451322
    100          1           0       -2.098291   -5.766031    2.488810
    101          1           0       -2.377155   -7.196362    1.518723
    102          1           0        2.625104   -4.237297    1.156592
    103          1           0        2.122203   -2.610621    1.772633
    104          1           0        3.952106   -1.551817    0.919103
    105          1           0        4.375920   -5.300517    0.009842
    106          1           0        6.115771   -5.117456    0.092992
    107          1           0        5.287611   -4.690376   -1.261111
    108          1           0        7.095592   -2.904141    0.122697
    109          1           0        6.254543   -1.719473    1.137177
    110          1           0        6.405466   -0.235893   -0.540876
    111          1           0        5.326480   -1.213173   -1.478765
    112          1           0        6.941674   -1.606564   -2.986606
    113          1           0        7.757966   -2.520055   -1.810614
    114          1           0        8.280526    0.431818   -1.582558
    115          1           0        8.704991    0.659627   -3.669018
    116          1           0        9.017051   -1.100545   -4.003095
    117          1           0       10.252465   -0.224233   -3.295864
    118          1           0       10.318212   -1.887346   -1.504078
    119          1           0        9.318521   -1.745977   -0.153063
    120          1           0       10.586230   -0.232578    0.700488
    121          1           0       10.225850    0.905625   -0.614234
    122          1           0       12.177662   -0.642811   -1.879795
    123          1           0       12.676693   -0.916371   -0.199523
    124          1           0       12.580906    1.721560    0.046271
    125          1           0       13.273964    2.771506   -2.041346
    126          1           0       12.227066    1.488241   -2.659907
    127          1           0       13.926924    1.367093   -2.648277
    128          1           0       15.020657    0.172284   -0.920555
    129          1           0       14.563825    0.025085    0.704332
    130          1           0       14.550669    2.791846   -0.004888
    131          1           0       16.005475    1.971209   -0.480151
    132          1           0       16.063723    0.968623    1.972209
    133          1           0       14.918420    2.304222    2.225472
    134          1           0       17.036449    3.547268    0.926486
    135          1           0       16.120640    3.642581    3.800157
    136          1           0       16.241338    4.952915    2.599702
    137          1           0       17.640966    4.325456    3.422915
    138          1           0       18.519072    1.838531    2.849214
    139          1           0       19.089069    2.963089    1.557945
    140          1           0       18.284071    1.344512    1.237612
 ---------------------------------------------------------------------

 SCF Done:  E(RwB97XD) =  -3007.88586289     A.U. after   19 cycles

 Excitation energies and oscillator strengths:

 Excited State   1:      Singlet-A      1.7222 eV  719.92 nm  f=0.3702  <S**2>=0.000
     245 -> 248       -0.20449
     246 -> 247        0.67745
     245 <- 248       -0.11875
 This state for optimization and/or second-order correction.
 Total Energy, E(TD-HF/TD-DFT) =  -3007.82257336
 Copying the excited state density for this state as the 1-particle RhoCI density.

 Excited State   2:      Singlet-A      2.1609 eV  573.76 nm  f=0.1141  <S**2>=0.000
     245 -> 247        0.64065
     246 -> 248        0.28402

 Excited State   3:      Singlet-A      3.4285 eV  361.63 nm  f=0.0007  <S**2>=0.000
     242 -> 247       -0.15766
     243 -> 247        0.46492
     243 -> 249       -0.32525
     243 -> 250        0.22267
     244 -> 247        0.25110

 Excited State   4:      Singlet-A      3.5059 eV  353.65 nm  f=0.0509  <S**2>=0.000
     242 -> 247       -0.38355
     243 -> 247       -0.29363
     244 -> 247        0.44223
     246 -> 248        0.15248

 Excited State   5:      Singlet-A      3.5395 eV  350.29 nm  f=0.3946  <S**2>=0.000
     240 -> 247        0.11021
     242 -> 247       -0.14631
     244 -> 247       -0.31809
     245 -> 247       -0.20230
     246 -> 248        0.54504

 The electronic state is 1-A.
 Alpha  occ. eigenvalues --  -46.94666 -19.29693 -19.29005 -19.25129 -19.24917
 Alpha  occ. eigenvalues --  -19.23480 -19.23062 -14.46760 -14.46013 -14.44257
 Alpha  occ. eigenvalues --  -14.43396 -10.43466 -10.41651 -10.40197 -10.38534
 Alpha  occ. eigenvalues --  -10.36068 -10.35860 -10.34711 -10.34672 -10.34384
 Alpha  occ. eigenvalues --  -10.34345 -10.34343 -10.33626 -10.33539 -10.33169
 Alpha  occ. eigenvalues --  -10.33068 -10.32793 -10.32544 -10.32369 -10.32154
 Alpha  occ. eigenvalues --  -10.32150 -10.32014 -10.31779 -10.31557 -10.31504
 Alpha  occ. eigenvalues --  -10.31091 -10.31028 -10.30949 -10.30835 -10.30577
 Alpha  occ. eigenvalues --  -10.30410 -10.30270 -10.30110 -10.30110 -10.30097
 Alpha  occ. eigenvalues --  -10.29909 -10.29700 -10.29663 -10.29650 -10.29441
 Alpha  occ. eigenvalues --  -10.29280 -10.29266 -10.29260 -10.29129 -10.29001
 Alpha  occ. eigenvalues --  -10.28910 -10.28877 -10.28619 -10.28522 -10.28493
 Alpha  occ. eigenvalues --  -10.28459 -10.28344 -10.28326 -10.28275 -10.28064
 Alpha  occ. eigenvalues --  -10.28042  -3.20710  -1.94294  -1.93841  -1.93682
 Alpha  occ. eigenvalues --   -1.17747  -1.16736  -1.14691  -1.09149  -1.08808
 Alpha  occ. eigenvalues --   -1.08449  -1.07353  -1.06212  -1.05365  -1.02853
 Alpha  occ. eigenvalues --   -0.94287  -0.92376  -0.91849  -0.91139  -0.91036
 Alpha  occ. eigenvalues --   -0.90518  -0.90154  -0.89417  -0.89316  -0.88859
 Alpha  occ. eigenvalues --   -0.88685  -0.87269  -0.86263  -0.85254  -0.85087
 Alpha  occ. eigenvalues --   -0.84415  -0.83961  -0.83098  -0.82817  -0.82050
 Alpha  occ. eigenvalues --   -0.81815  -0.80452  -0.79878  -0.79086  -0.78056
 Alpha  occ. eigenvalues --   -0.77529  -0.77296  -0.76770  -0.76666  -0.76260
 Alpha  occ. eigenvalues --   -0.75372  -0.74132  -0.73367  -0.73015  -0.71201
 Alpha  occ. eigenvalues --   -0.70652  -0.70231  -0.69090  -0.68304  -0.67888
 Alpha  occ. eigenvalues --   -0.67215  -0.66765  -0.66688  -0.66257  -0.66016
 Alpha  occ. eigenvalues --   -0.65485  -0.65369  -0.64948  -0.62917  -0.61968
 Alpha  occ. eigenvalues --   -0.61729  -0.61338  -0.61004  -0.60226  -0.59805
 Alpha  occ. eigenvalues --   -0.59258  -0.58199  -0.57842  -0.57831  -0.57069
 Alpha  occ. eigenvalues --   -0.56900  -0.56719  -0.56297  -0.56114  -0.55808
 Alpha  occ. eigenvalues --   -0.55668  -0.55393  -0.55035  -0.54828  -0.54681
 Alpha  occ. eigenvalues --   -0.54503  -0.54187  -0.53906  -0.53762  -0.53646
 Alpha  occ. eigenvalues --   -0.53502  -0.53155  -0.52972  -0.52838  -0.52789
 Alpha  occ. eigenvalues --   -0.52434  -0.52342  -0.52198  -0.51907  -0.51119
 Alpha  occ. eigenvalues --   -0.51088  -0.50810  -0.50655  -0.50574  -0.50350
 Alpha  occ. eigenvalues --   -0.50273  -0.50161  -0.49984  -0.49894  -0.49343
 Alpha  occ. eigenvalues --   -0.49104  -0.48935  -0.48682  -0.48232  -0.48119
 Alpha  occ. eigenvalues --   -0.47967  -0.47898  -0.47710  -0.47590  -0.47521
 Alpha  occ. eigenvalues --   -0.47448  -0.47285  -0.46777  -0.46644  -0.46581
 Alpha  occ. eigenvalues --   -0.46234  -0.46133  -0.46020  -0.45667  -0.45579
 Alpha  occ. eigenvalues --   -0.45433  -0.45371  -0.45100  -0.45035  -0.44696
 Alpha  occ. eigenvalues --   -0.44589  -0.44533  -0.44364  -0.44222  -0.43888
 Alpha  occ. eigenvalues --   -0.43566  -0.43506  -0.43432  -0.43164  -0.42966
 Alpha  occ. eigenvalues --   -0.42819  -0.42706  -0.42468  -0.42349  -0.42220
 Alpha  occ. eigenvalues --   -0.42114  -0.41588  -0.41206  -0.41135  -0.40789
 Alpha  occ. eigenvalues --   -0.40409  -0.40082  -0.39948  -0.39506  -0.39493
 Alpha  occ. eigenvalues --   -0.39067  -0.38999  -0.38527  -0.38250  -0.38188
 Alpha  occ. eigenvalues --   -0.38072  -0.37578  -0.37480  -0.36262  -0.36173
 Alpha  occ. eigenvalues --   -0.35715  -0.35648  -0.35028  -0.33732  -0.33262
 Alpha  occ. eigenvalues --   -0.33118  -0.32326  -0.32042  -0.31160  -0.25494
 Alpha  occ. eigenvalues --   -0.22969
 Alpha virt. eigenvalues --   -0.06662   0.00294   0.02159   0.04341   0.05729
 Alpha virt. eigenvalues --    0.06234   0.06682   0.08109   0.08756   0.09737
 Alpha virt. eigenvalues --    0.11113   0.11929   0.12442   0.12704   0.12855

 Mulliken charges:
               1
     1  Mg   0.972930
     2  C    0.036317
     3  C   -0.076375
     4  C   -0.083675
     5  C   -0.099869
     6  N   -0.274853
     7  C   -0.077576
     8  C   -0.067289
     9  C   -0.133085
    10  C    0.066201
    11  C   -0.002963
    12  C    0.037066
    13  C    0.050136
    14  C    0.184402
    15  O   -0.269525
    16  O   -0.383546
    17  N   -0.532132
    18  C    0.160128
    19  C   -0.146869
    20  C   -0.100236
    21  C    0.147680
    22  C    0.050280
    23  C    0.084592
    24  O   -0.192702
    25  C   -0.045198
    26  N   -0.332369
    27  C    0.039957
    28  C   -0.054427
    29  C   -0.067620
    30  C    0.054930
    31  C    0.016619
    32  C   -0.022504
    33  C   -0.039099
    34  N   -0.427685
    35  C    0.163748
    36  C   -0.180533
    37  C    0.017515
    38  C    0.115258
    39  C    0.057478
    40  C    0.086020
    41  O   -0.252206
    42  C   -0.074871
    43  C    0.274672
    44  O   -0.265534
    45  O   -0.365189
    46  C    0.149064
    47  C    0.308438
    48  C   -0.155202
    49  C   -0.172285
    50  C    0.009856
    51  C    0.002717
    52  C   -0.010404
    53  C    0.014568
    54  C   -0.188153
    55  C    0.004536
    56  C    0.001235
    57  C   -0.013576
    58  C    0.013448
    59  C   -0.184335
    60  C    0.010053
    61  C    0.014136
    62  C   -0.067086
    63  C    0.023222
    64  C   -0.194207
    65  C   -0.017430
    66  C   -0.002343
    67  H   -0.003178
    68  H    0.012485
    69  H   -0.006240
    70  H    0.072297
    71  H    0.042238
    72  H    0.054789
    73  H    0.037721
    74  H    0.039471
    75  H    0.021555
    76  H    0.042898
    77  H    0.062354
    78  H    0.065626
    79  H    0.067575
    80  H    0.043515
    81  H    0.042468
    82  H    0.070645
    83  H    0.053187
    84  H    0.049447
    85  H    0.038030
    86  H    0.035448
    87  H    0.043714
    88  H    0.033970
    89  H    0.050353
    90  H    0.028794
    91  H    0.031954
    92  H    0.024457
    93  H    0.026116
    94  H    0.050400
    95  H    0.037822
    96  H    0.050217
    97  H    0.058248
    98  H    0.060628
    99  H    0.058836
   100  H    0.067676
   101  H    0.045195
   102  H    0.046483
   103  H    0.040492
   104  H    0.010782
   105  H    0.027644
   106  H    0.042296
   107  H    0.035595
   108  H    0.019290
   109  H    0.035356
   110  H    0.019073
   111  H    0.025861
   112  H    0.017859
   113  H    0.005505
   114  H    0.021187
   115  H    0.039515
   116  H    0.023454
   117  H    0.011553
   118  H    0.014642
   119  H    0.010785
   120  H    0.026139
   121  H    0.022896
   122  H    0.022725
   123  H    0.010627
   124  H    0.023724
   125  H    0.022698
   126  H    0.027650
   127  H    0.015341
   128  H    0.011026
   129  H    0.008665
   130  H    0.019956
   131  H    0.007885
   132  H    0.015560
   133  H    0.016394
   134  H    0.023180
   135  H    0.028745
   136  H    0.037000
   137  H    0.014436
   138  H    0.024001
   139  H    0.040827
   140  H    0.028193
 Sum of Mulliken charges =  -0.00000

 Dipole moment (field-independent basis, Debye):
    X=              5.4598    Y=              4.0299    Z=             -2.9442  Tot=              7.3972
 Quadrupole moment (field-independent basis, Debye-Ang):
   XX=           -376.0066   YY=           -425.0031   ZZ=           -401.7917
   XY=            -27.8436   XZ=              6.2274   YZ=              5.4692

 Normal termination of Gaussian 16 at Fri Apr 29 11:25:41 2022.
