 Gaussian 16, Revision A.03,
 Gaussian 16:  ES64L-G16RevA.03 25-Dec-2016

 --------------------
 #p ZINDO=(nstates=5)
 --------------------

 ----------------------------
 step_251_chromophore_6 ZINDO
 ----------------------------
 Symbolic Z-matrix:
 Charge =  0 Multiplicity = 1

                         Standard orientation:
 ---------------------------------------------------------------------
 Center     Atomic      Atomic             Coordinates (Angstroms)
 Number     Number       Type             X           Y           Z
 ---------------------------------------------------------------------
      1         12           0       -5.772991    0.942658   -0.356431
      2          6           0       -4.633987   -2.305711   -0.192726
      3          6           0       -2.508283    1.952556   -0.186627
      4          6           0       -6.889635    4.126949   -0.222992
      5          6           0       -9.037551   -0.177379    0.064636
      6          7           0       -3.807204   -0.158158   -0.065219
      7          6           0       -3.579949   -1.404887   -0.224978
      8          6           0       -2.030349   -1.859423   -0.247716
      9          6           0       -1.385449   -0.451629    0.065066
     10          6           0       -2.637138    0.547223    0.022167
     11          6           0       -0.698842   -0.320527    1.523995
     12          6           0       -1.528874   -2.510139   -1.609112
     13          6           0       -0.398844   -3.596840   -1.527076
     14          6           0        0.293558   -3.747686   -0.206300
     15          8           0        0.018345   -4.470899    0.747120
     16          8           0        1.480835   -3.031993   -0.209116
     17          7           0       -4.866996    2.741831   -0.303103
     18          6           0       -3.439696    2.998037   -0.321750
     19          6           0       -3.256747    4.444958   -0.369019
     20          6           0       -4.513548    5.091760   -0.266304
     21          6           0       -5.496695    3.985616   -0.304871
     22          6           0       -1.865950    4.944467   -0.528454
     23          6           0       -4.888926    6.592169   -0.254896
     24          8           0       -5.981554    7.036752   -0.063253
     25          6           0       -3.691778    7.561364   -0.329517
     26          7           0       -7.677624    1.918161   -0.006923
     27          6           0       -7.900454    3.194239    0.008791
     28          6           0       -9.349984    3.520247    0.467937
     29          6           0      -10.062084    2.146443    0.447863
     30          6           0       -8.875522    1.205749    0.131755
     31          6           0       -9.352754    4.208556    1.849501
     32          6           0      -11.240933    2.098952   -0.572053
     33          6           0      -12.481147    2.913095   -0.169288
     34          7           0       -6.707913   -0.879883   -0.109554
     35          6           0       -8.059283   -1.171374   -0.054090
     36          6           0       -8.168307   -2.606322   -0.032642
     37          6           0       -6.852277   -3.158112   -0.042952
     38          6           0       -6.029049   -2.002316   -0.127946
     39          6           0       -9.384398   -3.327894    0.056285
     40          6           0       -6.033286   -4.327070   -0.094114
     41          8           0       -6.385532   -5.540401    0.002477
     42          6           0       -4.549486   -3.790635   -0.073957
     43          6           0       -3.913678   -4.325216    1.111267
     44          8           0       -4.028785   -3.845458    2.238801
     45          8           0       -3.321288   -5.509210    0.752438
     46          6           0       -2.853805   -6.298218    1.911768
     47          6           0        2.435529   -3.193609    0.906326
     48          6           0        3.773110   -2.591546    0.643252
     49          6           0        4.921225   -3.137306    0.245946
     50          6           0        5.193848   -4.604474   -0.178222
     51          6           0        6.216010   -2.264426    0.194354
     52          6           0        6.293982   -1.227972   -0.976619
     53          6           0        7.390943   -1.511865   -1.998679
     54          6           0        8.617880   -0.558210   -1.886903
     55          6           0        9.163633   -0.265115   -3.318647
     56          6           0        9.713051   -1.150200   -0.976989
     57          6           0       10.661651   -0.064975   -0.374182
     58          6           0       12.143712   -0.240557   -0.867451
     59          6           0       13.023549    1.050354   -0.689119
     60          6           0       13.091613    1.697047   -2.029718
     61          6           0       14.435297    0.682594   -0.154950
     62          6           0       15.186671    1.941967    0.239162
     63          6           0       15.792991    1.977607    1.661991
     64          6           0       16.972049    2.952241    1.836961
     65          6           0       16.698213    4.032427    2.961895
     66          6           0       18.327762    2.242097    1.855643
     67          1           0       -1.478286    2.305307   -0.107822
     68          1           0       -7.176950    5.180994   -0.207062
     69          1           0      -10.085726   -0.479230    0.124575
     70          1           0       -1.946231   -2.511148    0.622301
     71          1           0       -0.609427   -0.224865   -0.665737
     72          1           0       -1.105746   -1.108619    2.158225
     73          1           0       -0.930104    0.654843    1.951816
     74          1           0        0.388469   -0.397438    1.555693
     75          1           0       -1.131663   -1.660984   -2.164587
     76          1           0       -2.301949   -2.789773   -2.325662
     77          1           0        0.391711   -3.465444   -2.265799
     78          1           0       -0.842895   -4.580610   -1.679393
     79          1           0       -1.367505    5.009056    0.439174
     80          1           0       -1.802355    5.837452   -1.150414
     81          1           0       -1.333988    4.204205   -1.125585
     82          1           0       -3.229253    7.637847   -1.314045
     83          1           0       -3.024416    7.132128    0.417118
     84          1           0       -3.882080    8.578610    0.011375
     85          1           0       -9.710286    4.160523   -0.336899
     86          1           0      -10.404612    1.898641    1.452509
     87          1           0       -8.484503    4.011224    2.478612
     88          1           0      -10.140795    3.940524    2.554026
     89          1           0       -9.410507    5.276014    1.636861
     90          1           0      -11.582653    1.068870   -0.663398
     91          1           0      -10.893071    2.426514   -1.552328
     92          1           0      -12.234803    3.457340    0.742432
     93          1           0      -13.242611    2.229256    0.206029
     94          1           0      -12.968410    3.538334   -0.917067
     95          1           0      -10.049388   -2.826581   -0.647080
     96          1           0       -9.886896   -3.311337    1.023268
     97          1           0       -9.174348   -4.382364   -0.125741
     98          1           0       -4.111087   -4.260146   -0.954956
     99          1           0       -3.751652   -6.600951    2.451322
    100          1           0       -2.098291   -5.766031    2.488810
    101          1           0       -2.377155   -7.196362    1.518723
    102          1           0        2.625104   -4.237297    1.156592
    103          1           0        2.122203   -2.610621    1.772633
    104          1           0        3.952106   -1.551817    0.919103
    105          1           0        4.375920   -5.300517    0.009842
    106          1           0        6.115771   -5.117456    0.092992
    107          1           0        5.287611   -4.690376   -1.261111
    108          1           0        7.095592   -2.904141    0.122697
    109          1           0        6.254543   -1.719473    1.137177
    110          1           0        6.405466   -0.235893   -0.540876
    111          1           0        5.326480   -1.213173   -1.478765
    112          1           0        6.941674   -1.606564   -2.986606
    113          1           0        7.757966   -2.520055   -1.810614
    114          1           0        8.280526    0.431818   -1.582558
    115          1           0        8.704991    0.659627   -3.669018
    116          1           0        9.017051   -1.100545   -4.003095
    117          1           0       10.252465   -0.224233   -3.295864
    118          1           0       10.318212   -1.887346   -1.504078
    119          1           0        9.318521   -1.745977   -0.153063
    120          1           0       10.586230   -0.232578    0.700488
    121          1           0       10.225850    0.905625   -0.614234
    122          1           0       12.177662   -0.642811   -1.879795
    123          1           0       12.676693   -0.916371   -0.199523
    124          1           0       12.580906    1.721560    0.046271
    125          1           0       13.273964    2.771506   -2.041346
    126          1           0       12.227066    1.488241   -2.659907
    127          1           0       13.926924    1.367093   -2.648277
    128          1           0       15.020657    0.172284   -0.920555
    129          1           0       14.563825    0.025085    0.704332
    130          1           0       14.550669    2.791846   -0.004888
    131          1           0       16.005475    1.971209   -0.480151
    132          1           0       16.063723    0.968623    1.972209
    133          1           0       14.918420    2.304222    2.225472
    134          1           0       17.036449    3.547268    0.926486
    135          1           0       16.120640    3.642581    3.800157
    136          1           0       16.241338    4.952915    2.599702
    137          1           0       17.640966    4.325456    3.422915
    138          1           0       18.519072    1.838531    2.849214
    139          1           0       19.089069    2.963089    1.557945
    140          1           0       18.284071    1.344512    1.237612
 ---------------------------------------------------------------------

 SCF Done:  E(RZINDO/S) =  -474.264729679     A.U. after   20 cycles

 Excitation energies and oscillator strengths:

 Excited State   1:      Singlet-A      1.3104 eV  946.16 nm  f=0.5643  <S**2>=0.000
     175 ->178         0.19340
     176 ->177         0.66261
 This state for optimization and/or second-order correction.
 Total Energy, E(CIS/TDA) =  -474.216573611
 Copying the excited state density for this state as the 1-particle RhoCI density.

 Excited State   2:      Singlet-A      1.9018 eV  651.94 nm  f=0.0595  <S**2>=0.000
     175 ->177         0.55779
     176 ->178        -0.39990

 Excited State   3:      Singlet-A      2.9494 eV  420.37 nm  f=0.3227  <S**2>=0.000
     170 ->177         0.19466
     170 ->179         0.20283
     170 ->180        -0.19950
     175 ->177         0.22240
     176 ->178         0.36627
     176 ->179        -0.29456
     176 ->180         0.14697

 Excited State   4:      Singlet-A      2.9591 eV  418.99 nm  f=0.2358  <S**2>=0.000
     170 ->177         0.27112
     170 ->178        -0.12004
     170 ->179         0.27829
     170 ->180        -0.27683
     170 ->186         0.11840
     170 ->188        -0.12013
     175 ->177        -0.19032
     176 ->178        -0.30472
     176 ->179         0.16656

 Excited State   5:      Singlet-A      3.0503 eV  406.46 nm  f=0.0080  <S**2>=0.000
     167 ->177        -0.11435
     167 ->179         0.15548
     167 ->180         0.14263
     168 ->177        -0.28749
     168 ->179         0.34879
     168 ->180         0.30944
     168 ->184        -0.10682
     168 ->186         0.21488

 The electronic state is 1-A.
 Alpha  occ. eigenvalues --   -1.84916  -1.80882  -1.78176  -1.72135  -1.71839
 Alpha  occ. eigenvalues --   -1.69430  -1.65474  -1.61437  -1.60141  -1.56337
 Alpha  occ. eigenvalues --   -1.54586  -1.51091  -1.48160  -1.47049  -1.46514
 Alpha  occ. eigenvalues --   -1.43574  -1.42163  -1.41140  -1.38988  -1.37652
 Alpha  occ. eigenvalues --   -1.35359  -1.34591  -1.32854  -1.31756  -1.28821
 Alpha  occ. eigenvalues --   -1.27478  -1.24924  -1.23114  -1.21691  -1.18941
 Alpha  occ. eigenvalues --   -1.17451  -1.16302  -1.15840  -1.14270  -1.13423
 Alpha  occ. eigenvalues --   -1.13139  -1.11382  -1.11194  -1.04563  -1.02736
 Alpha  occ. eigenvalues --   -1.01990  -1.00655  -0.99612  -0.96929  -0.96578
 Alpha  occ. eigenvalues --   -0.95927  -0.94421  -0.93637  -0.93051  -0.92504
 Alpha  occ. eigenvalues --   -0.90806  -0.90514  -0.89143  -0.88532  -0.87484
 Alpha  occ. eigenvalues --   -0.86620  -0.84515  -0.83197  -0.81607  -0.80610
 Alpha  occ. eigenvalues --   -0.80033  -0.78143  -0.77666  -0.76237  -0.75790
 Alpha  occ. eigenvalues --   -0.75466  -0.75225  -0.74498  -0.73834  -0.73272
 Alpha  occ. eigenvalues --   -0.73044  -0.72945  -0.71904  -0.71515  -0.70567
 Alpha  occ. eigenvalues --   -0.70252  -0.70095  -0.68537  -0.68302  -0.67966
 Alpha  occ. eigenvalues --   -0.67442  -0.67364  -0.66833  -0.66209  -0.65416
 Alpha  occ. eigenvalues --   -0.64841  -0.64762  -0.64477  -0.63897  -0.63705
 Alpha  occ. eigenvalues --   -0.63026  -0.62720  -0.62512  -0.61812  -0.61667
 Alpha  occ. eigenvalues --   -0.61223  -0.60855  -0.60315  -0.59560  -0.59385
 Alpha  occ. eigenvalues --   -0.59245  -0.58949  -0.58346  -0.58211  -0.57894
 Alpha  occ. eigenvalues --   -0.57730  -0.57708  -0.57160  -0.56732  -0.56538
 Alpha  occ. eigenvalues --   -0.55992  -0.55584  -0.54940  -0.54657  -0.54532
 Alpha  occ. eigenvalues --   -0.54069  -0.53795  -0.53227  -0.53056  -0.52569
 Alpha  occ. eigenvalues --   -0.52138  -0.51991  -0.51838  -0.51644  -0.51416
 Alpha  occ. eigenvalues --   -0.51126  -0.51020  -0.50530  -0.50209  -0.50106
 Alpha  occ. eigenvalues --   -0.49817  -0.49779  -0.49726  -0.49074  -0.48874
 Alpha  occ. eigenvalues --   -0.48583  -0.48489  -0.48266  -0.48129  -0.47545
 Alpha  occ. eigenvalues --   -0.47415  -0.47237  -0.47006  -0.46736  -0.46425
 Alpha  occ. eigenvalues --   -0.46180  -0.46158  -0.46065  -0.45736  -0.45499
 Alpha  occ. eigenvalues --   -0.45242  -0.44884  -0.44620  -0.43933  -0.43837
 Alpha  occ. eigenvalues --   -0.43731  -0.43333  -0.43311  -0.42969  -0.42123
 Alpha  occ. eigenvalues --   -0.41436  -0.41201  -0.40666  -0.39303  -0.38971
 Alpha  occ. eigenvalues --   -0.37400  -0.36833  -0.36001  -0.34990  -0.34218
 Alpha  occ. eigenvalues --   -0.34102  -0.33439  -0.32064  -0.31358  -0.26203
 Alpha  occ. eigenvalues --   -0.21827
 Alpha virt. eigenvalues --   -0.08200  -0.02073  -0.00480   0.01051   0.01557
 Alpha virt. eigenvalues --    0.02331   0.03127   0.03658   0.04513   0.05006
 Alpha virt. eigenvalues --    0.06170   0.06809   0.07199   0.07433   0.08163

 Mulliken charges:
               1
     1  Mg   0.424806
     2  C   -0.041272
     3  C   -0.064299
     4  C   -0.085403
     5  C   -0.054136
     6  N   -0.243171
     7  C    0.115481
     8  C   -0.004188
     9  C   -0.000586
    10  C    0.124859
    11  C   -0.056555
    12  C   -0.019957
    13  C    0.012994
    14  C    0.472949
    15  O   -0.516468
    16  O   -0.284208
    17  N   -0.356136
    18  C    0.099855
    19  C    0.038918
    20  C   -0.046018
    21  C    0.151544
    22  C   -0.041582
    23  C    0.336397
    24  O   -0.490388
    25  C   -0.035655
    26  N   -0.263769
    27  C    0.181857
    28  C    0.011821
    29  C    0.003369
    30  C    0.075593
    31  C   -0.047977
    32  C   -0.024108
    33  C   -0.062503
    34  N   -0.304758
    35  C    0.063951
    36  C    0.039887
    37  C   -0.073808
    38  C    0.111843
    39  C   -0.037176
    40  C    0.329769
    41  O   -0.549910
    42  C    0.063742
    43  C    0.500331
    44  O   -0.531693
    45  O   -0.264155
    46  C    0.074241
    47  C    0.113035
    48  C   -0.083326
    49  C    0.002852
    50  C   -0.051918
    51  C   -0.029002
    52  C   -0.031439
    53  C   -0.034061
    54  C   -0.008268
    55  C   -0.064021
    56  C   -0.033840
    57  C   -0.041540
    58  C   -0.041754
    59  C   -0.000685
    60  C   -0.049997
    61  C   -0.039006
    62  C   -0.043737
    63  C   -0.030196
    64  C   -0.011180
    65  C   -0.058779
    66  C   -0.051418
    67  H    0.017766
    68  H    0.035858
    69  H    0.023930
    70  H    0.055682
    71  H    0.031518
    72  H    0.032138
    73  H    0.020938
    74  H    0.022710
    75  H    0.014623
    76  H    0.032935
    77  H    0.041325
    78  H    0.041703
    79  H    0.042121
    80  H    0.026943
    81  H    0.021071
    82  H    0.040825
    83  H    0.029406
    84  H    0.035149
    85  H    0.033539
    86  H    0.034739
    87  H    0.025987
    88  H    0.021096
    89  H    0.020810
    90  H    0.018088
    91  H    0.022364
    92  H    0.016724
    93  H    0.011998
    94  H    0.029524
    95  H    0.025484
    96  H    0.032022
    97  H    0.033189
    98  H    0.044945
    99  H    0.049512
   100  H    0.053191
   101  H    0.025814
   102  H    0.055056
   103  H    0.044894
   104  H    0.022786
   105  H    0.018788
   106  H    0.031123
   107  H    0.020630
   108  H    0.022169
   109  H    0.020492
   110  H    0.017652
   111  H    0.016005
   112  H    0.018540
   113  H    0.014220
   114  H    0.024213
   115  H    0.022549
   116  H    0.017955
   117  H    0.015419
   118  H    0.018513
   119  H    0.012264
   120  H    0.018810
   121  H    0.024846
   122  H    0.030082
   123  H    0.014731
   124  H    0.025622
   125  H    0.010094
   126  H    0.014386
   127  H    0.013240
   128  H    0.013057
   129  H    0.019981
   130  H    0.022089
   131  H    0.006474
   132  H    0.024089
   133  H    0.013598
   134  H    0.011664
   135  H    0.019070
   136  H    0.023391
   137  H    0.010575
   138  H    0.015441
   139  H    0.023576
   140  H    0.020200
 Sum of Mulliken charges =  -0.00000

 Dipole moment (field-independent basis, Debye):
    X=              7.9051    Y=              6.7358    Z=             -4.9178  Tot=             11.4911
 N-N= 4.211262199401D+03 E-N= 0.000000000000D+00  KE=-9.097116861044D+03
 Leave Link  601 at Fri Apr 29 11:37:38 2022, MaxMem=  6710886400 cpu:               2.3 elap:               0.1
 (Enter /sw/apps/gaussian-16.0/g16/l9999.exe)
 1\1\GINC-BP1-COMPUTE154\SP\RZINDO CIS\STO-3G\C55H74Mg1N4O6\OF15641\29-
 Apr-2022\0\\#p ZINDO=(nstates=5)\\step_251_chromophore_6 ZINDO\\0,1\Mg
 ,0,17.101,-2.077,27.77\C,0,16.455,-0.191,30.581\C,0,19.236,-3.947,29.6
 81\C,0,17.961,-3.746,24.963\C,0,15.377,0.23,25.822\N,0,17.834,-1.913,2
 9.914\C,0,17.312,-1.243,30.868\C,0,17.864,-1.552,32.354\C,0,18.995,-2.
 581,31.957\C,0,18.76,-2.803,30.388\C,0,20.509,-2.048,32.159\C,0,16.792
 ,-2.134,33.374\C,0,16.962,-1.78,34.894\C,0,18.257,-1.14,35.294\O,0,18.

 Normal termination of Gaussian 16 at Fri Apr 29 11:37:38 2022.
