 Gaussian 16, Revision A.03,
 Gaussian 16:  ES64L-G16RevA.03 25-Dec-2016

 ------------------------------
 #p blyp/Def2SVP td=(nstates=5)
 ------------------------------

 ---------------------------------------------------
 step_1651_chromophore_17 TDDFT with blyp functional
 ---------------------------------------------------
 Symbolic Z-matrix:
 Charge =  0 Multiplicity = 1

                         Standard orientation:
 ---------------------------------------------------------------------
 Center     Atomic      Atomic             Coordinates (Angstroms)
 Number     Number       Type             X           Y           Z
 ---------------------------------------------------------------------
      1         12           0        4.424863    1.297026   -0.483062
      2          6           0        4.306361   -2.342715   -0.347740
      3          6           0        1.788552    1.215081   -2.752292
      4          6           0        4.265994    4.474930   -0.064401
      5          6           0        6.597181    1.006524    2.396853
      6          7           0        3.151484   -0.363874   -1.287853
      7          6           0        3.315809   -1.754316   -1.135097
      8          6           0        2.275222   -2.444473   -2.043713
      9          6           0        1.627799   -1.328720   -2.925339
     10          6           0        2.194470   -0.043561   -2.290333
     11          6           0        1.994716   -1.513142   -4.408616
     12          6           0        1.185520   -3.198424   -1.088478
     13          6           0        0.779779   -4.597093   -1.473791
     14          6           0       -0.304799   -5.319316   -0.686570
     15          8           0       -0.403868   -6.565833   -0.460080
     16          8           0       -1.255382   -4.465366   -0.185577
     17          7           0        3.242832    2.627195   -1.305079
     18          6           0        2.311159    2.441265   -2.305013
     19          6           0        1.766817    3.716719   -2.652476
     20          6           0        2.485779    4.717702   -1.988115
     21          6           0        3.364718    3.940223   -1.056527
     22          6           0        0.763405    3.802618   -3.871260
     23          6           0        2.393896    6.246244   -2.201562
     24          8           0        1.504688    6.733077   -2.881351
     25          6           0        3.392212    7.210630   -1.675208
     26          7           0        5.332136    2.546965    1.008988
     27          6           0        5.118783    3.839941    0.853847
     28          6           0        5.981891    4.668902    1.851238
     29          6           0        6.699164    3.636740    2.679661
     30          6           0        6.221360    2.287177    1.954633
     31          6           0        6.793379    5.846564    1.365970
     32          6           0        6.456087    3.578521    4.153999
     33          6           0        7.380232    4.516211    4.938002
     34          7           0        5.414350   -0.287220    0.707422
     35          6           0        6.273481   -0.232812    1.764209
     36          6           0        6.817223   -1.569893    2.086066
     37          6           0        6.034526   -2.435707    1.288931
     38          6           0        5.191498   -1.598779    0.471055
     39          6           0        7.934077   -1.989474    2.824627
     40          6           0        5.838160   -3.843626    0.928946
     41          8           0        6.338137   -4.877396    1.336874
     42          6           0        4.590617   -3.785878   -0.086530
     43          6           0        4.940499   -4.453349   -1.309363
     44          8           0        5.800839   -4.105285   -2.111044
     45          8           0        4.294643   -5.659168   -1.328214
     46          6           0        4.254407   -6.162893   -2.749059
     47          6           0       -2.449783   -5.181026    0.394801
     48          6           0       -3.101231   -4.242909    1.440790
     49          6           0       -4.406785   -3.862789    1.627556
     50          6           0       -5.584766   -4.310393    0.773158
     51          6           0       -4.782602   -3.092575    2.901812
     52          6           0       -4.955967   -1.580412    2.880507
     53          6           0       -6.432787   -1.037914    3.085028
     54          6           0       -7.131124   -0.478299    1.811586
     55          6           0       -8.345119   -1.381164    1.447097
     56          6           0       -7.466949    1.053199    1.850060
     57          6           0       -7.278195    1.920153    0.494456
     58          6           0       -8.558538    2.636793   -0.051502
     59          6           0       -9.057645    1.952121   -1.282196
     60          6           0       -8.239789    2.433048   -2.564311
     61          6           0      -10.619503    2.183111   -1.555889
     62          6           0      -11.478591    1.010996   -1.131788
     63          6           0      -12.868078    1.342317   -0.530622
     64          6           0      -12.913734    1.470394    1.010565
     65          6           0      -13.482135    0.143073    1.581643
     66          6           0      -13.615773    2.791921    1.567970
     67          1           0        1.092012    1.231441   -3.593030
     68          1           0        4.238109    5.565262   -0.015369
     69          1           0        7.355894    1.001207    3.182459
     70          1           0        2.863459   -3.175148   -2.597581
     71          1           0        0.545244   -1.268295   -2.814402
     72          1           0        2.715566   -2.307837   -4.603525
     73          1           0        2.520117   -0.626617   -4.761327
     74          1           0        1.072726   -1.657838   -4.971012
     75          1           0        0.296457   -2.568065   -1.065810
     76          1           0        1.633496   -3.221298   -0.094525
     77          1           0        1.626598   -5.245074   -1.246241
     78          1           0        0.660788   -4.711308   -2.551537
     79          1           0        0.792000    4.828722   -4.237842
     80          1           0       -0.246835    3.573967   -3.532744
     81          1           0        1.033677    3.154431   -4.704349
     82          1           0        3.158718    7.541120   -0.663703
     83          1           0        3.454514    8.029747   -2.391660
     84          1           0        4.348048    6.698217   -1.783581
     85          1           0        5.149017    5.056657    2.439502
     86          1           0        7.776455    3.716193    2.532127
     87          1           0        6.215612    6.757319    1.522327
     88          1           0        6.852104    5.733764    0.283669
     89          1           0        7.779599    5.906490    1.827796
     90          1           0        6.589100    2.566367    4.535323
     91          1           0        5.460677    3.922476    4.433549
     92          1           0        8.019376    5.078161    4.257980
     93          1           0        8.023382    3.937328    5.601164
     94          1           0        6.753519    5.159486    5.555184
     95          1           0        7.877714   -1.872045    3.906982
     96          1           0        8.863316   -1.455337    2.626124
     97          1           0        8.112985   -3.063031    2.788941
     98          1           0        3.700782   -4.317705    0.248308
     99          1           0        5.154272   -6.777007   -2.803576
    100          1           0        4.285379   -5.354845   -3.480276
    101          1           0        3.358141   -6.763650   -2.898784
    102          1           0       -2.233797   -6.029878    1.043919
    103          1           0       -3.027211   -5.602906   -0.428046
    104          1           0       -2.378691   -3.896054    2.179741
    105          1           0       -6.246063   -4.985863    1.316274
    106          1           0       -5.163718   -4.897653   -0.042047
    107          1           0       -6.155393   -3.449971    0.424094
    108          1           0       -3.994014   -3.253861    3.636652
    109          1           0       -5.692130   -3.546321    3.295415
    110          1           0       -4.535292   -1.339165    1.903846
    111          1           0       -4.268542   -0.979999    3.476994
    112          1           0       -6.385619   -0.322099    3.905622
    113          1           0       -7.044757   -1.826799    3.523167
    114          1           0       -6.516895   -0.556476    0.914836
    115          1           0       -8.515730   -2.250397    2.083353
    116          1           0       -8.148483   -1.773379    0.449065
    117          1           0       -9.226690   -0.744148    1.516675
    118          1           0       -6.739018    1.476261    2.543335
    119          1           0       -8.495414    1.079274    2.209739
    120          1           0       -6.957084    1.214134   -0.271010
    121          1           0       -6.465069    2.606416    0.730614
    122          1           0       -8.311876    3.677518   -0.261398
    123          1           0       -9.357666    2.645173    0.689285
    124          1           0       -8.970258    0.871113   -1.174797
    125          1           0       -7.861484    1.556366   -3.089600
    126          1           0       -7.409517    3.056951   -2.231976
    127          1           0       -8.831510    3.035246   -3.252957
    128          1           0      -10.837077    2.336113   -2.613203
    129          1           0      -10.967462    3.082754   -1.048062
    130          1           0      -10.971349    0.336515   -0.442352
    131          1           0      -11.552280    0.423240   -2.047241
    132          1           0      -13.512624    0.574826   -0.958061
    133          1           0      -13.230893    2.288517   -0.931695
    134          1           0      -11.899140    1.659072    1.361654
    135          1           0      -14.560903    0.269855    1.672795
    136          1           0      -13.070720   -0.025160    2.577315
    137          1           0      -13.226639   -0.671138    0.904235
    138          1           0      -14.134386    2.567451    2.500376
    139          1           0      -14.255773    3.313353    0.857076
    140          1           0      -12.862564    3.493053    1.929662
 ---------------------------------------------------------------------

 SCF Done:  E(RB-LYP) =  -3007.37399158     A.U. after   20 cycles

 Excitation energies and oscillator strengths:

 Excited State   1:      Singlet-A      1.8000 eV  688.78 nm  f=0.3105  <S**2>=0.000
     245 -> 248        0.18273
     246 -> 247        0.68959
     246 <- 247       -0.15452
 This state for optimization and/or second-order correction.
 Total Energy, E(TD-HF/TD-DFT) =  -3007.30784102
 Copying the excited state density for this state as the 1-particle RhoCI density.

 Excited State   2:      Singlet-A      1.8847 eV  657.85 nm  f=0.0054  <S**2>=0.000
     244 -> 247        0.70254

 Excited State   3:      Singlet-A      2.0466 eV  605.80 nm  f=0.0618  <S**2>=0.000
     243 -> 247       -0.18470
     245 -> 247        0.62395
     246 -> 248       -0.23717

 Excited State   4:      Singlet-A      2.1637 eV  573.02 nm  f=0.0076  <S**2>=0.000
     243 -> 247        0.68074
     245 -> 247        0.15258

 Excited State   5:      Singlet-A      2.2451 eV  552.24 nm  f=0.0011  <S**2>=0.000
     242 -> 247        0.70562

 The electronic state is 1-A.
 Alpha  occ. eigenvalues --  -46.27924 -18.82510 -18.82110 -18.76793 -18.76456
 Alpha  occ. eigenvalues --  -18.76428 -18.75638 -14.03759 -14.03610 -14.01765
 Alpha  occ. eigenvalues --  -14.01325 -10.04528 -10.03189 -10.00607 -10.00176
 Alpha  occ. eigenvalues --   -9.98435  -9.97796  -9.97167  -9.97047  -9.96985
 Alpha  occ. eigenvalues --   -9.96893  -9.96714  -9.96180  -9.95492  -9.94947
 Alpha  occ. eigenvalues --   -9.94775  -9.94401  -9.94039  -9.93964  -9.93846
 Alpha  occ. eigenvalues --   -9.93843  -9.93690  -9.93588  -9.93573  -9.93401
 Alpha  occ. eigenvalues --   -9.93396  -9.93372  -9.93344  -9.93222  -9.93148
 Alpha  occ. eigenvalues --   -9.92939  -9.92666  -9.92633  -9.92525  -9.92417
 Alpha  occ. eigenvalues --   -9.92296  -9.92169  -9.92067  -9.92008  -9.92006
 Alpha  occ. eigenvalues --   -9.91863  -9.91862  -9.91693  -9.91691  -9.91550
 Alpha  occ. eigenvalues --   -9.91451  -9.91447  -9.91433  -9.91059  -9.91018
 Alpha  occ. eigenvalues --   -9.90922  -9.90865  -9.90763  -9.90752  -9.90632
 Alpha  occ. eigenvalues --   -9.90591  -2.92587  -1.72985  -1.72484  -1.72306
 Alpha  occ. eigenvalues --   -0.97658  -0.96840  -0.92108  -0.91978  -0.89383
 Alpha  occ. eigenvalues --   -0.88197  -0.87364  -0.86482  -0.86145  -0.83646
 Alpha  occ. eigenvalues --   -0.75893  -0.73821  -0.73035  -0.72614  -0.72383
 Alpha  occ. eigenvalues --   -0.72351  -0.71513  -0.71295  -0.71004  -0.70395
 Alpha  occ. eigenvalues --   -0.69784  -0.69328  -0.68295  -0.67892  -0.67362
 Alpha  occ. eigenvalues --   -0.66529  -0.66362  -0.65504  -0.65239  -0.64607
 Alpha  occ. eigenvalues --   -0.63566  -0.62769  -0.62329  -0.61701  -0.60877
 Alpha  occ. eigenvalues --   -0.60378  -0.60259  -0.60103  -0.59308  -0.58825
 Alpha  occ. eigenvalues --   -0.58177  -0.57604  -0.57310  -0.55878  -0.55123
 Alpha  occ. eigenvalues --   -0.54345  -0.53868  -0.53052  -0.52272  -0.52166
 Alpha  occ. eigenvalues --   -0.51474  -0.51181  -0.51120  -0.50598  -0.49957
 Alpha  occ. eigenvalues --   -0.49351  -0.48997  -0.48559  -0.48133  -0.46785
 Alpha  occ. eigenvalues --   -0.46516  -0.46440  -0.46050  -0.45371  -0.44735
 Alpha  occ. eigenvalues --   -0.44114  -0.43688  -0.43132  -0.42878  -0.42342
 Alpha  occ. eigenvalues --   -0.42205  -0.41919  -0.41477  -0.41340  -0.41237
 Alpha  occ. eigenvalues --   -0.41124  -0.40850  -0.40470  -0.40308  -0.40188
 Alpha  occ. eigenvalues --   -0.40165  -0.40032  -0.39769  -0.39340  -0.39143
 Alpha  occ. eigenvalues --   -0.38994  -0.38887  -0.38778  -0.38481  -0.38390
 Alpha  occ. eigenvalues --   -0.38189  -0.37956  -0.37795  -0.37424  -0.37147
 Alpha  occ. eigenvalues --   -0.37085  -0.36987  -0.36940  -0.36702  -0.36634
 Alpha  occ. eigenvalues --   -0.36514  -0.36099  -0.36060  -0.35965  -0.35753
 Alpha  occ. eigenvalues --   -0.35461  -0.35310  -0.35281  -0.35104  -0.34782
 Alpha  occ. eigenvalues --   -0.34594  -0.34327  -0.34108  -0.33941  -0.33812
 Alpha  occ. eigenvalues --   -0.33778  -0.33579  -0.33546  -0.33419  -0.33340
 Alpha  occ. eigenvalues --   -0.33249  -0.33161  -0.32765  -0.32582  -0.32471
 Alpha  occ. eigenvalues --   -0.32272  -0.32160  -0.31980  -0.31769  -0.31721
 Alpha  occ. eigenvalues --   -0.31652  -0.31389  -0.31221  -0.30982  -0.30728
 Alpha  occ. eigenvalues --   -0.30663  -0.30578  -0.30512  -0.30341  -0.29805
 Alpha  occ. eigenvalues --   -0.29645  -0.29543  -0.29433  -0.29372  -0.29151
 Alpha  occ. eigenvalues --   -0.28981  -0.28817  -0.28355  -0.28293  -0.28122
 Alpha  occ. eigenvalues --   -0.27613  -0.27078  -0.26886  -0.26835  -0.26479
 Alpha  occ. eigenvalues --   -0.25973  -0.25765  -0.25638  -0.25442  -0.25180
 Alpha  occ. eigenvalues --   -0.25072  -0.24856  -0.24133  -0.24130  -0.24116
 Alpha  occ. eigenvalues --   -0.23297  -0.22604  -0.21759  -0.21703  -0.21475
 Alpha  occ. eigenvalues --   -0.20688  -0.20076  -0.19640  -0.18677  -0.17791
 Alpha  occ. eigenvalues --   -0.16026
 Alpha virt. eigenvalues --   -0.11833  -0.07230  -0.06455  -0.05082  -0.03813
 Alpha virt. eigenvalues --   -0.03379  -0.03120  -0.02416  -0.01751  -0.00072
 Alpha virt. eigenvalues --    0.00858   0.01577   0.01833   0.02100   0.02441

 Mulliken charges:
               1
     1  Mg   0.718772
     2  C    0.034469
     3  C   -0.041640
     4  C   -0.053797
     5  C   -0.063505
     6  N   -0.248832
     7  C   -0.090894
     8  C    0.002211
     9  C    0.019686
    10  C    0.035979
    11  C    0.128709
    12  C    0.099229
    13  C    0.110028
    14  C    0.098382
    15  O   -0.234466
    16  O   -0.271414
    17  N   -0.334118
    18  C    0.130883
    19  C   -0.150470
    20  C    0.038617
    21  C    0.105875
    22  C    0.155036
    23  C   -0.095852
    24  O   -0.159588
    25  C    0.153273
    26  N   -0.168931
    27  C   -0.002500
    28  C    0.039524
    29  C    0.024269
    30  C   -0.029349
    31  C    0.163977
    32  C    0.092680
    33  C    0.067690
    34  N   -0.193480
    35  C    0.092210
    36  C   -0.114520
    37  C    0.037141
    38  C    0.056179
    39  C    0.160864
    40  C    0.015316
    41  O   -0.114015
    42  C    0.093310
    43  C    0.051068
    44  O   -0.190930
    45  O   -0.275431
    46  C    0.211225
    47  C    0.290774
    48  C   -0.074609
    49  C   -0.156672
    50  C    0.152785
    51  C    0.140728
    52  C    0.061205
    53  C    0.120104
    54  C   -0.090842
    55  C    0.082124
    56  C    0.090757
    57  C    0.056931
    58  C    0.138853
    59  C   -0.110814
    60  C    0.103056
    61  C    0.113038
    62  C    0.028978
    63  C    0.112405
    64  C   -0.087380
    65  C    0.109256
    66  C    0.085413
    67  H   -0.054700
    68  H   -0.096076
    69  H   -0.057644
    70  H   -0.014848
    71  H   -0.017214
    72  H   -0.006293
    73  H   -0.012881
    74  H   -0.002802
    75  H   -0.008812
    76  H   -0.009557
    77  H    0.005084
    78  H    0.007398
    79  H    0.002425
    80  H   -0.002266
    81  H    0.001280
    82  H    0.033671
    83  H   -0.002177
    84  H   -0.006009
    85  H   -0.029452
    86  H   -0.033985
    87  H   -0.010582
    88  H   -0.013365
    89  H    0.003451
    90  H   -0.021280
    91  H   -0.027417
    92  H   -0.012218
    93  H   -0.009735
    94  H   -0.007425
    95  H   -0.021892
    96  H   -0.005638
    97  H    0.002608
    98  H   -0.008512
    99  H    0.024305
   100  H    0.024014
   101  H    0.022135
   102  H    0.021981
   103  H    0.000029
   104  H   -0.031950
   105  H    0.002283
   106  H   -0.026115
   107  H    0.002553
   108  H   -0.035407
   109  H   -0.035513
   110  H   -0.037203
   111  H   -0.031635
   112  H   -0.038837
   113  H   -0.039613
   114  H   -0.034129
   115  H   -0.016194
   116  H   -0.003500
   117  H   -0.009398
   118  H   -0.030593
   119  H   -0.027587
   120  H   -0.021098
   121  H   -0.027425
   122  H   -0.035376
   123  H   -0.031124
   124  H   -0.028793
   125  H   -0.015021
   126  H   -0.020064
   127  H   -0.011412
   128  H   -0.036953
   129  H   -0.037869
   130  H   -0.025995
   131  H   -0.040479
   132  H   -0.037602
   133  H   -0.047150
   134  H   -0.027500
   135  H   -0.009556
   136  H   -0.018001
   137  H   -0.006802
   138  H   -0.027273
   139  H   -0.004218
   140  H   -0.022011
 Sum of Mulliken charges =  -0.00000

 Dipole moment (field-independent basis, Debye):
    X=             -0.2488    Y=              3.8857    Z=              0.6304  Tot=              3.9444
 Quadrupole moment (field-independent basis, Debye-Ang):
   XX=           -395.9403   YY=           -442.9298   ZZ=           -391.3722
   XY=             49.5490   XZ=              7.0808   YZ=             29.4710

 Normal termination of Gaussian 16 at Thu Apr 28 17:18:17 2022.
