 Gaussian 16, Revision A.03,
 Gaussian 16:  ES64L-G16RevA.03 25-Dec-2016

 -----------------------------------
 #p cam-b3lyp/Def2SVP td=(nstates=5)
 -----------------------------------

 --------------------------------------------------------
 step_1651_chromophore_17 TDDFT with cam-b3lyp functional
 --------------------------------------------------------
 Symbolic Z-matrix:
 Charge =  0 Multiplicity = 1

                         Standard orientation:
 ---------------------------------------------------------------------
 Center     Atomic      Atomic             Coordinates (Angstroms)
 Number     Number       Type             X           Y           Z
 ---------------------------------------------------------------------
      1         12           0        4.424863    1.297026   -0.483062
      2          6           0        4.306361   -2.342715   -0.347740
      3          6           0        1.788552    1.215081   -2.752292
      4          6           0        4.265994    4.474930   -0.064401
      5          6           0        6.597181    1.006524    2.396853
      6          7           0        3.151484   -0.363874   -1.287853
      7          6           0        3.315809   -1.754316   -1.135097
      8          6           0        2.275222   -2.444473   -2.043713
      9          6           0        1.627799   -1.328720   -2.925339
     10          6           0        2.194470   -0.043561   -2.290333
     11          6           0        1.994716   -1.513142   -4.408616
     12          6           0        1.185520   -3.198424   -1.088478
     13          6           0        0.779779   -4.597093   -1.473791
     14          6           0       -0.304799   -5.319316   -0.686570
     15          8           0       -0.403868   -6.565833   -0.460080
     16          8           0       -1.255382   -4.465366   -0.185577
     17          7           0        3.242832    2.627195   -1.305079
     18          6           0        2.311159    2.441265   -2.305013
     19          6           0        1.766817    3.716719   -2.652476
     20          6           0        2.485779    4.717702   -1.988115
     21          6           0        3.364718    3.940223   -1.056527
     22          6           0        0.763405    3.802618   -3.871260
     23          6           0        2.393896    6.246244   -2.201562
     24          8           0        1.504688    6.733077   -2.881351
     25          6           0        3.392212    7.210630   -1.675208
     26          7           0        5.332136    2.546965    1.008988
     27          6           0        5.118783    3.839941    0.853847
     28          6           0        5.981891    4.668902    1.851238
     29          6           0        6.699164    3.636740    2.679661
     30          6           0        6.221360    2.287177    1.954633
     31          6           0        6.793379    5.846564    1.365970
     32          6           0        6.456087    3.578521    4.153999
     33          6           0        7.380232    4.516211    4.938002
     34          7           0        5.414350   -0.287220    0.707422
     35          6           0        6.273481   -0.232812    1.764209
     36          6           0        6.817223   -1.569893    2.086066
     37          6           0        6.034526   -2.435707    1.288931
     38          6           0        5.191498   -1.598779    0.471055
     39          6           0        7.934077   -1.989474    2.824627
     40          6           0        5.838160   -3.843626    0.928946
     41          8           0        6.338137   -4.877396    1.336874
     42          6           0        4.590617   -3.785878   -0.086530
     43          6           0        4.940499   -4.453349   -1.309363
     44          8           0        5.800839   -4.105285   -2.111044
     45          8           0        4.294643   -5.659168   -1.328214
     46          6           0        4.254407   -6.162893   -2.749059
     47          6           0       -2.449783   -5.181026    0.394801
     48          6           0       -3.101231   -4.242909    1.440790
     49          6           0       -4.406785   -3.862789    1.627556
     50          6           0       -5.584766   -4.310393    0.773158
     51          6           0       -4.782602   -3.092575    2.901812
     52          6           0       -4.955967   -1.580412    2.880507
     53          6           0       -6.432787   -1.037914    3.085028
     54          6           0       -7.131124   -0.478299    1.811586
     55          6           0       -8.345119   -1.381164    1.447097
     56          6           0       -7.466949    1.053199    1.850060
     57          6           0       -7.278195    1.920153    0.494456
     58          6           0       -8.558538    2.636793   -0.051502
     59          6           0       -9.057645    1.952121   -1.282196
     60          6           0       -8.239789    2.433048   -2.564311
     61          6           0      -10.619503    2.183111   -1.555889
     62          6           0      -11.478591    1.010996   -1.131788
     63          6           0      -12.868078    1.342317   -0.530622
     64          6           0      -12.913734    1.470394    1.010565
     65          6           0      -13.482135    0.143073    1.581643
     66          6           0      -13.615773    2.791921    1.567970
     67          1           0        1.092012    1.231441   -3.593030
     68          1           0        4.238109    5.565262   -0.015369
     69          1           0        7.355894    1.001207    3.182459
     70          1           0        2.863459   -3.175148   -2.597581
     71          1           0        0.545244   -1.268295   -2.814402
     72          1           0        2.715566   -2.307837   -4.603525
     73          1           0        2.520117   -0.626617   -4.761327
     74          1           0        1.072726   -1.657838   -4.971012
     75          1           0        0.296457   -2.568065   -1.065810
     76          1           0        1.633496   -3.221298   -0.094525
     77          1           0        1.626598   -5.245074   -1.246241
     78          1           0        0.660788   -4.711308   -2.551537
     79          1           0        0.792000    4.828722   -4.237842
     80          1           0       -0.246835    3.573967   -3.532744
     81          1           0        1.033677    3.154431   -4.704349
     82          1           0        3.158718    7.541120   -0.663703
     83          1           0        3.454514    8.029747   -2.391660
     84          1           0        4.348048    6.698217   -1.783581
     85          1           0        5.149017    5.056657    2.439502
     86          1           0        7.776455    3.716193    2.532127
     87          1           0        6.215612    6.757319    1.522327
     88          1           0        6.852104    5.733764    0.283669
     89          1           0        7.779599    5.906490    1.827796
     90          1           0        6.589100    2.566367    4.535323
     91          1           0        5.460677    3.922476    4.433549
     92          1           0        8.019376    5.078161    4.257980
     93          1           0        8.023382    3.937328    5.601164
     94          1           0        6.753519    5.159486    5.555184
     95          1           0        7.877714   -1.872045    3.906982
     96          1           0        8.863316   -1.455337    2.626124
     97          1           0        8.112985   -3.063031    2.788941
     98          1           0        3.700782   -4.317705    0.248308
     99          1           0        5.154272   -6.777007   -2.803576
    100          1           0        4.285379   -5.354845   -3.480276
    101          1           0        3.358141   -6.763650   -2.898784
    102          1           0       -2.233797   -6.029878    1.043919
    103          1           0       -3.027211   -5.602906   -0.428046
    104          1           0       -2.378691   -3.896054    2.179741
    105          1           0       -6.246063   -4.985863    1.316274
    106          1           0       -5.163718   -4.897653   -0.042047
    107          1           0       -6.155393   -3.449971    0.424094
    108          1           0       -3.994014   -3.253861    3.636652
    109          1           0       -5.692130   -3.546321    3.295415
    110          1           0       -4.535292   -1.339165    1.903846
    111          1           0       -4.268542   -0.979999    3.476994
    112          1           0       -6.385619   -0.322099    3.905622
    113          1           0       -7.044757   -1.826799    3.523167
    114          1           0       -6.516895   -0.556476    0.914836
    115          1           0       -8.515730   -2.250397    2.083353
    116          1           0       -8.148483   -1.773379    0.449065
    117          1           0       -9.226690   -0.744148    1.516675
    118          1           0       -6.739018    1.476261    2.543335
    119          1           0       -8.495414    1.079274    2.209739
    120          1           0       -6.957084    1.214134   -0.271010
    121          1           0       -6.465069    2.606416    0.730614
    122          1           0       -8.311876    3.677518   -0.261398
    123          1           0       -9.357666    2.645173    0.689285
    124          1           0       -8.970258    0.871113   -1.174797
    125          1           0       -7.861484    1.556366   -3.089600
    126          1           0       -7.409517    3.056951   -2.231976
    127          1           0       -8.831510    3.035246   -3.252957
    128          1           0      -10.837077    2.336113   -2.613203
    129          1           0      -10.967462    3.082754   -1.048062
    130          1           0      -10.971349    0.336515   -0.442352
    131          1           0      -11.552280    0.423240   -2.047241
    132          1           0      -13.512624    0.574826   -0.958061
    133          1           0      -13.230893    2.288517   -0.931695
    134          1           0      -11.899140    1.659072    1.361654
    135          1           0      -14.560903    0.269855    1.672795
    136          1           0      -13.070720   -0.025160    2.577315
    137          1           0      -13.226639   -0.671138    0.904235
    138          1           0      -14.134386    2.567451    2.500376
    139          1           0      -14.255773    3.313353    0.857076
    140          1           0      -12.862564    3.493053    1.929662
 ---------------------------------------------------------------------

 SCF Done:  E(RCAM-B3LYP) =  -3007.15879633     A.U. after   17 cycles

 Excitation energies and oscillator strengths:

 Excited State   1:      Singlet-A      1.6824 eV  736.94 nm  f=0.3870  <S**2>=0.000
     245 -> 248       -0.17888
     246 -> 247        0.68669
     245 <- 248       -0.10945
 This state for optimization and/or second-order correction.
 Total Energy, E(TD-HF/TD-DFT) =  -3007.09696816
 Copying the excited state density for this state as the 1-particle RhoCI density.

 Excited State   2:      Singlet-A      2.2787 eV  544.11 nm  f=0.0903  <S**2>=0.000
     245 -> 247        0.62504
     246 -> 248        0.31956

 Excited State   3:      Singlet-A      3.4072 eV  363.89 nm  f=0.0714  <S**2>=0.000
     243 -> 247        0.58094
     244 -> 247       -0.17319
     245 -> 247       -0.10504
     246 -> 248        0.30617

 Excited State   4:      Singlet-A      3.5359 eV  350.64 nm  f=0.4602  <S**2>=0.000
     242 -> 247       -0.33214
     242 -> 249       -0.10171
     243 -> 247       -0.25321
     245 -> 247       -0.24842
     246 -> 248        0.46267

 Excited State   5:      Singlet-A      3.5980 eV  344.59 nm  f=0.2254  <S**2>=0.000
     240 -> 247        0.11732
     241 -> 247        0.10068
     241 -> 249        0.12182
     241 -> 251        0.14406
     242 -> 247        0.47385
     242 -> 249        0.15590
     242 -> 251        0.14380
     243 -> 247       -0.17164
     245 -> 247       -0.16438
     246 -> 248        0.24351

 The electronic state is 1-A.
 Alpha  occ. eigenvalues --  -46.89510 -19.25401 -19.25221 -19.20040 -19.19731
 Alpha  occ. eigenvalues --  -19.19359 -19.18849 -14.42708 -14.42382 -14.40276
 Alpha  occ. eigenvalues --  -14.39763 -10.39937 -10.38726 -10.36109 -10.35319
 Alpha  occ. eigenvalues --  -10.32578 -10.31997 -10.31746 -10.31515 -10.31474
 Alpha  occ. eigenvalues --  -10.31389 -10.31143 -10.30486 -10.29732 -10.29319
 Alpha  occ. eigenvalues --  -10.28959 -10.28390 -10.28359 -10.28220 -10.28105
 Alpha  occ. eigenvalues --  -10.28052 -10.27773 -10.27743 -10.27599 -10.27573
 Alpha  occ. eigenvalues --  -10.27570 -10.27555 -10.27532 -10.27490 -10.27237
 Alpha  occ. eigenvalues --  -10.26664 -10.26646 -10.26377 -10.26302 -10.26203
 Alpha  occ. eigenvalues --  -10.26075 -10.25925 -10.25923 -10.25715 -10.25657
 Alpha  occ. eigenvalues --  -10.25640 -10.25626 -10.25604 -10.25419 -10.25390
 Alpha  occ. eigenvalues --  -10.25178 -10.25141 -10.25093 -10.24693 -10.24657
 Alpha  occ. eigenvalues --  -10.24508 -10.24486 -10.24423 -10.24370 -10.24272
 Alpha  occ. eigenvalues --  -10.24266  -3.18075  -1.92948  -1.92533  -1.92389
 Alpha  occ. eigenvalues --   -1.16372  -1.15207  -1.10568  -1.10394  -1.07469
 Alpha  occ. eigenvalues --   -1.05946  -1.05120  -1.04096  -1.03761  -1.01196
 Alpha  occ. eigenvalues --   -0.93114  -0.90572  -0.89871  -0.89407  -0.89152
 Alpha  occ. eigenvalues --   -0.89058  -0.88176  -0.87950  -0.87551  -0.86946
 Alpha  occ. eigenvalues --   -0.86259  -0.85886  -0.84522  -0.84151  -0.83556
 Alpha  occ. eigenvalues --   -0.82656  -0.82506  -0.81528  -0.81094  -0.80387
 Alpha  occ. eigenvalues --   -0.79346  -0.78456  -0.77872  -0.77288  -0.76343
 Alpha  occ. eigenvalues --   -0.75720  -0.75590  -0.75459  -0.74582  -0.74076
 Alpha  occ. eigenvalues --   -0.73229  -0.72583  -0.72233  -0.70750  -0.69719
 Alpha  occ. eigenvalues --   -0.68993  -0.68466  -0.67570  -0.66599  -0.66257
 Alpha  occ. eigenvalues --   -0.65553  -0.65381  -0.65332  -0.64601  -0.63693
 Alpha  occ. eigenvalues --   -0.63325  -0.62947  -0.62469  -0.62020  -0.60432
 Alpha  occ. eigenvalues --   -0.60079  -0.59943  -0.59609  -0.58752  -0.58310
 Alpha  occ. eigenvalues --   -0.57771  -0.56869  -0.56520  -0.56177  -0.55484
 Alpha  occ. eigenvalues --   -0.55274  -0.54950  -0.54404  -0.54229  -0.54070
 Alpha  occ. eigenvalues --   -0.53888  -0.53491  -0.53320  -0.53110  -0.52813
 Alpha  occ. eigenvalues --   -0.52749  -0.52646  -0.52537  -0.52067  -0.51899
 Alpha  occ. eigenvalues --   -0.51652  -0.51500  -0.51268  -0.50845  -0.50786
 Alpha  occ. eigenvalues --   -0.50563  -0.50502  -0.50290  -0.50054  -0.49559
 Alpha  occ. eigenvalues --   -0.49491  -0.49420  -0.49176  -0.49028  -0.48997
 Alpha  occ. eigenvalues --   -0.48778  -0.48577  -0.48414  -0.48013  -0.47797
 Alpha  occ. eigenvalues --   -0.47445  -0.47259  -0.47242  -0.47103  -0.46737
 Alpha  occ. eigenvalues --   -0.46438  -0.46185  -0.46057  -0.45800  -0.45762
 Alpha  occ. eigenvalues --   -0.45503  -0.45324  -0.45222  -0.45167  -0.45026
 Alpha  occ. eigenvalues --   -0.44972  -0.44843  -0.44663  -0.44295  -0.44164
 Alpha  occ. eigenvalues --   -0.44044  -0.43905  -0.43687  -0.43353  -0.43202
 Alpha  occ. eigenvalues --   -0.43122  -0.42952  -0.42896  -0.42530  -0.42397
 Alpha  occ. eigenvalues --   -0.42150  -0.42075  -0.41887  -0.41789  -0.40978
 Alpha  occ. eigenvalues --   -0.40897  -0.40784  -0.40667  -0.40512  -0.40176
 Alpha  occ. eigenvalues --   -0.40122  -0.39991  -0.39353  -0.39317  -0.39091
 Alpha  occ. eigenvalues --   -0.38474  -0.37970  -0.37870  -0.37673  -0.37260
 Alpha  occ. eigenvalues --   -0.36680  -0.36645  -0.36525  -0.36380  -0.36289
 Alpha  occ. eigenvalues --   -0.36276  -0.35761  -0.34633  -0.34572  -0.34537
 Alpha  occ. eigenvalues --   -0.34281  -0.33801  -0.33238  -0.31796  -0.31493
 Alpha  occ. eigenvalues --   -0.31337  -0.30578  -0.29917  -0.29870  -0.24604
 Alpha  occ. eigenvalues --   -0.21225
 Alpha virt. eigenvalues --   -0.08928  -0.02080   0.00029   0.01440   0.02131
 Alpha virt. eigenvalues --    0.04045   0.04350   0.05002   0.05464   0.06464
 Alpha virt. eigenvalues --    0.07485   0.07821   0.08200   0.08433   0.08649

 Mulliken charges:
               1
     1  Mg   0.849678
     2  C   -0.000973
     3  C   -0.056037
     4  C   -0.074852
     5  C   -0.071104
     6  N   -0.316378
     7  C   -0.039154
     8  C   -0.044255
     9  C   -0.035024
    10  C    0.052676
    11  C    0.068852
    12  C    0.053176
    13  C    0.037480
    14  C    0.185538
    15  O   -0.278534
    16  O   -0.335865
    17  N   -0.425450
    18  C    0.135967
    19  C   -0.147044
    20  C   -0.037484
    21  C    0.136847
    22  C    0.095521
    23  C   -0.012485
    24  O   -0.199363
    25  C    0.064779
    26  N   -0.245393
    27  C    0.022554
    28  C   -0.018523
    29  C   -0.030459
    30  C   -0.004295
    31  C    0.100093
    32  C    0.034213
    33  C    0.008690
    34  N   -0.278518
    35  C    0.098425
    36  C   -0.105272
    37  C   -0.039859
    38  C    0.094026
    39  C    0.092520
    40  C    0.115787
    41  O   -0.151679
    42  C    0.007854
    43  C    0.144304
    44  O   -0.226114
    45  O   -0.337137
    46  C    0.169497
    47  C    0.258487
    48  C   -0.098347
    49  C   -0.177315
    50  C    0.098424
    51  C    0.079269
    52  C    0.006983
    53  C    0.061128
    54  C   -0.142936
    55  C    0.030393
    56  C    0.043657
    57  C    0.004746
    58  C    0.082451
    59  C   -0.164478
    60  C    0.045369
    61  C    0.062101
    62  C   -0.018621
    63  C    0.051749
    64  C   -0.144564
    65  C    0.050885
    66  C    0.028167
    67  H   -0.017377
    68  H   -0.058512
    69  H   -0.022645
    70  H    0.011930
    71  H    0.018351
    72  H    0.018164
    73  H    0.013645
    74  H    0.021401
    75  H    0.023045
    76  H    0.019031
    77  H    0.034018
    78  H    0.037548
    79  H    0.033377
    80  H    0.024981
    81  H    0.025549
    82  H    0.060204
    83  H    0.033015
    84  H    0.021224
    85  H    0.006848
    86  H    0.001797
    87  H    0.013514
    88  H    0.012227
    89  H    0.027084
    90  H    0.009456
    91  H    0.002335
    92  H    0.008316
    93  H    0.014448
    94  H    0.016607
    95  H    0.006552
    96  H    0.021887
    97  H    0.032847
    98  H    0.035817
    99  H    0.051012
   100  H    0.046108
   101  H    0.045113
   102  H    0.051919
   103  H    0.028308
   104  H    0.002605
   105  H    0.026137
   106  H   -0.002450
   107  H    0.021861
   108  H   -0.003033
   109  H   -0.006937
   110  H   -0.007277
   111  H   -0.000680
   112  H   -0.008031
   113  H   -0.010645
   114  H   -0.004656
   115  H    0.007400
   116  H    0.016323
   117  H    0.009701
   118  H   -0.001160
   119  H   -0.002780
   120  H    0.004091
   121  H    0.002309
   122  H   -0.004938
   123  H   -0.004822
   124  H    0.000497
   125  H    0.008826
   126  H    0.003391
   127  H    0.012446
   128  H   -0.007312
   129  H   -0.010618
   130  H   -0.003603
   131  H   -0.010307
   132  H   -0.006836
   133  H   -0.017763
   134  H    0.000303
   135  H    0.013691
   136  H    0.006122
   137  H    0.015499
   138  H   -0.002040
   139  H    0.018694
   140  H    0.002077
 Sum of Mulliken charges =  -0.00000

 Dipole moment (field-independent basis, Debye):
    X=             -0.2330    Y=              4.1631    Z=              0.4515  Tot=              4.1940
 Quadrupole moment (field-independent basis, Debye-Ang):
   XX=           -394.6977   YY=           -441.0639   ZZ=           -389.1550
   XY=             51.6212   XZ=              7.5676   YZ=             30.7332

 Normal termination of Gaussian 16 at Thu Apr 28 16:18:37 2022.
