 Gaussian 16, Revision A.03,
 Gaussian 16:  ES64L-G16RevA.03 25-Dec-2016

 ---------------------------------
 #p PBE1PBE/Def2SVP td=(nstates=5)
 ---------------------------------

 ------------------------------------------------------
 step_1651_chromophore_17 TDDFT with PBE1PBE functional
 ------------------------------------------------------
 Symbolic Z-matrix:
 Charge =  0 Multiplicity = 1

                         Standard orientation:
 ---------------------------------------------------------------------
 Center     Atomic      Atomic             Coordinates (Angstroms)
 Number     Number       Type             X           Y           Z
 ---------------------------------------------------------------------
      1         12           0        4.424863    1.297026   -0.483062
      2          6           0        4.306361   -2.342715   -0.347740
      3          6           0        1.788552    1.215081   -2.752292
      4          6           0        4.265994    4.474930   -0.064401
      5          6           0        6.597181    1.006524    2.396853
      6          7           0        3.151484   -0.363874   -1.287853
      7          6           0        3.315809   -1.754316   -1.135097
      8          6           0        2.275222   -2.444473   -2.043713
      9          6           0        1.627799   -1.328720   -2.925339
     10          6           0        2.194470   -0.043561   -2.290333
     11          6           0        1.994716   -1.513142   -4.408616
     12          6           0        1.185520   -3.198424   -1.088478
     13          6           0        0.779779   -4.597093   -1.473791
     14          6           0       -0.304799   -5.319316   -0.686570
     15          8           0       -0.403868   -6.565833   -0.460080
     16          8           0       -1.255382   -4.465366   -0.185577
     17          7           0        3.242832    2.627195   -1.305079
     18          6           0        2.311159    2.441265   -2.305013
     19          6           0        1.766817    3.716719   -2.652476
     20          6           0        2.485779    4.717702   -1.988115
     21          6           0        3.364718    3.940223   -1.056527
     22          6           0        0.763405    3.802618   -3.871260
     23          6           0        2.393896    6.246244   -2.201562
     24          8           0        1.504688    6.733077   -2.881351
     25          6           0        3.392212    7.210630   -1.675208
     26          7           0        5.332136    2.546965    1.008988
     27          6           0        5.118783    3.839941    0.853847
     28          6           0        5.981891    4.668902    1.851238
     29          6           0        6.699164    3.636740    2.679661
     30          6           0        6.221360    2.287177    1.954633
     31          6           0        6.793379    5.846564    1.365970
     32          6           0        6.456087    3.578521    4.153999
     33          6           0        7.380232    4.516211    4.938002
     34          7           0        5.414350   -0.287220    0.707422
     35          6           0        6.273481   -0.232812    1.764209
     36          6           0        6.817223   -1.569893    2.086066
     37          6           0        6.034526   -2.435707    1.288931
     38          6           0        5.191498   -1.598779    0.471055
     39          6           0        7.934077   -1.989474    2.824627
     40          6           0        5.838160   -3.843626    0.928946
     41          8           0        6.338137   -4.877396    1.336874
     42          6           0        4.590617   -3.785878   -0.086530
     43          6           0        4.940499   -4.453349   -1.309363
     44          8           0        5.800839   -4.105285   -2.111044
     45          8           0        4.294643   -5.659168   -1.328214
     46          6           0        4.254407   -6.162893   -2.749059
     47          6           0       -2.449783   -5.181026    0.394801
     48          6           0       -3.101231   -4.242909    1.440790
     49          6           0       -4.406785   -3.862789    1.627556
     50          6           0       -5.584766   -4.310393    0.773158
     51          6           0       -4.782602   -3.092575    2.901812
     52          6           0       -4.955967   -1.580412    2.880507
     53          6           0       -6.432787   -1.037914    3.085028
     54          6           0       -7.131124   -0.478299    1.811586
     55          6           0       -8.345119   -1.381164    1.447097
     56          6           0       -7.466949    1.053199    1.850060
     57          6           0       -7.278195    1.920153    0.494456
     58          6           0       -8.558538    2.636793   -0.051502
     59          6           0       -9.057645    1.952121   -1.282196
     60          6           0       -8.239789    2.433048   -2.564311
     61          6           0      -10.619503    2.183111   -1.555889
     62          6           0      -11.478591    1.010996   -1.131788
     63          6           0      -12.868078    1.342317   -0.530622
     64          6           0      -12.913734    1.470394    1.010565
     65          6           0      -13.482135    0.143073    1.581643
     66          6           0      -13.615773    2.791921    1.567970
     67          1           0        1.092012    1.231441   -3.593030
     68          1           0        4.238109    5.565262   -0.015369
     69          1           0        7.355894    1.001207    3.182459
     70          1           0        2.863459   -3.175148   -2.597581
     71          1           0        0.545244   -1.268295   -2.814402
     72          1           0        2.715566   -2.307837   -4.603525
     73          1           0        2.520117   -0.626617   -4.761327
     74          1           0        1.072726   -1.657838   -4.971012
     75          1           0        0.296457   -2.568065   -1.065810
     76          1           0        1.633496   -3.221298   -0.094525
     77          1           0        1.626598   -5.245074   -1.246241
     78          1           0        0.660788   -4.711308   -2.551537
     79          1           0        0.792000    4.828722   -4.237842
     80          1           0       -0.246835    3.573967   -3.532744
     81          1           0        1.033677    3.154431   -4.704349
     82          1           0        3.158718    7.541120   -0.663703
     83          1           0        3.454514    8.029747   -2.391660
     84          1           0        4.348048    6.698217   -1.783581
     85          1           0        5.149017    5.056657    2.439502
     86          1           0        7.776455    3.716193    2.532127
     87          1           0        6.215612    6.757319    1.522327
     88          1           0        6.852104    5.733764    0.283669
     89          1           0        7.779599    5.906490    1.827796
     90          1           0        6.589100    2.566367    4.535323
     91          1           0        5.460677    3.922476    4.433549
     92          1           0        8.019376    5.078161    4.257980
     93          1           0        8.023382    3.937328    5.601164
     94          1           0        6.753519    5.159486    5.555184
     95          1           0        7.877714   -1.872045    3.906982
     96          1           0        8.863316   -1.455337    2.626124
     97          1           0        8.112985   -3.063031    2.788941
     98          1           0        3.700782   -4.317705    0.248308
     99          1           0        5.154272   -6.777007   -2.803576
    100          1           0        4.285379   -5.354845   -3.480276
    101          1           0        3.358141   -6.763650   -2.898784
    102          1           0       -2.233797   -6.029878    1.043919
    103          1           0       -3.027211   -5.602906   -0.428046
    104          1           0       -2.378691   -3.896054    2.179741
    105          1           0       -6.246063   -4.985863    1.316274
    106          1           0       -5.163718   -4.897653   -0.042047
    107          1           0       -6.155393   -3.449971    0.424094
    108          1           0       -3.994014   -3.253861    3.636652
    109          1           0       -5.692130   -3.546321    3.295415
    110          1           0       -4.535292   -1.339165    1.903846
    111          1           0       -4.268542   -0.979999    3.476994
    112          1           0       -6.385619   -0.322099    3.905622
    113          1           0       -7.044757   -1.826799    3.523167
    114          1           0       -6.516895   -0.556476    0.914836
    115          1           0       -8.515730   -2.250397    2.083353
    116          1           0       -8.148483   -1.773379    0.449065
    117          1           0       -9.226690   -0.744148    1.516675
    118          1           0       -6.739018    1.476261    2.543335
    119          1           0       -8.495414    1.079274    2.209739
    120          1           0       -6.957084    1.214134   -0.271010
    121          1           0       -6.465069    2.606416    0.730614
    122          1           0       -8.311876    3.677518   -0.261398
    123          1           0       -9.357666    2.645173    0.689285
    124          1           0       -8.970258    0.871113   -1.174797
    125          1           0       -7.861484    1.556366   -3.089600
    126          1           0       -7.409517    3.056951   -2.231976
    127          1           0       -8.831510    3.035246   -3.252957
    128          1           0      -10.837077    2.336113   -2.613203
    129          1           0      -10.967462    3.082754   -1.048062
    130          1           0      -10.971349    0.336515   -0.442352
    131          1           0      -11.552280    0.423240   -2.047241
    132          1           0      -13.512624    0.574826   -0.958061
    133          1           0      -13.230893    2.288517   -0.931695
    134          1           0      -11.899140    1.659072    1.361654
    135          1           0      -14.560903    0.269855    1.672795
    136          1           0      -13.070720   -0.025160    2.577315
    137          1           0      -13.226639   -0.671138    0.904235
    138          1           0      -14.134386    2.567451    2.500376
    139          1           0      -14.255773    3.313353    0.857076
    140          1           0      -12.862564    3.493053    1.929662
 ---------------------------------------------------------------------

 SCF Done:  E(RPBE1PBE) =  -3005.34784626     A.U. after   15 cycles

 Excitation energies and oscillator strengths:

 Excited State   1:      Singlet-A      1.8451 eV  671.96 nm  f=0.3774  <S**2>=0.000
     245 -> 248        0.17093
     246 -> 247        0.69445
     246 <- 247       -0.11210
 This state for optimization and/or second-order correction.
 Total Energy, E(TD-HF/TD-DFT) =  -3005.28003962
 Copying the excited state density for this state as the 1-particle RhoCI density.

 Excited State   2:      Singlet-A      2.2844 eV  542.75 nm  f=0.0917  <S**2>=0.000
     245 -> 247        0.63943
     246 -> 248       -0.28745

 Excited State   3:      Singlet-A      3.0520 eV  406.24 nm  f=0.0004  <S**2>=0.000
     242 -> 247        0.67430
     242 -> 249        0.11818
     242 -> 250        0.10901

 Excited State   4:      Singlet-A      3.0923 eV  400.95 nm  f=0.0000  <S**2>=0.000
     241 -> 247        0.25526
     243 -> 247        0.62297
     246 -> 248       -0.14652

 Excited State   5:      Singlet-A      3.1536 eV  393.15 nm  f=0.0009  <S**2>=0.000
     241 -> 247        0.62238
     241 -> 249       -0.16470
     243 -> 247       -0.26791

 The electronic state is 1-A.
 Alpha  occ. eigenvalues --  -46.92913 -19.26098 -19.25833 -19.20246 -19.19915
 Alpha  occ. eigenvalues --  -19.19730 -19.19076 -14.42279 -14.41874 -14.39904
 Alpha  occ. eigenvalues --  -14.39413 -10.37019 -10.35693 -10.33244 -10.32483
 Alpha  occ. eigenvalues --  -10.30013 -10.29519 -10.29266 -10.29222 -10.29210
 Alpha  occ. eigenvalues --  -10.29089 -10.28901 -10.28223 -10.27459 -10.27026
 Alpha  occ. eigenvalues --  -10.26799 -10.26198 -10.26035 -10.25991 -10.25815
 Alpha  occ. eigenvalues --  -10.25585 -10.25526 -10.25360 -10.25358 -10.25342
 Alpha  occ. eigenvalues --  -10.25241 -10.25187 -10.25179 -10.25170 -10.24898
 Alpha  occ. eigenvalues --  -10.24228 -10.24110 -10.23863 -10.23820 -10.23621
 Alpha  occ. eigenvalues --  -10.23600 -10.23472 -10.23429 -10.23395 -10.23321
 Alpha  occ. eigenvalues --  -10.23313 -10.23075 -10.23066 -10.22981 -10.22932
 Alpha  occ. eigenvalues --  -10.22765 -10.22735 -10.22648 -10.22222 -10.22062
 Alpha  occ. eigenvalues --  -10.21979 -10.21886 -10.21882 -10.21820 -10.21786
 Alpha  occ. eigenvalues --  -10.21769  -3.15057  -1.87870  -1.87434  -1.87294
 Alpha  occ. eigenvalues --   -1.11081  -1.10031  -1.05305  -1.05148  -1.02238
 Alpha  occ. eigenvalues --   -1.00596  -0.99998  -0.98791  -0.98453  -0.95755
 Alpha  occ. eigenvalues --   -0.87451  -0.84857  -0.83984  -0.83520  -0.83405
 Alpha  occ. eigenvalues --   -0.83292  -0.82495  -0.82052  -0.81895  -0.81056
 Alpha  occ. eigenvalues --   -0.80563  -0.80177  -0.78814  -0.78408  -0.77722
 Alpha  occ. eigenvalues --   -0.76878  -0.76656  -0.75813  -0.75455  -0.74623
 Alpha  occ. eigenvalues --   -0.73467  -0.72763  -0.72166  -0.71578  -0.70625
 Alpha  occ. eigenvalues --   -0.70043  -0.69788  -0.69541  -0.68710  -0.68218
 Alpha  occ. eigenvalues --   -0.67684  -0.66919  -0.66664  -0.65053  -0.64094
 Alpha  occ. eigenvalues --   -0.63497  -0.62688  -0.62032  -0.60830  -0.60635
 Alpha  occ. eigenvalues --   -0.60134  -0.59805  -0.59578  -0.59148  -0.58242
 Alpha  occ. eigenvalues --   -0.57438  -0.57095  -0.56650  -0.56565  -0.54996
 Alpha  occ. eigenvalues --   -0.54628  -0.54404  -0.54150  -0.53351  -0.52821
 Alpha  occ. eigenvalues --   -0.52228  -0.51488  -0.50983  -0.50679  -0.49967
 Alpha  occ. eigenvalues --   -0.49809  -0.49483  -0.48982  -0.48839  -0.48530
 Alpha  occ. eigenvalues --   -0.48476  -0.47914  -0.47825  -0.47519  -0.47505
 Alpha  occ. eigenvalues --   -0.47279  -0.47142  -0.47040  -0.46640  -0.46447
 Alpha  occ. eigenvalues --   -0.46210  -0.46018  -0.45731  -0.45460  -0.45305
 Alpha  occ. eigenvalues --   -0.45062  -0.45040  -0.44866  -0.44668  -0.44115
 Alpha  occ. eigenvalues --   -0.44106  -0.43996  -0.43712  -0.43694  -0.43606
 Alpha  occ. eigenvalues --   -0.43386  -0.43154  -0.43082  -0.42681  -0.42432
 Alpha  occ. eigenvalues --   -0.42172  -0.41994  -0.41883  -0.41759  -0.41408
 Alpha  occ. eigenvalues --   -0.41094  -0.40930  -0.40799  -0.40567  -0.40511
 Alpha  occ. eigenvalues --   -0.40160  -0.40045  -0.39899  -0.39805  -0.39783
 Alpha  occ. eigenvalues --   -0.39627  -0.39582  -0.39386  -0.39048  -0.38943
 Alpha  occ. eigenvalues --   -0.38753  -0.38668  -0.38468  -0.38095  -0.38056
 Alpha  occ. eigenvalues --   -0.37816  -0.37782  -0.37643  -0.37360  -0.37271
 Alpha  occ. eigenvalues --   -0.37016  -0.36838  -0.36646  -0.36607  -0.35897
 Alpha  occ. eigenvalues --   -0.35673  -0.35606  -0.35458  -0.35373  -0.34965
 Alpha  occ. eigenvalues --   -0.34890  -0.34869  -0.34291  -0.34081  -0.34070
 Alpha  occ. eigenvalues --   -0.33347  -0.32978  -0.32667  -0.32464  -0.32328
 Alpha  occ. eigenvalues --   -0.31577  -0.31528  -0.31478  -0.31309  -0.31255
 Alpha  occ. eigenvalues --   -0.31082  -0.30601  -0.29745  -0.29531  -0.29498
 Alpha  occ. eigenvalues --   -0.29158  -0.28789  -0.28636  -0.27378  -0.26689
 Alpha  occ. eigenvalues --   -0.26422  -0.25614  -0.25598  -0.25181  -0.21529
 Alpha  occ. eigenvalues --   -0.18921
 Alpha virt. eigenvalues --   -0.11418  -0.05575  -0.04193  -0.02501  -0.01101
 Alpha virt. eigenvalues --   -0.00588  -0.00243   0.00590   0.01079   0.02863
 Alpha virt. eigenvalues --    0.03552   0.04586   0.04590   0.04847   0.05366

 Mulliken charges:
               1
     1  Mg   0.993219
     2  C   -0.020948
     3  C   -0.048044
     4  C   -0.068817
     5  C   -0.060877
     6  N   -0.414147
     7  C    0.044629
     8  C   -0.121514
     9  C   -0.110502
    10  C    0.086943
    11  C    0.013798
    12  C    0.008501
    13  C   -0.047131
    14  C    0.253060
    15  O   -0.310105
    16  O   -0.362725
    17  N   -0.549613
    18  C    0.156889
    19  C   -0.157879
    20  C   -0.093200
    21  C    0.171862
    22  C    0.030532
    23  C    0.043965
    24  O   -0.234323
    25  C   -0.017256
    26  N   -0.357550
    27  C    0.057173
    28  C   -0.084399
    29  C   -0.115217
    30  C    0.044096
    31  C    0.034820
    32  C   -0.024921
    33  C   -0.061666
    34  N   -0.400272
    35  C    0.116450
    36  C   -0.128947
    37  C   -0.080823
    38  C    0.144907
    39  C    0.040484
    40  C    0.207801
    41  O   -0.198779
    42  C   -0.107436
    43  C    0.239388
    44  O   -0.260246
    45  O   -0.369027
    46  C    0.112072
    47  C    0.215848
    48  C   -0.113750
    49  C   -0.219590
    50  C    0.029617
    51  C    0.017410
    52  C   -0.051244
    53  C    0.003112
    54  C   -0.223634
    55  C   -0.028053
    56  C   -0.009578
    57  C   -0.057013
    58  C    0.024143
    59  C   -0.254417
    60  C   -0.013391
    61  C    0.012751
    62  C   -0.085691
    63  C   -0.005178
    64  C   -0.235170
    65  C   -0.014884
    66  C   -0.031801
    67  H    0.012337
    68  H   -0.020015
    69  H    0.008641
    70  H    0.056149
    71  H    0.053552
    72  H    0.045002
    73  H    0.041631
    74  H    0.048448
    75  H    0.055084
    76  H    0.052854
    77  H    0.071663
    78  H    0.068782
    79  H    0.062177
    80  H    0.053974
    81  H    0.051944
    82  H    0.085549
    83  H    0.061227
    84  H    0.048879
    85  H    0.046507
    86  H    0.040566
    87  H    0.040575
    88  H    0.041349
    89  H    0.053778
    90  H    0.042316
    91  H    0.035109
    92  H    0.036325
    93  H    0.042279
    94  H    0.044004
    95  H    0.035018
    96  H    0.049458
    97  H    0.059663
    98  H    0.074049
    99  H    0.073926
   100  H    0.066309
   101  H    0.065635
   102  H    0.079101
   103  H    0.053757
   104  H    0.032079
   105  H    0.053171
   106  H    0.026990
   107  H    0.053924
   108  H    0.029540
   109  H    0.025574
   110  H    0.026461
   111  H    0.030637
   112  H    0.023746
   113  H    0.021143
   114  H    0.033681
   115  H    0.033631
   116  H    0.041599
   117  H    0.037822
   118  H    0.032355
   119  H    0.028432
   120  H    0.036184
   121  H    0.034314
   122  H    0.027953
   123  H    0.030257
   124  H    0.040214
   125  H    0.036166
   126  H    0.030766
   127  H    0.039093
   128  H    0.024921
   129  H    0.022093
   130  H    0.032007
   131  H    0.023160
   132  H    0.025437
   133  H    0.015495
   134  H    0.041180
   135  H    0.041803
   136  H    0.034139
   137  H    0.042974
   138  H    0.025818
   139  H    0.044686
   140  H    0.029243
 Sum of Mulliken charges =  -0.00000

 Dipole moment (field-independent basis, Debye):
    X=             -0.1825    Y=              4.2564    Z=              0.5028  Tot=              4.2899
 Quadrupole moment (field-independent basis, Debye-Ang):
   XX=           -390.6795   YY=           -438.0709   ZZ=           -385.4430
   XY=             52.4552   XZ=              8.9342   YZ=             31.2328

 Normal termination of Gaussian 16 at Thu Apr 28 16:35:14 2022.
