 Gaussian 16, Revision A.03,
 Gaussian 16:  ES64L-G16RevA.03 25-Dec-2016

 --------------------------------
 #p wB97XD/Def2SVP td=(nstates=5)
 --------------------------------

 -----------------------------------------------------
 step_1651_chromophore_17 TDDFT with wB97XD functional
 -----------------------------------------------------
 Symbolic Z-matrix:
 Charge =  0 Multiplicity = 1

                         Standard orientation:
 ---------------------------------------------------------------------
 Center     Atomic      Atomic             Coordinates (Angstroms)
 Number     Number       Type             X           Y           Z
 ---------------------------------------------------------------------
      1         12           0        4.424863    1.297026   -0.483062
      2          6           0        4.306361   -2.342715   -0.347740
      3          6           0        1.788552    1.215081   -2.752292
      4          6           0        4.265994    4.474930   -0.064401
      5          6           0        6.597181    1.006524    2.396853
      6          7           0        3.151484   -0.363874   -1.287853
      7          6           0        3.315809   -1.754316   -1.135097
      8          6           0        2.275222   -2.444473   -2.043713
      9          6           0        1.627799   -1.328720   -2.925339
     10          6           0        2.194470   -0.043561   -2.290333
     11          6           0        1.994716   -1.513142   -4.408616
     12          6           0        1.185520   -3.198424   -1.088478
     13          6           0        0.779779   -4.597093   -1.473791
     14          6           0       -0.304799   -5.319316   -0.686570
     15          8           0       -0.403868   -6.565833   -0.460080
     16          8           0       -1.255382   -4.465366   -0.185577
     17          7           0        3.242832    2.627195   -1.305079
     18          6           0        2.311159    2.441265   -2.305013
     19          6           0        1.766817    3.716719   -2.652476
     20          6           0        2.485779    4.717702   -1.988115
     21          6           0        3.364718    3.940223   -1.056527
     22          6           0        0.763405    3.802618   -3.871260
     23          6           0        2.393896    6.246244   -2.201562
     24          8           0        1.504688    6.733077   -2.881351
     25          6           0        3.392212    7.210630   -1.675208
     26          7           0        5.332136    2.546965    1.008988
     27          6           0        5.118783    3.839941    0.853847
     28          6           0        5.981891    4.668902    1.851238
     29          6           0        6.699164    3.636740    2.679661
     30          6           0        6.221360    2.287177    1.954633
     31          6           0        6.793379    5.846564    1.365970
     32          6           0        6.456087    3.578521    4.153999
     33          6           0        7.380232    4.516211    4.938002
     34          7           0        5.414350   -0.287220    0.707422
     35          6           0        6.273481   -0.232812    1.764209
     36          6           0        6.817223   -1.569893    2.086066
     37          6           0        6.034526   -2.435707    1.288931
     38          6           0        5.191498   -1.598779    0.471055
     39          6           0        7.934077   -1.989474    2.824627
     40          6           0        5.838160   -3.843626    0.928946
     41          8           0        6.338137   -4.877396    1.336874
     42          6           0        4.590617   -3.785878   -0.086530
     43          6           0        4.940499   -4.453349   -1.309363
     44          8           0        5.800839   -4.105285   -2.111044
     45          8           0        4.294643   -5.659168   -1.328214
     46          6           0        4.254407   -6.162893   -2.749059
     47          6           0       -2.449783   -5.181026    0.394801
     48          6           0       -3.101231   -4.242909    1.440790
     49          6           0       -4.406785   -3.862789    1.627556
     50          6           0       -5.584766   -4.310393    0.773158
     51          6           0       -4.782602   -3.092575    2.901812
     52          6           0       -4.955967   -1.580412    2.880507
     53          6           0       -6.432787   -1.037914    3.085028
     54          6           0       -7.131124   -0.478299    1.811586
     55          6           0       -8.345119   -1.381164    1.447097
     56          6           0       -7.466949    1.053199    1.850060
     57          6           0       -7.278195    1.920153    0.494456
     58          6           0       -8.558538    2.636793   -0.051502
     59          6           0       -9.057645    1.952121   -1.282196
     60          6           0       -8.239789    2.433048   -2.564311
     61          6           0      -10.619503    2.183111   -1.555889
     62          6           0      -11.478591    1.010996   -1.131788
     63          6           0      -12.868078    1.342317   -0.530622
     64          6           0      -12.913734    1.470394    1.010565
     65          6           0      -13.482135    0.143073    1.581643
     66          6           0      -13.615773    2.791921    1.567970
     67          1           0        1.092012    1.231441   -3.593030
     68          1           0        4.238109    5.565262   -0.015369
     69          1           0        7.355894    1.001207    3.182459
     70          1           0        2.863459   -3.175148   -2.597581
     71          1           0        0.545244   -1.268295   -2.814402
     72          1           0        2.715566   -2.307837   -4.603525
     73          1           0        2.520117   -0.626617   -4.761327
     74          1           0        1.072726   -1.657838   -4.971012
     75          1           0        0.296457   -2.568065   -1.065810
     76          1           0        1.633496   -3.221298   -0.094525
     77          1           0        1.626598   -5.245074   -1.246241
     78          1           0        0.660788   -4.711308   -2.551537
     79          1           0        0.792000    4.828722   -4.237842
     80          1           0       -0.246835    3.573967   -3.532744
     81          1           0        1.033677    3.154431   -4.704349
     82          1           0        3.158718    7.541120   -0.663703
     83          1           0        3.454514    8.029747   -2.391660
     84          1           0        4.348048    6.698217   -1.783581
     85          1           0        5.149017    5.056657    2.439502
     86          1           0        7.776455    3.716193    2.532127
     87          1           0        6.215612    6.757319    1.522327
     88          1           0        6.852104    5.733764    0.283669
     89          1           0        7.779599    5.906490    1.827796
     90          1           0        6.589100    2.566367    4.535323
     91          1           0        5.460677    3.922476    4.433549
     92          1           0        8.019376    5.078161    4.257980
     93          1           0        8.023382    3.937328    5.601164
     94          1           0        6.753519    5.159486    5.555184
     95          1           0        7.877714   -1.872045    3.906982
     96          1           0        8.863316   -1.455337    2.626124
     97          1           0        8.112985   -3.063031    2.788941
     98          1           0        3.700782   -4.317705    0.248308
     99          1           0        5.154272   -6.777007   -2.803576
    100          1           0        4.285379   -5.354845   -3.480276
    101          1           0        3.358141   -6.763650   -2.898784
    102          1           0       -2.233797   -6.029878    1.043919
    103          1           0       -3.027211   -5.602906   -0.428046
    104          1           0       -2.378691   -3.896054    2.179741
    105          1           0       -6.246063   -4.985863    1.316274
    106          1           0       -5.163718   -4.897653   -0.042047
    107          1           0       -6.155393   -3.449971    0.424094
    108          1           0       -3.994014   -3.253861    3.636652
    109          1           0       -5.692130   -3.546321    3.295415
    110          1           0       -4.535292   -1.339165    1.903846
    111          1           0       -4.268542   -0.979999    3.476994
    112          1           0       -6.385619   -0.322099    3.905622
    113          1           0       -7.044757   -1.826799    3.523167
    114          1           0       -6.516895   -0.556476    0.914836
    115          1           0       -8.515730   -2.250397    2.083353
    116          1           0       -8.148483   -1.773379    0.449065
    117          1           0       -9.226690   -0.744148    1.516675
    118          1           0       -6.739018    1.476261    2.543335
    119          1           0       -8.495414    1.079274    2.209739
    120          1           0       -6.957084    1.214134   -0.271010
    121          1           0       -6.465069    2.606416    0.730614
    122          1           0       -8.311876    3.677518   -0.261398
    123          1           0       -9.357666    2.645173    0.689285
    124          1           0       -8.970258    0.871113   -1.174797
    125          1           0       -7.861484    1.556366   -3.089600
    126          1           0       -7.409517    3.056951   -2.231976
    127          1           0       -8.831510    3.035246   -3.252957
    128          1           0      -10.837077    2.336113   -2.613203
    129          1           0      -10.967462    3.082754   -1.048062
    130          1           0      -10.971349    0.336515   -0.442352
    131          1           0      -11.552280    0.423240   -2.047241
    132          1           0      -13.512624    0.574826   -0.958061
    133          1           0      -13.230893    2.288517   -0.931695
    134          1           0      -11.899140    1.659072    1.361654
    135          1           0      -14.560903    0.269855    1.672795
    136          1           0      -13.070720   -0.025160    2.577315
    137          1           0      -13.226639   -0.671138    0.904235
    138          1           0      -14.134386    2.567451    2.500376
    139          1           0      -14.255773    3.313353    0.857076
    140          1           0      -12.862564    3.493053    1.929662
 ---------------------------------------------------------------------

 SCF Done:  E(RwB97XD) =  -3007.85669836     A.U. after   20 cycles

 Excitation energies and oscillator strengths:

 Excited State   1:      Singlet-A      1.6215 eV  764.62 nm  f=0.3852  <S**2>=0.000
     245 -> 248       -0.18485
     246 -> 247        0.68433
     245 <- 248       -0.11903
 This state for optimization and/or second-order correction.
 Total Energy, E(TD-HF/TD-DFT) =  -3007.79710875
 Copying the excited state density for this state as the 1-particle RhoCI density.

 Excited State   2:      Singlet-A      2.2219 eV  558.00 nm  f=0.0882  <S**2>=0.000
     245 -> 247        0.62360
     246 -> 248        0.32139

 Excited State   3:      Singlet-A      3.4218 eV  362.34 nm  f=0.1066  <S**2>=0.000
     243 -> 247        0.57538
     245 -> 247       -0.12376
     246 -> 248        0.34518

 Excited State   4:      Singlet-A      3.5619 eV  348.08 nm  f=0.4334  <S**2>=0.000
     242 -> 247       -0.34072
     242 -> 249       -0.12565
     243 -> 247       -0.29289
     245 -> 247       -0.23724
     246 -> 248        0.43061

 Excited State   5:      Singlet-A      3.6299 eV  341.57 nm  f=0.2839  <S**2>=0.000
     241 -> 249        0.11327
     241 -> 250       -0.14524
     242 -> 247        0.44638
     242 -> 248       -0.10050
     242 -> 249        0.19068
     242 -> 250       -0.18309
     243 -> 247       -0.19633
     245 -> 247       -0.18394
     246 -> 248        0.26868

 The electronic state is 1-A.
 Alpha  occ. eigenvalues --  -46.95854 -19.30645 -19.30451 -19.25126 -19.24698
 Alpha  occ. eigenvalues --  -19.24355 -19.23866 -14.47359 -14.46934 -14.44870
 Alpha  occ. eigenvalues --  -14.44372 -10.43778 -10.42582 -10.40179 -10.39276
 Alpha  occ. eigenvalues --  -10.36502 -10.35808 -10.35771 -10.35522 -10.35520
 Alpha  occ. eigenvalues --  -10.35433 -10.35158 -10.34540 -10.33754 -10.33355
 Alpha  occ. eigenvalues --  -10.33056 -10.32508 -10.32433 -10.32364 -10.32234
 Alpha  occ. eigenvalues --  -10.31974 -10.31799 -10.31798 -10.31693 -10.31587
 Alpha  occ. eigenvalues --  -10.31584 -10.31578 -10.31568 -10.31550 -10.31282
 Alpha  occ. eigenvalues --  -10.30619 -10.30504 -10.30241 -10.30170 -10.30120
 Alpha  occ. eigenvalues --  -10.29896 -10.29874 -10.29857 -10.29817 -10.29603
 Alpha  occ. eigenvalues --  -10.29584 -10.29530 -10.29454 -10.29346 -10.29318
 Alpha  occ. eigenvalues --  -10.29119 -10.29090 -10.29007 -10.28603 -10.28473
 Alpha  occ. eigenvalues --  -10.28337 -10.28315 -10.28312 -10.28198 -10.28188
 Alpha  occ. eigenvalues --  -10.28161  -3.21867  -1.95429  -1.94992  -1.94846
 Alpha  occ. eigenvalues --   -1.18546  -1.17401  -1.12848  -1.12603  -1.09678
 Alpha  occ. eigenvalues --   -1.07940  -1.07338  -1.06137  -1.05813  -1.03196
 Alpha  occ. eigenvalues --   -0.95108  -0.92411  -0.91669  -0.91192  -0.91002
 Alpha  occ. eigenvalues --   -0.90959  -0.90123  -0.89723  -0.89498  -0.88721
 Alpha  occ. eigenvalues --   -0.88183  -0.87821  -0.86425  -0.86062  -0.85390
 Alpha  occ. eigenvalues --   -0.84566  -0.84334  -0.83474  -0.83062  -0.82284
 Alpha  occ. eigenvalues --   -0.81152  -0.80399  -0.79771  -0.79218  -0.78289
 Alpha  occ. eigenvalues --   -0.77638  -0.77460  -0.77241  -0.76399  -0.75894
 Alpha  occ. eigenvalues --   -0.75228  -0.74516  -0.74204  -0.72676  -0.71635
 Alpha  occ. eigenvalues --   -0.71023  -0.70332  -0.69572  -0.68464  -0.68148
 Alpha  occ. eigenvalues --   -0.67571  -0.67315  -0.67219  -0.66603  -0.65692
 Alpha  occ. eigenvalues --   -0.65118  -0.64760  -0.64290  -0.64032  -0.62433
 Alpha  occ. eigenvalues --   -0.62032  -0.61901  -0.61582  -0.60730  -0.60294
 Alpha  occ. eigenvalues --   -0.59766  -0.58863  -0.58441  -0.58124  -0.57383
 Alpha  occ. eigenvalues --   -0.57228  -0.56896  -0.56358  -0.56196  -0.55957
 Alpha  occ. eigenvalues --   -0.55801  -0.55351  -0.55245  -0.55038  -0.54752
 Alpha  occ. eigenvalues --   -0.54611  -0.54571  -0.54440  -0.54016  -0.53849
 Alpha  occ. eigenvalues --   -0.53558  -0.53388  -0.53118  -0.52763  -0.52657
 Alpha  occ. eigenvalues --   -0.52469  -0.52399  -0.52248  -0.52016  -0.51462
 Alpha  occ. eigenvalues --   -0.51444  -0.51359  -0.51027  -0.50951  -0.50908
 Alpha  occ. eigenvalues --   -0.50679  -0.50447  -0.50332  -0.49920  -0.49701
 Alpha  occ. eigenvalues --   -0.49357  -0.49176  -0.49128  -0.49038  -0.48639
 Alpha  occ. eigenvalues --   -0.48323  -0.48148  -0.47997  -0.47756  -0.47708
 Alpha  occ. eigenvalues --   -0.47381  -0.47256  -0.47077  -0.47049  -0.46955
 Alpha  occ. eigenvalues --   -0.46826  -0.46773  -0.46608  -0.46248  -0.46108
 Alpha  occ. eigenvalues --   -0.45906  -0.45820  -0.45585  -0.45235  -0.45132
 Alpha  occ. eigenvalues --   -0.44987  -0.44961  -0.44881  -0.44462  -0.44365
 Alpha  occ. eigenvalues --   -0.44100  -0.43964  -0.43769  -0.43680  -0.42879
 Alpha  occ. eigenvalues --   -0.42757  -0.42652  -0.42528  -0.42438  -0.42027
 Alpha  occ. eigenvalues --   -0.41987  -0.41879  -0.41282  -0.41151  -0.41003
 Alpha  occ. eigenvalues --   -0.40325  -0.39910  -0.39700  -0.39507  -0.39357
 Alpha  occ. eigenvalues --   -0.38684  -0.38555  -0.38500  -0.38252  -0.38226
 Alpha  occ. eigenvalues --   -0.38107  -0.37593  -0.36610  -0.36468  -0.36367
 Alpha  occ. eigenvalues --   -0.36241  -0.35733  -0.35478  -0.33976  -0.33520
 Alpha  occ. eigenvalues --   -0.33437  -0.32627  -0.32117  -0.31889  -0.26528
 Alpha  occ. eigenvalues --   -0.23029
 Alpha virt. eigenvalues --   -0.07292  -0.00176   0.02074   0.03993   0.04878
 Alpha virt. eigenvalues --    0.06287   0.06437   0.07262   0.07856   0.09341
 Alpha virt. eigenvalues --    0.10048   0.11111   0.11380   0.11507   0.12028

 Mulliken charges:
               1
     1  Mg   0.985843
     2  C   -0.020571
     3  C   -0.066329
     4  C   -0.082158
     5  C   -0.079828
     6  N   -0.383872
     7  C    0.011942
     8  C   -0.087597
     9  C   -0.086063
    10  C    0.075055
    11  C    0.022662
    12  C    0.018309
    13  C   -0.021992
    14  C    0.243128
    15  O   -0.308436
    16  O   -0.363291
    17  N   -0.515165
    18  C    0.150336
    19  C   -0.156516
    20  C   -0.085308
    21  C    0.164019
    22  C    0.046734
    23  C    0.037316
    24  O   -0.229916
    25  C   -0.001769
    26  N   -0.320699
    27  C    0.045372
    28  C   -0.064973
    29  C   -0.082237
    30  C    0.026639
    31  C    0.048619
    32  C   -0.012216
    33  C   -0.045370
    34  N   -0.362462
    35  C    0.110229
    36  C   -0.119668
    37  C   -0.078824
    38  C    0.127298
    39  C    0.045436
    40  C    0.189343
    41  O   -0.188000
    42  C   -0.063070
    43  C    0.213782
    44  O   -0.255267
    45  O   -0.366963
    46  C    0.127258
    47  C    0.228818
    48  C   -0.120751
    49  C   -0.207598
    50  C    0.050687
    51  C    0.034278
    52  C   -0.036337
    53  C    0.019446
    54  C   -0.194402
    55  C   -0.013198
    56  C    0.006106
    57  C   -0.038845
    58  C    0.039776
    59  C   -0.218371
    60  C   -0.001989
    61  C    0.024142
    62  C   -0.062488
    63  C    0.009669
    64  C   -0.206178
    65  C   -0.000328
    66  C   -0.019970
    67  H    0.007656
    68  H   -0.034891
    69  H    0.003891
    70  H    0.032916
    71  H    0.044702
    72  H    0.040001
    73  H    0.034617
    74  H    0.043810
    75  H    0.047813
    76  H    0.042447
    77  H    0.056329
    78  H    0.063262
    79  H    0.057212
    80  H    0.048985
    81  H    0.046229
    82  H    0.082830
    83  H    0.059688
    84  H    0.040714
    85  H    0.033669
    86  H    0.027965
    87  H    0.035486
    88  H    0.033461
    89  H    0.048340
    90  H    0.033371
    91  H    0.027466
    92  H    0.027513
    93  H    0.036927
    94  H    0.038854
    95  H    0.030174
    96  H    0.045095
    97  H    0.056838
    98  H    0.065139
    99  H    0.070767
   100  H    0.061821
   101  H    0.063513
   102  H    0.073708
   103  H    0.049958
   104  H    0.029762
   105  H    0.047862
   106  H    0.019077
   107  H    0.043311
   108  H    0.022901
   109  H    0.015766
   110  H    0.014828
   111  H    0.025550
   112  H    0.016766
   113  H    0.010434
   114  H    0.016833
   115  H    0.027583
   116  H    0.036088
   117  H    0.028265
   118  H    0.023660
   119  H    0.017421
   120  H    0.023451
   121  H    0.028787
   122  H    0.020315
   123  H    0.017098
   124  H    0.022119
   125  H    0.031171
   126  H    0.023855
   127  H    0.033351
   128  H    0.016990
   129  H    0.011374
   130  H    0.015836
   131  H    0.016107
   132  H    0.017907
   133  H    0.005597
   134  H    0.025472
   135  H    0.035160
   136  H    0.028878
   137  H    0.036192
   138  H    0.019795
   139  H    0.039304
   140  H    0.023633
 Sum of Mulliken charges =  -0.00000

 Dipole moment (field-independent basis, Debye):
    X=             -0.1943    Y=              4.2361    Z=              0.4238  Tot=              4.2617
 Quadrupole moment (field-independent basis, Debye-Ang):
   XX=           -390.0789   YY=           -437.2532   ZZ=           -385.0861
   XY=             52.1148   XZ=              8.4078   YZ=             31.0137

 Normal termination of Gaussian 16 at Thu Apr 28 17:06:25 2022.
