 Gaussian 16, Revision A.03,
 Gaussian 16:  ES64L-G16RevA.03 25-Dec-2016

 --------------------
 #p ZINDO=(nstates=5)
 --------------------

 ------------------------------
 step_1651_chromophore_17 ZINDO
 ------------------------------
 Symbolic Z-matrix:
 Charge =  0 Multiplicity = 1

                         Standard orientation:
 ---------------------------------------------------------------------
 Center     Atomic      Atomic             Coordinates (Angstroms)
 Number     Number       Type             X           Y           Z
 ---------------------------------------------------------------------
      1         12           0        4.424863    1.297026   -0.483062
      2          6           0        4.306361   -2.342715   -0.347740
      3          6           0        1.788552    1.215081   -2.752292
      4          6           0        4.265994    4.474930   -0.064401
      5          6           0        6.597181    1.006524    2.396853
      6          7           0        3.151484   -0.363874   -1.287853
      7          6           0        3.315809   -1.754316   -1.135097
      8          6           0        2.275222   -2.444473   -2.043713
      9          6           0        1.627799   -1.328720   -2.925339
     10          6           0        2.194470   -0.043561   -2.290333
     11          6           0        1.994716   -1.513142   -4.408616
     12          6           0        1.185520   -3.198424   -1.088478
     13          6           0        0.779779   -4.597093   -1.473791
     14          6           0       -0.304799   -5.319316   -0.686570
     15          8           0       -0.403868   -6.565833   -0.460080
     16          8           0       -1.255382   -4.465366   -0.185577
     17          7           0        3.242832    2.627195   -1.305079
     18          6           0        2.311159    2.441265   -2.305013
     19          6           0        1.766817    3.716719   -2.652476
     20          6           0        2.485779    4.717702   -1.988115
     21          6           0        3.364718    3.940223   -1.056527
     22          6           0        0.763405    3.802618   -3.871260
     23          6           0        2.393896    6.246244   -2.201562
     24          8           0        1.504688    6.733077   -2.881351
     25          6           0        3.392212    7.210630   -1.675208
     26          7           0        5.332136    2.546965    1.008988
     27          6           0        5.118783    3.839941    0.853847
     28          6           0        5.981891    4.668902    1.851238
     29          6           0        6.699164    3.636740    2.679661
     30          6           0        6.221360    2.287177    1.954633
     31          6           0        6.793379    5.846564    1.365970
     32          6           0        6.456087    3.578521    4.153999
     33          6           0        7.380232    4.516211    4.938002
     34          7           0        5.414350   -0.287220    0.707422
     35          6           0        6.273481   -0.232812    1.764209
     36          6           0        6.817223   -1.569893    2.086066
     37          6           0        6.034526   -2.435707    1.288931
     38          6           0        5.191498   -1.598779    0.471055
     39          6           0        7.934077   -1.989474    2.824627
     40          6           0        5.838160   -3.843626    0.928946
     41          8           0        6.338137   -4.877396    1.336874
     42          6           0        4.590617   -3.785878   -0.086530
     43          6           0        4.940499   -4.453349   -1.309363
     44          8           0        5.800839   -4.105285   -2.111044
     45          8           0        4.294643   -5.659168   -1.328214
     46          6           0        4.254407   -6.162893   -2.749059
     47          6           0       -2.449783   -5.181026    0.394801
     48          6           0       -3.101231   -4.242909    1.440790
     49          6           0       -4.406785   -3.862789    1.627556
     50          6           0       -5.584766   -4.310393    0.773158
     51          6           0       -4.782602   -3.092575    2.901812
     52          6           0       -4.955967   -1.580412    2.880507
     53          6           0       -6.432787   -1.037914    3.085028
     54          6           0       -7.131124   -0.478299    1.811586
     55          6           0       -8.345119   -1.381164    1.447097
     56          6           0       -7.466949    1.053199    1.850060
     57          6           0       -7.278195    1.920153    0.494456
     58          6           0       -8.558538    2.636793   -0.051502
     59          6           0       -9.057645    1.952121   -1.282196
     60          6           0       -8.239789    2.433048   -2.564311
     61          6           0      -10.619503    2.183111   -1.555889
     62          6           0      -11.478591    1.010996   -1.131788
     63          6           0      -12.868078    1.342317   -0.530622
     64          6           0      -12.913734    1.470394    1.010565
     65          6           0      -13.482135    0.143073    1.581643
     66          6           0      -13.615773    2.791921    1.567970
     67          1           0        1.092012    1.231441   -3.593030
     68          1           0        4.238109    5.565262   -0.015369
     69          1           0        7.355894    1.001207    3.182459
     70          1           0        2.863459   -3.175148   -2.597581
     71          1           0        0.545244   -1.268295   -2.814402
     72          1           0        2.715566   -2.307837   -4.603525
     73          1           0        2.520117   -0.626617   -4.761327
     74          1           0        1.072726   -1.657838   -4.971012
     75          1           0        0.296457   -2.568065   -1.065810
     76          1           0        1.633496   -3.221298   -0.094525
     77          1           0        1.626598   -5.245074   -1.246241
     78          1           0        0.660788   -4.711308   -2.551537
     79          1           0        0.792000    4.828722   -4.237842
     80          1           0       -0.246835    3.573967   -3.532744
     81          1           0        1.033677    3.154431   -4.704349
     82          1           0        3.158718    7.541120   -0.663703
     83          1           0        3.454514    8.029747   -2.391660
     84          1           0        4.348048    6.698217   -1.783581
     85          1           0        5.149017    5.056657    2.439502
     86          1           0        7.776455    3.716193    2.532127
     87          1           0        6.215612    6.757319    1.522327
     88          1           0        6.852104    5.733764    0.283669
     89          1           0        7.779599    5.906490    1.827796
     90          1           0        6.589100    2.566367    4.535323
     91          1           0        5.460677    3.922476    4.433549
     92          1           0        8.019376    5.078161    4.257980
     93          1           0        8.023382    3.937328    5.601164
     94          1           0        6.753519    5.159486    5.555184
     95          1           0        7.877714   -1.872045    3.906982
     96          1           0        8.863316   -1.455337    2.626124
     97          1           0        8.112985   -3.063031    2.788941
     98          1           0        3.700782   -4.317705    0.248308
     99          1           0        5.154272   -6.777007   -2.803576
    100          1           0        4.285379   -5.354845   -3.480276
    101          1           0        3.358141   -6.763650   -2.898784
    102          1           0       -2.233797   -6.029878    1.043919
    103          1           0       -3.027211   -5.602906   -0.428046
    104          1           0       -2.378691   -3.896054    2.179741
    105          1           0       -6.246063   -4.985863    1.316274
    106          1           0       -5.163718   -4.897653   -0.042047
    107          1           0       -6.155393   -3.449971    0.424094
    108          1           0       -3.994014   -3.253861    3.636652
    109          1           0       -5.692130   -3.546321    3.295415
    110          1           0       -4.535292   -1.339165    1.903846
    111          1           0       -4.268542   -0.979999    3.476994
    112          1           0       -6.385619   -0.322099    3.905622
    113          1           0       -7.044757   -1.826799    3.523167
    114          1           0       -6.516895   -0.556476    0.914836
    115          1           0       -8.515730   -2.250397    2.083353
    116          1           0       -8.148483   -1.773379    0.449065
    117          1           0       -9.226690   -0.744148    1.516675
    118          1           0       -6.739018    1.476261    2.543335
    119          1           0       -8.495414    1.079274    2.209739
    120          1           0       -6.957084    1.214134   -0.271010
    121          1           0       -6.465069    2.606416    0.730614
    122          1           0       -8.311876    3.677518   -0.261398
    123          1           0       -9.357666    2.645173    0.689285
    124          1           0       -8.970258    0.871113   -1.174797
    125          1           0       -7.861484    1.556366   -3.089600
    126          1           0       -7.409517    3.056951   -2.231976
    127          1           0       -8.831510    3.035246   -3.252957
    128          1           0      -10.837077    2.336113   -2.613203
    129          1           0      -10.967462    3.082754   -1.048062
    130          1           0      -10.971349    0.336515   -0.442352
    131          1           0      -11.552280    0.423240   -2.047241
    132          1           0      -13.512624    0.574826   -0.958061
    133          1           0      -13.230893    2.288517   -0.931695
    134          1           0      -11.899140    1.659072    1.361654
    135          1           0      -14.560903    0.269855    1.672795
    136          1           0      -13.070720   -0.025160    2.577315
    137          1           0      -13.226639   -0.671138    0.904235
    138          1           0      -14.134386    2.567451    2.500376
    139          1           0      -14.255773    3.313353    0.857076
    140          1           0      -12.862564    3.493053    1.929662
 ---------------------------------------------------------------------

 SCF Done:  E(RZINDO/S) =  -474.084100112     A.U. after   21 cycles

 Excitation energies and oscillator strengths:

 Excited State   1:      Singlet-A      1.2353 eV 1003.66 nm  f=0.6257  <S**2>=0.000
     175 ->178        -0.19589
     176 ->177         0.66231
 This state for optimization and/or second-order correction.
 Total Energy, E(CIS/TDA) =  -474.038702770
 Copying the excited state density for this state as the 1-particle RhoCI density.

 Excited State   2:      Singlet-A      1.9282 eV  642.99 nm  f=0.0180  <S**2>=0.000
     175 ->177         0.52249
     176 ->178         0.45581

 Excited State   3:      Singlet-A      2.9721 eV  417.16 nm  f=0.0261  <S**2>=0.000
     169 ->177         0.23786
     169 ->178        -0.13339
     169 ->179         0.23819
     169 ->181        -0.24689
     169 ->182         0.34435
     169 ->186         0.23225
     169 ->187         0.14941
     169 ->197         0.11192
     171 ->177        -0.11859
     171 ->182        -0.10705

 Excited State   4:      Singlet-A      2.9959 eV  413.85 nm  f=0.8051  <S**2>=0.000
     172 ->177        -0.12234
     175 ->177        -0.35629
     176 ->178         0.43144
     176 ->179         0.26616
     176 ->181         0.19540

 Excited State   5:      Singlet-A      3.0104 eV  411.86 nm  f=0.1155  <S**2>=0.000
     168 ->177        -0.10532
     168 ->179         0.12626
     175 ->177         0.10730
     176 ->178        -0.13600
     176 ->179         0.58702
     176 ->181        -0.17509

 The electronic state is 1-A.
 Alpha  occ. eigenvalues --   -1.84072  -1.82310  -1.80040  -1.73877  -1.71612
 Alpha  occ. eigenvalues --   -1.69718  -1.63762  -1.60106  -1.59017  -1.58032
 Alpha  occ. eigenvalues --   -1.53676  -1.51152  -1.49223  -1.48933  -1.45649
 Alpha  occ. eigenvalues --   -1.43559  -1.42180  -1.41679  -1.38381  -1.37472
 Alpha  occ. eigenvalues --   -1.36719  -1.35650  -1.32600  -1.30958  -1.28398
 Alpha  occ. eigenvalues --   -1.27319  -1.25899  -1.23440  -1.20136  -1.18337
 Alpha  occ. eigenvalues --   -1.17929  -1.16143  -1.15228  -1.14291  -1.13877
 Alpha  occ. eigenvalues --   -1.12180  -1.11221  -1.09677  -1.05518  -1.03333
 Alpha  occ. eigenvalues --   -1.02172  -1.01455  -0.98956  -0.98130  -0.96604
 Alpha  occ. eigenvalues --   -0.95467  -0.93940  -0.93787  -0.92995  -0.92801
 Alpha  occ. eigenvalues --   -0.92579  -0.90120  -0.89546  -0.88698  -0.87094
 Alpha  occ. eigenvalues --   -0.86248  -0.84684  -0.84195  -0.82133  -0.80315
 Alpha  occ. eigenvalues --   -0.79344  -0.78493  -0.77167  -0.76852  -0.76289
 Alpha  occ. eigenvalues --   -0.75109  -0.74752  -0.74234  -0.73943  -0.73599
 Alpha  occ. eigenvalues --   -0.73310  -0.72433  -0.71804  -0.71419  -0.70816
 Alpha  occ. eigenvalues --   -0.70294  -0.70263  -0.69762  -0.69316  -0.68652
 Alpha  occ. eigenvalues --   -0.68269  -0.67419  -0.66794  -0.66467  -0.66156
 Alpha  occ. eigenvalues --   -0.65352  -0.64954  -0.64628  -0.64337  -0.63453
 Alpha  occ. eigenvalues --   -0.63252  -0.62802  -0.62626  -0.62338  -0.62126
 Alpha  occ. eigenvalues --   -0.61985  -0.61478  -0.61195  -0.60741  -0.60131
 Alpha  occ. eigenvalues --   -0.59978  -0.59409  -0.58979  -0.58312  -0.58219
 Alpha  occ. eigenvalues --   -0.58190  -0.57704  -0.57178  -0.56964  -0.56541
 Alpha  occ. eigenvalues --   -0.56358  -0.55909  -0.55500  -0.55327  -0.55256
 Alpha  occ. eigenvalues --   -0.54850  -0.53443  -0.53350  -0.53163  -0.52999
 Alpha  occ. eigenvalues --   -0.52821  -0.52383  -0.52292  -0.52112  -0.51975
 Alpha  occ. eigenvalues --   -0.51749  -0.51395  -0.51109  -0.50770  -0.50542
 Alpha  occ. eigenvalues --   -0.50244  -0.50058  -0.49955  -0.49584  -0.49309
 Alpha  occ. eigenvalues --   -0.49179  -0.49011  -0.48727  -0.48231  -0.48070
 Alpha  occ. eigenvalues --   -0.47573  -0.47412  -0.46901  -0.46698  -0.46318
 Alpha  occ. eigenvalues --   -0.46259  -0.46114  -0.46027  -0.45739  -0.45241
 Alpha  occ. eigenvalues --   -0.45084  -0.44940  -0.44741  -0.44486  -0.43954
 Alpha  occ. eigenvalues --   -0.43552  -0.43388  -0.42849  -0.42732  -0.42241
 Alpha  occ. eigenvalues --   -0.42194  -0.42011  -0.41652  -0.39213  -0.38964
 Alpha  occ. eigenvalues --   -0.38324  -0.37339  -0.35699  -0.35326  -0.35019
 Alpha  occ. eigenvalues --   -0.33618  -0.33092  -0.32600  -0.32288  -0.27164
 Alpha  occ. eigenvalues --   -0.21835
 Alpha virt. eigenvalues --   -0.08744  -0.02447  -0.00754   0.00894   0.00990
 Alpha virt. eigenvalues --    0.01403   0.02239   0.02510   0.04353   0.04501
 Alpha virt. eigenvalues --    0.05993   0.06748   0.07005   0.07536   0.07840

 Mulliken charges:
               1
     1  Mg   0.437376
     2  C   -0.036315
     3  C   -0.068306
     4  C   -0.096141
     5  C   -0.075685
     6  N   -0.310994
     7  C    0.124905
     8  C   -0.002748
     9  C    0.006319
    10  C    0.113747
    11  C   -0.050573
    12  C   -0.026732
    13  C    0.010502
    14  C    0.465914
    15  O   -0.533134
    16  O   -0.265347
    17  N   -0.299705
    18  C    0.096143
    19  C    0.017194
    20  C   -0.048749
    21  C    0.117972
    22  C   -0.047185
    23  C    0.330795
    24  O   -0.520737
    25  C   -0.025547
    26  N   -0.243765
    27  C    0.130732
    28  C    0.004634
    29  C    0.010807
    30  C    0.112056
    31  C   -0.046974
    32  C   -0.024900
    33  C   -0.062219
    34  N   -0.321225
    35  C    0.106885
    36  C    0.055727
    37  C   -0.068097
    38  C    0.119634
    39  C   -0.026151
    40  C    0.342025
    41  O   -0.498091
    42  C    0.056792
    43  C    0.496086
    44  O   -0.536436
    45  O   -0.274667
    46  C    0.069640
    47  C    0.103723
    48  C   -0.085126
    49  C   -0.013609
    50  C   -0.042384
    51  C   -0.016972
    52  C   -0.037122
    53  C   -0.031754
    54  C   -0.015737
    55  C   -0.062823
    56  C   -0.045781
    57  C   -0.044589
    58  C   -0.020590
    59  C   -0.012974
    60  C   -0.063063
    61  C   -0.039591
    62  C   -0.036064
    63  C   -0.031088
    64  C   -0.014410
    65  C   -0.053407
    66  C   -0.063693
    67  H    0.037502
    68  H    0.024071
    69  H    0.025501
    70  H    0.036395
    71  H    0.033574
    72  H    0.026070
    73  H    0.022121
    74  H    0.020937
    75  H    0.028853
    76  H    0.027603
    77  H    0.036027
    78  H    0.050499
    79  H    0.034209
    80  H    0.031400
    81  H    0.026716
    82  H    0.052032
    83  H    0.038921
    84  H    0.024354
    85  H    0.022577
    86  H    0.027491
    87  H    0.019451
    88  H    0.021016
    89  H    0.029556
    90  H    0.024246
    91  H    0.020387
    92  H    0.021654
    93  H    0.017704
    94  H    0.020012
    95  H    0.024362
    96  H    0.032066
    97  H    0.034077
    98  H    0.054531
    99  H    0.049060
   100  H    0.047373
   101  H    0.033984
   102  H    0.056963
   103  H    0.052143
   104  H    0.032604
   105  H    0.029852
   106  H    0.018557
   107  H    0.032762
   108  H    0.014684
   109  H    0.020298
   110  H    0.012173
   111  H    0.022968
   112  H    0.015315
   113  H    0.018771
   114  H    0.017983
   115  H    0.019834
   116  H    0.017170
   117  H    0.021012
   118  H    0.017367
   119  H    0.026064
   120  H    0.022192
   121  H    0.021480
   122  H    0.019984
   123  H    0.016384
   124  H    0.024001
   125  H    0.017838
   126  H    0.017808
   127  H    0.023107
   128  H    0.017367
   129  H    0.016159
   130  H    0.015735
   131  H    0.009724
   132  H    0.017432
   133  H    0.012225
   134  H    0.018894
   135  H    0.022320
   136  H    0.015829
   137  H    0.023530
   138  H    0.016007
   139  H    0.027158
   140  H    0.013575
 Sum of Mulliken charges =  -0.00000

 Dipole moment (field-independent basis, Debye):
    X=             -0.0172    Y=              4.9884    Z=              1.1583  Tot=              5.1212
 N-N= 4.379587718252D+03 E-N= 0.000000000000D+00  KE=-9.432637613528D+03
 Leave Link  601 at Thu Apr 28 17:18:24 2022, MaxMem=  6710886400 cpu:               0.8 elap:               0.0
 (Enter /sw/apps/gaussian-16.0/g16/l9999.exe)
 1\1\GINC-BP1-COMPUTE159\SP\RZINDO CIS\STO-3G\C55H74Mg1N4O6\OF15641\28-
 Apr-2022\0\\#p ZINDO=(nstates=5)\\step_1651_chromophore_17 ZINDO\\0,1\
 Mg,0,29.758,58.922,41.198\C,0,26.662,57.237,40.273\C,0,31.52,56.218,39
 .898\C,0,32.371,60.754,41.538\C,0,27.641,61.806,41.744\N,0,29.127,57.0
 71,40.101\C,0,27.827,56.574,39.885\C,0,27.968,55.178,39.24\C,0,29.482,
 54.797,39.303\C,0,30.128,56.112,39.782\C,0,29.713,53.602,40.245\C,0,27
 .408,55.266,37.708\C,0,26.514,54.15,37.234\C,0,26.039,54.117,35.788\O,

 Normal termination of Gaussian 16 at Thu Apr 28 17:18:24 2022.
