 Gaussian 16, Revision A.03,
 Gaussian 16:  ES64L-G16RevA.03 25-Dec-2016

 ------------------------------
 #p blyp/Def2SVP td=(nstates=5)
 ------------------------------

 ---------------------------------------------------
 step_1451_chromophore_11 TDDFT with blyp functional
 ---------------------------------------------------
 Symbolic Z-matrix:
 Charge =  0 Multiplicity = 1

                         Standard orientation:
 ---------------------------------------------------------------------
 Center     Atomic      Atomic             Coordinates (Angstroms)
 Number     Number       Type             X           Y           Z
 ---------------------------------------------------------------------
      1         12           0       -4.877308    1.252169    0.536359
      2          6           0       -5.799176   -2.103894   -0.044212
      3          6           0       -2.490757    0.184385    2.796594
      4          6           0       -3.503406    4.399199    0.656865
      5          6           0       -7.229516    2.218181   -1.754944
      6          7           0       -4.144378   -0.795568    1.209281
      7          6           0       -4.719574   -1.990419    0.922639
      8          6           0       -4.107939   -3.154287    1.719715
      9          6           0       -3.315074   -2.273055    2.771937
     10          6           0       -3.258420   -0.879469    2.197565
     11          6           0       -3.951151   -2.199448    4.233453
     12          6           0       -3.281668   -4.179061    0.968653
     13          6           0       -2.036830   -3.559858    0.222306
     14          6           0       -0.655676   -4.266312    0.397041
     15          8           0       -0.361968   -5.429958    0.066967
     16          8           0        0.196069   -3.420642    1.067956
     17          7           0       -3.225058    2.188740    1.577397
     18          6           0       -2.407489    1.539879    2.485177
     19          6           0       -1.505107    2.537629    3.060231
     20          6           0       -1.774207    3.812242    2.565193
     21          6           0       -2.825669    3.486871    1.548009
     22          6           0       -0.462605    2.072356    4.095726
     23          6           0       -1.096569    5.068492    2.928968
     24          8           0       -0.223281    5.093323    3.798521
     25          6           0       -1.444725    6.406933    2.288709
     26          7           0       -5.185175    2.928864   -0.551128
     27          6           0       -4.601226    4.167121   -0.210475
     28          6           0       -4.908693    5.205177   -1.319700
     29          6           0       -6.194028    4.599952   -1.968367
     30          6           0       -6.188909    3.129887   -1.437136
     31          6           0       -5.081405    6.734325   -0.844758
     32          6           0       -6.384823    4.762748   -3.538385
     33          6           0       -6.129000    6.165858   -4.110736
     34          7           0       -6.316725    0.328751   -0.605567
     35          6           0       -7.349479    0.876637   -1.318929
     36          6           0       -8.329722   -0.092836   -1.603872
     37          6           0       -7.733782   -1.323836   -1.191266
     38          6           0       -6.468772   -0.988700   -0.601333
     39          6           0       -9.564484    0.184395   -2.342847
     40          6           0       -7.854246   -2.750845   -1.161332
     41          8           0       -8.901605   -3.391285   -1.386858
     42          6           0       -6.594259   -3.339470   -0.406807
     43          6           0       -5.882483   -4.186746   -1.405974
     44          8           0       -5.194527   -3.838897   -2.364840
     45          8           0       -6.274240   -5.519657   -1.217658
     46          6           0       -5.607554   -6.548975   -2.058975
     47          6           0        1.461199   -3.951220    1.457709
     48          6           0        2.422109   -3.508747    0.367134
     49          6           0        3.788453   -3.700006    0.250531
     50          6           0        4.529433   -4.662395    1.229534
     51          6           0        4.559731   -2.993722   -0.822497
     52          6           0        5.049410   -1.574698   -0.428232
     53          6           0        6.382252   -1.209984   -0.959284
     54          6           0        6.590557    0.346401   -1.116614
     55          6           0        6.952431    0.750767   -2.605479
     56          6           0        7.704423    0.885900   -0.196021
     57          6           0        9.058876    0.129732   -0.445297
     58          6           0       10.298272    1.014202   -0.838343
     59          6           0       11.553031    0.551873   -0.094915
     60          6           0       11.673336    1.039663    1.316560
     61          6           0       12.785192    0.987215   -0.939356
     62          6           0       13.940037    0.014225   -0.807249
     63          6           0       15.078291    0.642217   -0.053042
     64          6           0       16.355683    0.909711   -0.858363
     65          6           0       16.153270    1.441248   -2.295098
     66          6           0       17.119129   -0.446242   -0.889287
     67          1           0       -1.983290   -0.239560    3.665636
     68          1           0       -2.982704    5.357081    0.710447
     69          1           0       -7.895068    2.677550   -2.489676
     70          1           0       -4.945256   -3.617779    2.242119
     71          1           0       -2.292315   -2.523504    3.052752
     72          1           0       -4.294389   -1.183755    4.430255
     73          1           0       -3.199531   -2.332233    5.011705
     74          1           0       -4.761546   -2.884053    4.485472
     75          1           0       -3.878099   -4.656105    0.191834
     76          1           0       -2.947687   -4.934786    1.680158
     77          1           0       -1.825069   -2.520799    0.474565
     78          1           0       -2.269672   -3.539530   -0.842181
     79          1           0       -0.320965    0.994015    4.160614
     80          1           0       -0.843426    2.399820    5.062979
     81          1           0        0.480749    2.617664    4.047305
     82          1           0       -1.146693    7.250037    2.913478
     83          1           0       -2.526353    6.351776    2.416862
     84          1           0       -1.128348    6.298020    1.252053
     85          1           0       -4.097471    5.331387   -2.036918
     86          1           0       -7.009855    5.134880   -1.481245
     87          1           0       -4.283529    7.402055   -1.170020
     88          1           0       -5.022517    6.678333    0.242018
     89          1           0       -6.027816    7.124372   -1.219977
     90          1           0       -7.387883    4.366599   -3.699289
     91          1           0       -5.780080    3.997312   -4.024739
     92          1           0       -7.044202    6.752697   -4.186876
     93          1           0       -5.622155    6.209607   -5.075147
     94          1           0       -5.516350    6.730618   -3.407429
     95          1           0       -9.341422   -0.320180   -3.282294
     96          1           0       -9.675564    1.254351   -2.518463
     97          1           0      -10.376919   -0.410954   -1.924445
     98          1           0       -6.993478   -3.960219    0.394836
     99          1           0       -5.924185   -7.456960   -1.546641
    100          1           0       -4.540958   -6.339214   -1.978380
    101          1           0       -6.018622   -6.553647   -3.068986
    102          1           0        1.471992   -5.029663    1.615873
    103          1           0        1.837586   -3.419300    2.331679
    104          1           0        1.946144   -2.887055   -0.391253
    105          1           0        5.240274   -5.298707    0.702545
    106          1           0        3.764563   -5.192514    1.797668
    107          1           0        4.965353   -3.888460    1.862085
    108          1           0        3.891725   -2.847636   -1.671980
    109          1           0        5.375288   -3.589240   -1.230925
    110          1           0        5.091955   -1.532094    0.660494
    111          1           0        4.393865   -0.786772   -0.800247
    112          1           0        6.526306   -1.722059   -1.909836
    113          1           0        7.032654   -1.687127   -0.226141
    114          1           0        5.634433    0.847554   -0.969343
    115          1           0        6.046287    1.003460   -3.154780
    116          1           0        7.393425   -0.029695   -3.226515
    117          1           0        7.660841    1.575578   -2.539695
    118          1           0        7.492289    0.711156    0.858599
    119          1           0        7.772522    1.969835   -0.285513
    120          1           0        8.895030   -0.618617   -1.220603
    121          1           0        9.298178   -0.309321    0.522785
    122          1           0       10.051703    1.995431   -0.431386
    123          1           0       10.476765    1.179589   -1.901782
    124          1           0       11.569932   -0.533754   -0.006509
    125          1           0       10.735377    1.197253    1.849863
    126          1           0       12.331961    1.906750    1.352659
    127          1           0       12.125925    0.228483    1.887573
    128          1           0       13.055582    1.985149   -0.592248
    129          1           0       12.486484    1.073766   -1.983199
    130          1           0       14.243996   -0.212284   -1.829831
    131          1           0       13.670068   -0.920842   -0.316039
    132          1           0       15.318595    0.137551    0.882978
    133          1           0       14.794699    1.602447    0.379199
    134          1           0       16.846564    1.553478   -0.128294
    135          1           0       15.166003    1.861550   -2.487051
    136          1           0       16.220223    0.636539   -3.026949
    137          1           0       16.952659    2.123658   -2.583764
    138          1           0       17.712827   -0.547591   -1.797580
    139          1           0       16.494209   -1.337751   -0.827572
    140          1           0       17.841719   -0.465418   -0.072993
 ---------------------------------------------------------------------

 SCF Done:  E(RB-LYP) =  -3007.37515633     A.U. after   20 cycles

 Excitation energies and oscillator strengths:

 Excited State   1:      Singlet-A      1.7569 eV  705.71 nm  f=0.2067  <S**2>=0.000
     243 -> 247        0.19693
     244 -> 247        0.25504
     245 -> 248        0.17253
     246 -> 247        0.60648
     246 <- 247       -0.12828
 This state for optimization and/or second-order correction.
 Total Energy, E(TD-HF/TD-DFT) =  -3007.31059244
 Copying the excited state density for this state as the 1-particle RhoCI density.

 Excited State   2:      Singlet-A      1.7908 eV  692.36 nm  f=0.0408  <S**2>=0.000
     244 -> 247        0.65247
     246 -> 247       -0.25096

 Excited State   3:      Singlet-A      1.8347 eV  675.78 nm  f=0.0431  <S**2>=0.000
     243 -> 247        0.62725
     245 -> 247       -0.23295
     246 -> 247       -0.20431

 Excited State   4:      Singlet-A      1.8811 eV  659.12 nm  f=0.0000  <S**2>=0.000
     242 -> 247        0.70709

 Excited State   5:      Singlet-A      2.0136 eV  615.74 nm  f=0.0551  <S**2>=0.000
     243 -> 247        0.24348
     245 -> 247        0.58219
     246 -> 248       -0.28853

 The electronic state is 1-A.
 Alpha  occ. eigenvalues --  -46.27651 -18.82737 -18.80995 -18.76925 -18.76783
 Alpha  occ. eigenvalues --  -18.75574 -18.75406 -14.04085 -14.03643 -14.01865
 Alpha  occ. eigenvalues --  -14.00903 -10.04589 -10.03813 -10.00022  -9.99702
 Alpha  occ. eigenvalues --   -9.98079  -9.97531  -9.97457  -9.97405  -9.97145
 Alpha  occ. eigenvalues --   -9.97074  -9.96789  -9.96108  -9.95624  -9.95243
 Alpha  occ. eigenvalues --   -9.94949  -9.94745  -9.94739  -9.94719  -9.94458
 Alpha  occ. eigenvalues --   -9.94338  -9.94237  -9.94145  -9.93873  -9.93760
 Alpha  occ. eigenvalues --   -9.93691  -9.93410  -9.93314  -9.93287  -9.93266
 Alpha  occ. eigenvalues --   -9.93139  -9.92703  -9.92641  -9.92534  -9.92512
 Alpha  occ. eigenvalues --   -9.92492  -9.92472  -9.92142  -9.92003  -9.91768
 Alpha  occ. eigenvalues --   -9.91616  -9.91461  -9.91153  -9.91013  -9.91000
 Alpha  occ. eigenvalues --   -9.90937  -9.90867  -9.90829  -9.90749  -9.90620
 Alpha  occ. eigenvalues --   -9.90496  -9.90469  -9.90273  -9.90268  -9.90186
 Alpha  occ. eigenvalues --   -9.90010  -2.92318  -1.72734  -1.72178  -1.72054
 Alpha  occ. eigenvalues --   -0.98322  -0.96150  -0.91213  -0.90031  -0.89432
 Alpha  occ. eigenvalues --   -0.88696  -0.87739  -0.86932  -0.85989  -0.85095
 Alpha  occ. eigenvalues --   -0.75865  -0.73520  -0.73221  -0.72995  -0.72022
 Alpha  occ. eigenvalues --   -0.71802  -0.71716  -0.71100  -0.70902  -0.70843
 Alpha  occ. eigenvalues --   -0.70233  -0.69171  -0.68369  -0.67496  -0.67233
 Alpha  occ. eigenvalues --   -0.66232  -0.66003  -0.65624  -0.64970  -0.64821
 Alpha  occ. eigenvalues --   -0.63563  -0.62750  -0.62197  -0.61953  -0.60784
 Alpha  occ. eigenvalues --   -0.60623  -0.60291  -0.60210  -0.59618  -0.58609
 Alpha  occ. eigenvalues --   -0.58421  -0.57779  -0.57246  -0.56041  -0.55271
 Alpha  occ. eigenvalues --   -0.54513  -0.54336  -0.53477  -0.52253  -0.51917
 Alpha  occ. eigenvalues --   -0.51610  -0.51419  -0.50759  -0.50233  -0.49782
 Alpha  occ. eigenvalues --   -0.49106  -0.47997  -0.47865  -0.47481  -0.46650
 Alpha  occ. eigenvalues --   -0.46175  -0.46120  -0.45944  -0.45469  -0.44809
 Alpha  occ. eigenvalues --   -0.44305  -0.44073  -0.43268  -0.42804  -0.42522
 Alpha  occ. eigenvalues --   -0.42419  -0.42172  -0.41688  -0.41606  -0.41307
 Alpha  occ. eigenvalues --   -0.40913  -0.40894  -0.40742  -0.40323  -0.40254
 Alpha  occ. eigenvalues --   -0.39934  -0.39659  -0.39612  -0.39362  -0.39075
 Alpha  occ. eigenvalues --   -0.38906  -0.38802  -0.38434  -0.38373  -0.38333
 Alpha  occ. eigenvalues --   -0.37833  -0.37769  -0.37596  -0.37368  -0.37160
 Alpha  occ. eigenvalues --   -0.37094  -0.37072  -0.36987  -0.36735  -0.36660
 Alpha  occ. eigenvalues --   -0.36519  -0.36119  -0.35768  -0.35700  -0.35497
 Alpha  occ. eigenvalues --   -0.35287  -0.35239  -0.35066  -0.34733  -0.34594
 Alpha  occ. eigenvalues --   -0.34469  -0.34256  -0.34180  -0.34164  -0.34088
 Alpha  occ. eigenvalues --   -0.33956  -0.33682  -0.33641  -0.33380  -0.33224
 Alpha  occ. eigenvalues --   -0.33148  -0.32946  -0.32852  -0.32726  -0.32558
 Alpha  occ. eigenvalues --   -0.32365  -0.32068  -0.31877  -0.31798  -0.31595
 Alpha  occ. eigenvalues --   -0.31432  -0.31258  -0.31149  -0.30859  -0.30666
 Alpha  occ. eigenvalues --   -0.30617  -0.30292  -0.30185  -0.29953  -0.29753
 Alpha  occ. eigenvalues --   -0.29689  -0.29565  -0.29239  -0.29154  -0.29052
 Alpha  occ. eigenvalues --   -0.28986  -0.28839  -0.28486  -0.28057  -0.27749
 Alpha  occ. eigenvalues --   -0.27532  -0.26865  -0.26855  -0.26533  -0.26503
 Alpha  occ. eigenvalues --   -0.26356  -0.26157  -0.25971  -0.25884  -0.25480
 Alpha  occ. eigenvalues --   -0.25265  -0.24893  -0.24577  -0.24304  -0.23979
 Alpha  occ. eigenvalues --   -0.22660  -0.22317  -0.21771  -0.21742  -0.21234
 Alpha  occ. eigenvalues --   -0.20412  -0.18919  -0.18651  -0.18503  -0.17815
 Alpha  occ. eigenvalues --   -0.16209
 Alpha virt. eigenvalues --   -0.12007  -0.07826  -0.06896  -0.05248  -0.03483
 Alpha virt. eigenvalues --   -0.03038  -0.02873  -0.02006  -0.01402  -0.00697
 Alpha virt. eigenvalues --    0.00773   0.01598   0.02439   0.02543   0.03109

 Mulliken charges:
               1
     1  Mg   0.701706
     2  C    0.019759
     3  C   -0.069076
     4  C   -0.044611
     5  C   -0.082248
     6  N   -0.160066
     7  C   -0.123180
     8  C    0.095405
     9  C   -0.028708
    10  C   -0.035306
    11  C    0.089943
    12  C    0.164239
    13  C    0.082115
    14  C    0.076496
    15  O   -0.203988
    16  O   -0.251355
    17  N   -0.253256
    18  C    0.183562
    19  C   -0.135685
    20  C    0.079408
    21  C    0.035199
    22  C    0.188425
    23  C   -0.141325
    24  O   -0.173912
    25  C    0.162593
    26  N   -0.279798
    27  C    0.113345
    28  C   -0.060056
    29  C    0.037290
    30  C    0.022461
    31  C    0.103585
    32  C    0.089493
    33  C    0.085821
    34  N   -0.251683
    35  C    0.161232
    36  C   -0.186791
    37  C    0.108269
    38  C    0.075027
    39  C    0.207417
    40  C   -0.074626
    41  O   -0.166091
    42  C    0.068994
    43  C    0.109253
    44  O   -0.188848
    45  O   -0.307946
    46  C    0.222720
    47  C    0.329419
    48  C   -0.147555
    49  C   -0.182098
    50  C    0.150628
    51  C    0.156974
    52  C    0.075265
    53  C    0.087242
    54  C   -0.061465
    55  C    0.083109
    56  C    0.100791
    57  C    0.050520
    58  C    0.127991
    59  C   -0.102435
    60  C    0.126914
    61  C    0.084333
    62  C    0.125072
    63  C    0.054459
    64  C   -0.059105
    65  C    0.120400
    66  C    0.094391
    67  H   -0.057485
    68  H   -0.087978
    69  H   -0.064364
    70  H   -0.029781
    71  H   -0.026216
    72  H   -0.008097
    73  H   -0.011362
    74  H   -0.000509
    75  H    0.001628
    76  H   -0.004595
    77  H    0.003406
    78  H    0.013520
    79  H   -0.011990
    80  H   -0.007513
    81  H    0.003685
    82  H   -0.002771
    83  H    0.002326
    84  H    0.035398
    85  H   -0.005613
    86  H   -0.028680
    87  H   -0.008004
    88  H   -0.007734
    89  H   -0.000747
    90  H   -0.019206
    91  H   -0.022830
    92  H   -0.010347
    93  H   -0.000512
    94  H   -0.022937
    95  H    0.006173
    96  H   -0.004229
    97  H    0.010787
    98  H   -0.000101
    99  H    0.013945
   100  H    0.027316
   101  H    0.025605
   102  H    0.018476
   103  H   -0.000232
   104  H   -0.031786
   105  H    0.011727
   106  H   -0.015613
   107  H   -0.001529
   108  H   -0.029780
   109  H   -0.036876
   110  H   -0.031870
   111  H   -0.034163
   112  H   -0.035757
   113  H   -0.026287
   114  H   -0.036302
   115  H   -0.016639
   116  H   -0.016310
   117  H   -0.012999
   118  H   -0.044724
   119  H   -0.028406
   120  H   -0.007724
   121  H   -0.030284
   122  H   -0.052247
   123  H   -0.032093
   124  H   -0.039124
   125  H   -0.020794
   126  H   -0.014213
   127  H   -0.028178
   128  H   -0.028146
   129  H   -0.044060
   130  H   -0.036577
   131  H   -0.030603
   132  H   -0.049913
   133  H   -0.050668
   134  H   -0.038225
   135  H   -0.013920
   136  H   -0.020580
   137  H   -0.009043
   138  H   -0.030719
   139  H   -0.010152
   140  H   -0.023904
 Sum of Mulliken charges =  -0.00000

 Dipole moment (field-independent basis, Debye):
    X=              0.3142    Y=              2.8684    Z=              1.3424  Tot=              3.1825
 Quadrupole moment (field-independent basis, Debye-Ang):
   XX=           -414.4890   YY=           -403.0721   ZZ=           -402.6884
   XY=            -38.0981   XZ=            -10.3674   YZ=            -31.1668

 Normal termination of Gaussian 16 at Thu Apr 28 04:37:19 2022.
