 Gaussian 16, Revision A.03,
 Gaussian 16:  ES64L-G16RevA.03 25-Dec-2016

 -----------------------------------
 #p cam-b3lyp/Def2SVP td=(nstates=5)
 -----------------------------------

 --------------------------------------------------------
 step_1451_chromophore_11 TDDFT with cam-b3lyp functional
 --------------------------------------------------------
 Symbolic Z-matrix:
 Charge =  0 Multiplicity = 1

                         Standard orientation:
 ---------------------------------------------------------------------
 Center     Atomic      Atomic             Coordinates (Angstroms)
 Number     Number       Type             X           Y           Z
 ---------------------------------------------------------------------
      1         12           0       -4.877308    1.252169    0.536359
      2          6           0       -5.799176   -2.103894   -0.044212
      3          6           0       -2.490757    0.184385    2.796594
      4          6           0       -3.503406    4.399199    0.656865
      5          6           0       -7.229516    2.218181   -1.754944
      6          7           0       -4.144378   -0.795568    1.209281
      7          6           0       -4.719574   -1.990419    0.922639
      8          6           0       -4.107939   -3.154287    1.719715
      9          6           0       -3.315074   -2.273055    2.771937
     10          6           0       -3.258420   -0.879469    2.197565
     11          6           0       -3.951151   -2.199448    4.233453
     12          6           0       -3.281668   -4.179061    0.968653
     13          6           0       -2.036830   -3.559858    0.222306
     14          6           0       -0.655676   -4.266312    0.397041
     15          8           0       -0.361968   -5.429958    0.066967
     16          8           0        0.196069   -3.420642    1.067956
     17          7           0       -3.225058    2.188740    1.577397
     18          6           0       -2.407489    1.539879    2.485177
     19          6           0       -1.505107    2.537629    3.060231
     20          6           0       -1.774207    3.812242    2.565193
     21          6           0       -2.825669    3.486871    1.548009
     22          6           0       -0.462605    2.072356    4.095726
     23          6           0       -1.096569    5.068492    2.928968
     24          8           0       -0.223281    5.093323    3.798521
     25          6           0       -1.444725    6.406933    2.288709
     26          7           0       -5.185175    2.928864   -0.551128
     27          6           0       -4.601226    4.167121   -0.210475
     28          6           0       -4.908693    5.205177   -1.319700
     29          6           0       -6.194028    4.599952   -1.968367
     30          6           0       -6.188909    3.129887   -1.437136
     31          6           0       -5.081405    6.734325   -0.844758
     32          6           0       -6.384823    4.762748   -3.538385
     33          6           0       -6.129000    6.165858   -4.110736
     34          7           0       -6.316725    0.328751   -0.605567
     35          6           0       -7.349479    0.876637   -1.318929
     36          6           0       -8.329722   -0.092836   -1.603872
     37          6           0       -7.733782   -1.323836   -1.191266
     38          6           0       -6.468772   -0.988700   -0.601333
     39          6           0       -9.564484    0.184395   -2.342847
     40          6           0       -7.854246   -2.750845   -1.161332
     41          8           0       -8.901605   -3.391285   -1.386858
     42          6           0       -6.594259   -3.339470   -0.406807
     43          6           0       -5.882483   -4.186746   -1.405974
     44          8           0       -5.194527   -3.838897   -2.364840
     45          8           0       -6.274240   -5.519657   -1.217658
     46          6           0       -5.607554   -6.548975   -2.058975
     47          6           0        1.461199   -3.951220    1.457709
     48          6           0        2.422109   -3.508747    0.367134
     49          6           0        3.788453   -3.700006    0.250531
     50          6           0        4.529433   -4.662395    1.229534
     51          6           0        4.559731   -2.993722   -0.822497
     52          6           0        5.049410   -1.574698   -0.428232
     53          6           0        6.382252   -1.209984   -0.959284
     54          6           0        6.590557    0.346401   -1.116614
     55          6           0        6.952431    0.750767   -2.605479
     56          6           0        7.704423    0.885900   -0.196021
     57          6           0        9.058876    0.129732   -0.445297
     58          6           0       10.298272    1.014202   -0.838343
     59          6           0       11.553031    0.551873   -0.094915
     60          6           0       11.673336    1.039663    1.316560
     61          6           0       12.785192    0.987215   -0.939356
     62          6           0       13.940037    0.014225   -0.807249
     63          6           0       15.078291    0.642217   -0.053042
     64          6           0       16.355683    0.909711   -0.858363
     65          6           0       16.153270    1.441248   -2.295098
     66          6           0       17.119129   -0.446242   -0.889287
     67          1           0       -1.983290   -0.239560    3.665636
     68          1           0       -2.982704    5.357081    0.710447
     69          1           0       -7.895068    2.677550   -2.489676
     70          1           0       -4.945256   -3.617779    2.242119
     71          1           0       -2.292315   -2.523504    3.052752
     72          1           0       -4.294389   -1.183755    4.430255
     73          1           0       -3.199531   -2.332233    5.011705
     74          1           0       -4.761546   -2.884053    4.485472
     75          1           0       -3.878099   -4.656105    0.191834
     76          1           0       -2.947687   -4.934786    1.680158
     77          1           0       -1.825069   -2.520799    0.474565
     78          1           0       -2.269672   -3.539530   -0.842181
     79          1           0       -0.320965    0.994015    4.160614
     80          1           0       -0.843426    2.399820    5.062979
     81          1           0        0.480749    2.617664    4.047305
     82          1           0       -1.146693    7.250037    2.913478
     83          1           0       -2.526353    6.351776    2.416862
     84          1           0       -1.128348    6.298020    1.252053
     85          1           0       -4.097471    5.331387   -2.036918
     86          1           0       -7.009855    5.134880   -1.481245
     87          1           0       -4.283529    7.402055   -1.170020
     88          1           0       -5.022517    6.678333    0.242018
     89          1           0       -6.027816    7.124372   -1.219977
     90          1           0       -7.387883    4.366599   -3.699289
     91          1           0       -5.780080    3.997312   -4.024739
     92          1           0       -7.044202    6.752697   -4.186876
     93          1           0       -5.622155    6.209607   -5.075147
     94          1           0       -5.516350    6.730618   -3.407429
     95          1           0       -9.341422   -0.320180   -3.282294
     96          1           0       -9.675564    1.254351   -2.518463
     97          1           0      -10.376919   -0.410954   -1.924445
     98          1           0       -6.993478   -3.960219    0.394836
     99          1           0       -5.924185   -7.456960   -1.546641
    100          1           0       -4.540958   -6.339214   -1.978380
    101          1           0       -6.018622   -6.553647   -3.068986
    102          1           0        1.471992   -5.029663    1.615873
    103          1           0        1.837586   -3.419300    2.331679
    104          1           0        1.946144   -2.887055   -0.391253
    105          1           0        5.240274   -5.298707    0.702545
    106          1           0        3.764563   -5.192514    1.797668
    107          1           0        4.965353   -3.888460    1.862085
    108          1           0        3.891725   -2.847636   -1.671980
    109          1           0        5.375288   -3.589240   -1.230925
    110          1           0        5.091955   -1.532094    0.660494
    111          1           0        4.393865   -0.786772   -0.800247
    112          1           0        6.526306   -1.722059   -1.909836
    113          1           0        7.032654   -1.687127   -0.226141
    114          1           0        5.634433    0.847554   -0.969343
    115          1           0        6.046287    1.003460   -3.154780
    116          1           0        7.393425   -0.029695   -3.226515
    117          1           0        7.660841    1.575578   -2.539695
    118          1           0        7.492289    0.711156    0.858599
    119          1           0        7.772522    1.969835   -0.285513
    120          1           0        8.895030   -0.618617   -1.220603
    121          1           0        9.298178   -0.309321    0.522785
    122          1           0       10.051703    1.995431   -0.431386
    123          1           0       10.476765    1.179589   -1.901782
    124          1           0       11.569932   -0.533754   -0.006509
    125          1           0       10.735377    1.197253    1.849863
    126          1           0       12.331961    1.906750    1.352659
    127          1           0       12.125925    0.228483    1.887573
    128          1           0       13.055582    1.985149   -0.592248
    129          1           0       12.486484    1.073766   -1.983199
    130          1           0       14.243996   -0.212284   -1.829831
    131          1           0       13.670068   -0.920842   -0.316039
    132          1           0       15.318595    0.137551    0.882978
    133          1           0       14.794699    1.602447    0.379199
    134          1           0       16.846564    1.553478   -0.128294
    135          1           0       15.166003    1.861550   -2.487051
    136          1           0       16.220223    0.636539   -3.026949
    137          1           0       16.952659    2.123658   -2.583764
    138          1           0       17.712827   -0.547591   -1.797580
    139          1           0       16.494209   -1.337751   -0.827572
    140          1           0       17.841719   -0.465418   -0.072993
 ---------------------------------------------------------------------

 SCF Done:  E(RCAM-B3LYP) =  -3007.16328107     A.U. after   17 cycles

 Excitation energies and oscillator strengths:

 Excited State   1:      Singlet-A      1.6807 eV  737.68 nm  f=0.3585  <S**2>=0.000
     245 -> 248        0.18537
     246 -> 247        0.68381
     245 <- 248        0.10901
 This state for optimization and/or second-order correction.
 Total Energy, E(TD-HF/TD-DFT) =  -3007.10151538
 Copying the excited state density for this state as the 1-particle RhoCI density.

 Excited State   2:      Singlet-A      2.2192 eV  558.68 nm  f=0.0684  <S**2>=0.000
     245 -> 247        0.61269
     246 -> 248       -0.34068

 Excited State   3:      Singlet-A      3.3001 eV  375.70 nm  f=0.0222  <S**2>=0.000
     241 -> 247       -0.11411
     241 -> 249       -0.11193
     242 -> 247       -0.37543
     242 -> 249       -0.18680
     242 -> 250        0.15263
     243 -> 247        0.45681
     246 -> 248        0.17412

 Excited State   4:      Singlet-A      3.3584 eV  369.18 nm  f=0.0002  <S**2>=0.000
     241 -> 247        0.26468
     242 -> 247        0.33074
     242 -> 249        0.17520
     242 -> 250       -0.13135
     243 -> 247        0.47890

 Excited State   5:      Singlet-A      3.3934 eV  365.37 nm  f=0.6294  <S**2>=0.000
     241 -> 247       -0.16936
     242 -> 247        0.15616
     243 -> 247       -0.13052
     245 -> 247        0.30809
     246 -> 248        0.56243
     245 <- 247       -0.10441

 The electronic state is 1-A.
 Alpha  occ. eigenvalues --  -46.89237 -19.25629 -19.23998 -19.20060 -19.19959
 Alpha  occ. eigenvalues --  -19.18761 -19.18571 -14.43170 -14.42369 -14.40566
 Alpha  occ. eigenvalues --  -14.39176 -10.40015 -10.39486 -10.35336 -10.34979
 Alpha  occ. eigenvalues --  -10.32162 -10.32065 -10.31986 -10.31774 -10.31660
 Alpha  occ. eigenvalues --  -10.31498 -10.31366 -10.30701 -10.29575 -10.29466
 Alpha  occ. eigenvalues --  -10.29329 -10.29232 -10.29183 -10.29080 -10.28828
 Alpha  occ. eigenvalues --  -10.28376 -10.28339 -10.28269 -10.28068 -10.27871
 Alpha  occ. eigenvalues --  -10.27863 -10.27767 -10.27400 -10.27119 -10.27105
 Alpha  occ. eigenvalues --  -10.26973 -10.26830 -10.26690 -10.26535 -10.26157
 Alpha  occ. eigenvalues --  -10.26129 -10.26044 -10.25967 -10.25924 -10.25462
 Alpha  occ. eigenvalues --  -10.25348 -10.25318 -10.25157 -10.24725 -10.24636
 Alpha  occ. eigenvalues --  -10.24610 -10.24500 -10.24498 -10.24379 -10.24271
 Alpha  occ. eigenvalues --  -10.24153 -10.24077 -10.23882 -10.23869 -10.23849
 Alpha  occ. eigenvalues --  -10.23648  -3.17810  -1.92700  -1.92250  -1.92130
 Alpha  occ. eigenvalues --   -1.16766  -1.14797  -1.09749  -1.08216  -1.07364
 Alpha  occ. eigenvalues --   -1.06688  -1.05589  -1.04439  -1.03811  -1.02619
 Alpha  occ. eigenvalues --   -0.93028  -0.90406  -0.90069  -0.89820  -0.88831
 Alpha  occ. eigenvalues --   -0.88438  -0.88409  -0.87550  -0.87490  -0.87436
 Alpha  occ. eigenvalues --   -0.87074  -0.85550  -0.84681  -0.83708  -0.83443
 Alpha  occ. eigenvalues --   -0.82391  -0.82087  -0.81602  -0.80782  -0.80671
 Alpha  occ. eigenvalues --   -0.79325  -0.78378  -0.77823  -0.77588  -0.76185
 Alpha  occ. eigenvalues --   -0.76019  -0.75674  -0.75507  -0.74952  -0.73837
 Alpha  occ. eigenvalues --   -0.73543  -0.72779  -0.72198  -0.70907  -0.69883
 Alpha  occ. eigenvalues --   -0.69246  -0.69087  -0.67970  -0.66554  -0.66230
 Alpha  occ. eigenvalues --   -0.65873  -0.65598  -0.64632  -0.64221  -0.63606
 Alpha  occ. eigenvalues --   -0.63111  -0.61821  -0.61667  -0.61237  -0.60294
 Alpha  occ. eigenvalues --   -0.59777  -0.59629  -0.59566  -0.58842  -0.58481
 Alpha  occ. eigenvalues --   -0.57710  -0.57534  -0.56411  -0.56111  -0.55668
 Alpha  occ. eigenvalues --   -0.55481  -0.55161  -0.54733  -0.54439  -0.54152
 Alpha  occ. eigenvalues --   -0.53887  -0.53693  -0.53656  -0.53134  -0.52925
 Alpha  occ. eigenvalues --   -0.52845  -0.52533  -0.52162  -0.52126  -0.51902
 Alpha  occ. eigenvalues --   -0.51570  -0.51348  -0.50996  -0.50788  -0.50679
 Alpha  occ. eigenvalues --   -0.50383  -0.50065  -0.49927  -0.49738  -0.49695
 Alpha  occ. eigenvalues --   -0.49493  -0.49396  -0.49265  -0.49096  -0.48788
 Alpha  occ. eigenvalues --   -0.48688  -0.48430  -0.48180  -0.47743  -0.47685
 Alpha  occ. eigenvalues --   -0.47476  -0.47078  -0.47041  -0.46760  -0.46648
 Alpha  occ. eigenvalues --   -0.46508  -0.46108  -0.46043  -0.45960  -0.45918
 Alpha  occ. eigenvalues --   -0.45769  -0.45481  -0.45317  -0.45273  -0.44862
 Alpha  occ. eigenvalues --   -0.44793  -0.44592  -0.44580  -0.44439  -0.44184
 Alpha  occ. eigenvalues --   -0.43925  -0.43844  -0.43599  -0.43300  -0.43147
 Alpha  occ. eigenvalues --   -0.42946  -0.42872  -0.42837  -0.42483  -0.42372
 Alpha  occ. eigenvalues --   -0.42318  -0.41792  -0.41530  -0.41414  -0.41148
 Alpha  occ. eigenvalues --   -0.40968  -0.40870  -0.40628  -0.40302  -0.40214
 Alpha  occ. eigenvalues --   -0.40152  -0.39773  -0.39524  -0.39007  -0.38648
 Alpha  occ. eigenvalues --   -0.38488  -0.38249  -0.37676  -0.37364  -0.37313
 Alpha  occ. eigenvalues --   -0.37269  -0.36829  -0.36690  -0.36600  -0.36272
 Alpha  occ. eigenvalues --   -0.36252  -0.35956  -0.35910  -0.34962  -0.34319
 Alpha  occ. eigenvalues --   -0.34003  -0.33690  -0.33005  -0.31628  -0.31048
 Alpha  occ. eigenvalues --   -0.30735  -0.30477  -0.29473  -0.28445  -0.24672
 Alpha  occ. eigenvalues --   -0.21456
 Alpha virt. eigenvalues --   -0.09073  -0.02858  -0.00555   0.01630   0.02039
 Alpha virt. eigenvalues --    0.04219   0.04788   0.04900   0.06035   0.06387
 Alpha virt. eigenvalues --    0.07760   0.08190   0.08792   0.08796   0.09226

 Mulliken charges:
               1
     1  Mg   0.835335
     2  C    0.001061
     3  C   -0.080650
     4  C   -0.068867
     5  C   -0.090482
     6  N   -0.224804
     7  C   -0.082891
     8  C    0.044253
     9  C   -0.089056
    10  C   -0.014835
    11  C    0.035152
    12  C    0.116894
    13  C    0.011700
    14  C    0.161406
    15  O   -0.244974
    16  O   -0.316973
    17  N   -0.337766
    18  C    0.185133
    19  C   -0.134567
    20  C    0.001840
    21  C    0.072455
    22  C    0.132152
    23  C   -0.060195
    24  O   -0.214042
    25  C    0.079373
    26  N   -0.358039
    27  C    0.138127
    28  C   -0.112057
    29  C   -0.020787
    30  C    0.045456
    31  C    0.044286
    32  C    0.037550
    33  C    0.022964
    34  N   -0.343581
    35  C    0.159357
    36  C   -0.180944
    37  C    0.032487
    38  C    0.106167
    39  C    0.151002
    40  C    0.020247
    41  O   -0.204669
    42  C   -0.012229
    43  C    0.199991
    44  O   -0.222843
    45  O   -0.371262
    46  C    0.185447
    47  C    0.290425
    48  C   -0.162033
    49  C   -0.208782
    50  C    0.095417
    51  C    0.094867
    52  C    0.028846
    53  C    0.030623
    54  C   -0.120205
    55  C    0.027101
    56  C    0.051302
    57  C   -0.008625
    58  C    0.077119
    59  C   -0.155106
    60  C    0.067550
    61  C    0.031781
    62  C    0.058384
    63  C    0.005333
    64  C   -0.116201
    65  C    0.053129
    66  C    0.033464
    67  H   -0.021206
    68  H   -0.052494
    69  H   -0.031689
    70  H    0.007162
    71  H    0.009424
    72  H    0.017853
    73  H    0.012886
    74  H    0.024817
    75  H    0.024304
    76  H    0.026583
    77  H    0.035741
    78  H    0.046270
    79  H    0.014679
    80  H    0.022175
    81  H    0.035325
    82  H    0.033950
    83  H    0.027951
    84  H    0.060769
    85  H    0.028114
    86  H    0.005767
    87  H    0.016840
    88  H    0.016759
    89  H    0.023237
    90  H    0.007696
    91  H    0.007310
    92  H    0.013832
    93  H    0.024883
    94  H   -0.002668
    95  H    0.032432
    96  H    0.019188
    97  H    0.037583
    98  H    0.045759
    99  H    0.038093
   100  H    0.047227
   101  H    0.048875
   102  H    0.048836
   103  H    0.027674
   104  H    0.000626
   105  H    0.035137
   106  H    0.007136
   107  H    0.020072
   108  H    0.002623
   109  H   -0.005785
   110  H   -0.005415
   111  H   -0.006423
   112  H   -0.007110
   113  H    0.001299
   114  H   -0.003104
   115  H    0.008185
   116  H    0.006283
   117  H    0.009888
   118  H   -0.015080
   119  H   -0.000007
   120  H    0.018886
   121  H   -0.002177
   122  H   -0.023013
   123  H   -0.003967
   124  H   -0.007692
   125  H    0.003871
   126  H    0.008251
   127  H   -0.003058
   128  H   -0.001383
   129  H   -0.013452
   130  H   -0.006066
   131  H   -0.000967
   132  H   -0.018496
   133  H   -0.021901
   134  H   -0.005256
   135  H    0.008899
   136  H    0.003844
   137  H    0.016793
   138  H   -0.005173
   139  H    0.012519
   140  H    0.001564
 Sum of Mulliken charges =  -0.00000

 Dipole moment (field-independent basis, Debye):
    X=              0.7958    Y=              3.2142    Z=              1.8379  Tot=              3.7872
 Quadrupole moment (field-independent basis, Debye-Ang):
   XX=           -420.1084   YY=           -399.0713   ZZ=           -401.0469
   XY=            -39.1381   XZ=            -11.6608   YZ=            -31.4658

 Normal termination of Gaussian 16 at Thu Apr 28 03:30:53 2022.
