 Gaussian 16, Revision A.03,
 Gaussian 16:  ES64L-G16RevA.03 25-Dec-2016

 ---------------------------------
 #p PBE1PBE/Def2SVP td=(nstates=5)
 ---------------------------------

 ------------------------------------------------------
 step_1451_chromophore_11 TDDFT with PBE1PBE functional
 ------------------------------------------------------
 Symbolic Z-matrix:
 Charge =  0 Multiplicity = 1

                         Standard orientation:
 ---------------------------------------------------------------------
 Center     Atomic      Atomic             Coordinates (Angstroms)
 Number     Number       Type             X           Y           Z
 ---------------------------------------------------------------------
      1         12           0       -4.877308    1.252169    0.536359
      2          6           0       -5.799176   -2.103894   -0.044212
      3          6           0       -2.490757    0.184385    2.796594
      4          6           0       -3.503406    4.399199    0.656865
      5          6           0       -7.229516    2.218181   -1.754944
      6          7           0       -4.144378   -0.795568    1.209281
      7          6           0       -4.719574   -1.990419    0.922639
      8          6           0       -4.107939   -3.154287    1.719715
      9          6           0       -3.315074   -2.273055    2.771937
     10          6           0       -3.258420   -0.879469    2.197565
     11          6           0       -3.951151   -2.199448    4.233453
     12          6           0       -3.281668   -4.179061    0.968653
     13          6           0       -2.036830   -3.559858    0.222306
     14          6           0       -0.655676   -4.266312    0.397041
     15          8           0       -0.361968   -5.429958    0.066967
     16          8           0        0.196069   -3.420642    1.067956
     17          7           0       -3.225058    2.188740    1.577397
     18          6           0       -2.407489    1.539879    2.485177
     19          6           0       -1.505107    2.537629    3.060231
     20          6           0       -1.774207    3.812242    2.565193
     21          6           0       -2.825669    3.486871    1.548009
     22          6           0       -0.462605    2.072356    4.095726
     23          6           0       -1.096569    5.068492    2.928968
     24          8           0       -0.223281    5.093323    3.798521
     25          6           0       -1.444725    6.406933    2.288709
     26          7           0       -5.185175    2.928864   -0.551128
     27          6           0       -4.601226    4.167121   -0.210475
     28          6           0       -4.908693    5.205177   -1.319700
     29          6           0       -6.194028    4.599952   -1.968367
     30          6           0       -6.188909    3.129887   -1.437136
     31          6           0       -5.081405    6.734325   -0.844758
     32          6           0       -6.384823    4.762748   -3.538385
     33          6           0       -6.129000    6.165858   -4.110736
     34          7           0       -6.316725    0.328751   -0.605567
     35          6           0       -7.349479    0.876637   -1.318929
     36          6           0       -8.329722   -0.092836   -1.603872
     37          6           0       -7.733782   -1.323836   -1.191266
     38          6           0       -6.468772   -0.988700   -0.601333
     39          6           0       -9.564484    0.184395   -2.342847
     40          6           0       -7.854246   -2.750845   -1.161332
     41          8           0       -8.901605   -3.391285   -1.386858
     42          6           0       -6.594259   -3.339470   -0.406807
     43          6           0       -5.882483   -4.186746   -1.405974
     44          8           0       -5.194527   -3.838897   -2.364840
     45          8           0       -6.274240   -5.519657   -1.217658
     46          6           0       -5.607554   -6.548975   -2.058975
     47          6           0        1.461199   -3.951220    1.457709
     48          6           0        2.422109   -3.508747    0.367134
     49          6           0        3.788453   -3.700006    0.250531
     50          6           0        4.529433   -4.662395    1.229534
     51          6           0        4.559731   -2.993722   -0.822497
     52          6           0        5.049410   -1.574698   -0.428232
     53          6           0        6.382252   -1.209984   -0.959284
     54          6           0        6.590557    0.346401   -1.116614
     55          6           0        6.952431    0.750767   -2.605479
     56          6           0        7.704423    0.885900   -0.196021
     57          6           0        9.058876    0.129732   -0.445297
     58          6           0       10.298272    1.014202   -0.838343
     59          6           0       11.553031    0.551873   -0.094915
     60          6           0       11.673336    1.039663    1.316560
     61          6           0       12.785192    0.987215   -0.939356
     62          6           0       13.940037    0.014225   -0.807249
     63          6           0       15.078291    0.642217   -0.053042
     64          6           0       16.355683    0.909711   -0.858363
     65          6           0       16.153270    1.441248   -2.295098
     66          6           0       17.119129   -0.446242   -0.889287
     67          1           0       -1.983290   -0.239560    3.665636
     68          1           0       -2.982704    5.357081    0.710447
     69          1           0       -7.895068    2.677550   -2.489676
     70          1           0       -4.945256   -3.617779    2.242119
     71          1           0       -2.292315   -2.523504    3.052752
     72          1           0       -4.294389   -1.183755    4.430255
     73          1           0       -3.199531   -2.332233    5.011705
     74          1           0       -4.761546   -2.884053    4.485472
     75          1           0       -3.878099   -4.656105    0.191834
     76          1           0       -2.947687   -4.934786    1.680158
     77          1           0       -1.825069   -2.520799    0.474565
     78          1           0       -2.269672   -3.539530   -0.842181
     79          1           0       -0.320965    0.994015    4.160614
     80          1           0       -0.843426    2.399820    5.062979
     81          1           0        0.480749    2.617664    4.047305
     82          1           0       -1.146693    7.250037    2.913478
     83          1           0       -2.526353    6.351776    2.416862
     84          1           0       -1.128348    6.298020    1.252053
     85          1           0       -4.097471    5.331387   -2.036918
     86          1           0       -7.009855    5.134880   -1.481245
     87          1           0       -4.283529    7.402055   -1.170020
     88          1           0       -5.022517    6.678333    0.242018
     89          1           0       -6.027816    7.124372   -1.219977
     90          1           0       -7.387883    4.366599   -3.699289
     91          1           0       -5.780080    3.997312   -4.024739
     92          1           0       -7.044202    6.752697   -4.186876
     93          1           0       -5.622155    6.209607   -5.075147
     94          1           0       -5.516350    6.730618   -3.407429
     95          1           0       -9.341422   -0.320180   -3.282294
     96          1           0       -9.675564    1.254351   -2.518463
     97          1           0      -10.376919   -0.410954   -1.924445
     98          1           0       -6.993478   -3.960219    0.394836
     99          1           0       -5.924185   -7.456960   -1.546641
    100          1           0       -4.540958   -6.339214   -1.978380
    101          1           0       -6.018622   -6.553647   -3.068986
    102          1           0        1.471992   -5.029663    1.615873
    103          1           0        1.837586   -3.419300    2.331679
    104          1           0        1.946144   -2.887055   -0.391253
    105          1           0        5.240274   -5.298707    0.702545
    106          1           0        3.764563   -5.192514    1.797668
    107          1           0        4.965353   -3.888460    1.862085
    108          1           0        3.891725   -2.847636   -1.671980
    109          1           0        5.375288   -3.589240   -1.230925
    110          1           0        5.091955   -1.532094    0.660494
    111          1           0        4.393865   -0.786772   -0.800247
    112          1           0        6.526306   -1.722059   -1.909836
    113          1           0        7.032654   -1.687127   -0.226141
    114          1           0        5.634433    0.847554   -0.969343
    115          1           0        6.046287    1.003460   -3.154780
    116          1           0        7.393425   -0.029695   -3.226515
    117          1           0        7.660841    1.575578   -2.539695
    118          1           0        7.492289    0.711156    0.858599
    119          1           0        7.772522    1.969835   -0.285513
    120          1           0        8.895030   -0.618617   -1.220603
    121          1           0        9.298178   -0.309321    0.522785
    122          1           0       10.051703    1.995431   -0.431386
    123          1           0       10.476765    1.179589   -1.901782
    124          1           0       11.569932   -0.533754   -0.006509
    125          1           0       10.735377    1.197253    1.849863
    126          1           0       12.331961    1.906750    1.352659
    127          1           0       12.125925    0.228483    1.887573
    128          1           0       13.055582    1.985149   -0.592248
    129          1           0       12.486484    1.073766   -1.983199
    130          1           0       14.243996   -0.212284   -1.829831
    131          1           0       13.670068   -0.920842   -0.316039
    132          1           0       15.318595    0.137551    0.882978
    133          1           0       14.794699    1.602447    0.379199
    134          1           0       16.846564    1.553478   -0.128294
    135          1           0       15.166003    1.861550   -2.487051
    136          1           0       16.220223    0.636539   -3.026949
    137          1           0       16.952659    2.123658   -2.583764
    138          1           0       17.712827   -0.547591   -1.797580
    139          1           0       16.494209   -1.337751   -0.827572
    140          1           0       17.841719   -0.465418   -0.072993
 ---------------------------------------------------------------------

 SCF Done:  E(RPBE1PBE) =  -3005.35360409     A.U. after   15 cycles

 Excitation energies and oscillator strengths:

 Excited State   1:      Singlet-A      1.8236 eV  679.90 nm  f=0.3450  <S**2>=0.000
     245 -> 248        0.18044
     246 -> 247        0.69104
     246 <- 247       -0.10599
 This state for optimization and/or second-order correction.
 Total Energy, E(TD-HF/TD-DFT) =  -3005.28658941
 Copying the excited state density for this state as the 1-particle RhoCI density.

 Excited State   2:      Singlet-A      2.2216 eV  558.08 nm  f=0.0736  <S**2>=0.000
     245 -> 247        0.62966
     246 -> 248       -0.31051

 Excited State   3:      Singlet-A      2.8377 eV  436.91 nm  f=0.0003  <S**2>=0.000
     241 -> 247        0.11876
     242 -> 247        0.50861
     242 -> 249       -0.14116
     243 -> 247       -0.42218

 Excited State   4:      Singlet-A      2.9194 eV  424.69 nm  f=0.0000  <S**2>=0.000
     244 -> 247        0.70697

 Excited State   5:      Singlet-A      2.9757 eV  416.66 nm  f=0.0002  <S**2>=0.000
     241 -> 247        0.64869
     241 -> 249        0.17364
     241 -> 250       -0.10645
     242 -> 247       -0.13129

 The electronic state is 1-A.
 Alpha  occ. eigenvalues --  -46.92642 -19.26321 -19.24665 -19.20250 -19.20230
 Alpha  occ. eigenvalues --  -19.18956 -19.18894 -14.42537 -14.42041 -14.40109
 Alpha  occ. eigenvalues --  -14.38917 -10.37054 -10.36490 -10.32385 -10.32251
 Alpha  occ. eigenvalues --  -10.29847 -10.29823 -10.29459 -10.29402 -10.29254
 Alpha  occ. eigenvalues --  -10.29140 -10.28713 -10.28220 -10.27459 -10.27133
 Alpha  occ. eigenvalues --  -10.26985 -10.26908 -10.26905 -10.26819 -10.26618
 Alpha  occ. eigenvalues --  -10.26109 -10.25968 -10.25932 -10.25833 -10.25740
 Alpha  occ. eigenvalues --  -10.25440 -10.25251 -10.25130 -10.24950 -10.24810
 Alpha  occ. eigenvalues --  -10.24492 -10.24449 -10.24054 -10.23941 -10.23634
 Alpha  occ. eigenvalues --  -10.23598 -10.23552 -10.23526 -10.23355 -10.23259
 Alpha  occ. eigenvalues --  -10.23114 -10.22835 -10.22714 -10.22269 -10.22187
 Alpha  occ. eigenvalues --  -10.22176 -10.21999 -10.21988 -10.21802 -10.21774
 Alpha  occ. eigenvalues --  -10.21700 -10.21436 -10.21429 -10.21394 -10.21248
 Alpha  occ. eigenvalues --  -10.21185  -3.14794  -1.87626  -1.87154  -1.87036
 Alpha  occ. eigenvalues --   -1.11584  -1.09514  -1.04386  -1.03062  -1.02194
 Alpha  occ. eigenvalues --   -1.01493  -1.00181  -0.99242  -0.98353  -0.97291
 Alpha  occ. eigenvalues --   -0.87416  -0.84478  -0.84227  -0.83958  -0.83092
 Alpha  occ. eigenvalues --   -0.82687  -0.82526  -0.81970  -0.81775  -0.81604
 Alpha  occ. eigenvalues --   -0.81293  -0.79769  -0.78891  -0.77960  -0.77670
 Alpha  occ. eigenvalues --   -0.76519  -0.76310  -0.75835  -0.75126  -0.74994
 Alpha  occ. eigenvalues --   -0.73474  -0.72702  -0.72056  -0.71840  -0.70507
 Alpha  occ. eigenvalues --   -0.70149  -0.69874  -0.69735  -0.69035  -0.68003
 Alpha  occ. eigenvalues --   -0.67843  -0.67213  -0.66633  -0.65201  -0.64263
 Alpha  occ. eigenvalues --   -0.63573  -0.63341  -0.62509  -0.60904  -0.60511
 Alpha  occ. eigenvalues --   -0.60173  -0.60007  -0.59174  -0.58712  -0.58074
 Alpha  occ. eigenvalues --   -0.57229  -0.56245  -0.56042  -0.55475  -0.54837
 Alpha  occ. eigenvalues --   -0.54272  -0.54210  -0.53962  -0.53490  -0.52880
 Alpha  occ. eigenvalues --   -0.52347  -0.51931  -0.50981  -0.50588  -0.50219
 Alpha  occ. eigenvalues --   -0.50010  -0.49558  -0.49253  -0.48834  -0.48757
 Alpha  occ. eigenvalues --   -0.48455  -0.48093  -0.48029  -0.47692  -0.47375
 Alpha  occ. eigenvalues --   -0.47323  -0.47039  -0.46777  -0.46637  -0.46476
 Alpha  occ. eigenvalues --   -0.46136  -0.45875  -0.45621  -0.45289  -0.45186
 Alpha  occ. eigenvalues --   -0.44834  -0.44566  -0.44431  -0.44365  -0.44252
 Alpha  occ. eigenvalues --   -0.44120  -0.44012  -0.43821  -0.43682  -0.43476
 Alpha  occ. eigenvalues --   -0.43323  -0.43063  -0.42869  -0.42391  -0.42294
 Alpha  occ. eigenvalues --   -0.42088  -0.41869  -0.41681  -0.41484  -0.41357
 Alpha  occ. eigenvalues --   -0.41236  -0.40743  -0.40672  -0.40605  -0.40498
 Alpha  occ. eigenvalues --   -0.40492  -0.40238  -0.40077  -0.39879  -0.39650
 Alpha  occ. eigenvalues --   -0.39444  -0.39381  -0.39271  -0.39061  -0.38939
 Alpha  occ. eigenvalues --   -0.38688  -0.38639  -0.38424  -0.38103  -0.37891
 Alpha  occ. eigenvalues --   -0.37740  -0.37702  -0.37525  -0.37330  -0.37149
 Alpha  occ. eigenvalues --   -0.37092  -0.36695  -0.36357  -0.36141  -0.36070
 Alpha  occ. eigenvalues --   -0.35839  -0.35653  -0.35584  -0.35157  -0.35005
 Alpha  occ. eigenvalues --   -0.34863  -0.34696  -0.34248  -0.33774  -0.33658
 Alpha  occ. eigenvalues --   -0.33326  -0.33232  -0.32422  -0.32407  -0.32159
 Alpha  occ. eigenvalues --   -0.32097  -0.31917  -0.31527  -0.31388  -0.31172
 Alpha  occ. eigenvalues --   -0.31124  -0.30845  -0.30716  -0.30184  -0.29436
 Alpha  occ. eigenvalues --   -0.28978  -0.28772  -0.27963  -0.27196  -0.26284
 Alpha  occ. eigenvalues --   -0.25637  -0.25550  -0.25224  -0.23730  -0.21574
 Alpha  occ. eigenvalues --   -0.19128
 Alpha virt. eigenvalues --   -0.11595  -0.06282  -0.04701  -0.02757  -0.00796
 Alpha virt. eigenvalues --   -0.00363   0.00134   0.00716   0.01640   0.02237
 Alpha virt. eigenvalues --    0.03909   0.04181   0.05237   0.05552   0.05978

 Mulliken charges:
               1
     1  Mg   0.983408
     2  C   -0.004178
     3  C   -0.078712
     4  C   -0.066459
     5  C   -0.084410
     6  N   -0.331358
     7  C    0.004674
     8  C   -0.031431
     9  C   -0.167093
    10  C    0.027361
    11  C   -0.016612
    12  C    0.056876
    13  C   -0.066119
    14  C    0.229874
    15  O   -0.277690
    16  O   -0.348849
    17  N   -0.449093
    18  C    0.206814
    19  C   -0.161603
    20  C   -0.048390
    21  C    0.104242
    22  C    0.077660
    23  C   -0.007762
    24  O   -0.249795
    25  C   -0.002665
    26  N   -0.463168
    27  C    0.162888
    28  C   -0.177899
    29  C   -0.098234
    30  C    0.090638
    31  C   -0.018243
    32  C   -0.026771
    33  C   -0.051548
    34  N   -0.473477
    35  C    0.177336
    36  C   -0.200115
    37  C   -0.019308
    38  C    0.158408
    39  C    0.094876
    40  C    0.117636
    41  O   -0.245359
    42  C   -0.127603
    43  C    0.289417
    44  O   -0.256862
    45  O   -0.402438
    46  C    0.130782
    47  C    0.244881
    48  C   -0.162997
    49  C   -0.257852
    50  C    0.030046
    51  C    0.032749
    52  C   -0.033233
    53  C   -0.019897
    54  C   -0.210885
    55  C   -0.030488
    56  C   -0.004816
    57  C   -0.074156
    58  C    0.024502
    59  C   -0.242712
    60  C    0.013180
    61  C   -0.023303
    62  C   -0.005697
    63  C   -0.046605
    64  C   -0.209264
    65  C   -0.012633
    66  C   -0.027033
    67  H    0.009319
    68  H   -0.015545
    69  H    0.001980
    70  H    0.045143
    71  H    0.046625
    72  H    0.046418
    73  H    0.039617
    74  H    0.051166
    75  H    0.067811
    76  H    0.058800
    77  H    0.071472
    78  H    0.077768
    79  H    0.039943
    80  H    0.050547
    81  H    0.062029
    82  H    0.061515
    83  H    0.055940
    84  H    0.086619
    85  H    0.065099
    86  H    0.045585
    87  H    0.044147
    88  H    0.045890
    89  H    0.049824
    90  H    0.041060
    91  H    0.040669
    92  H    0.041709
    93  H    0.052671
    94  H    0.029442
    95  H    0.062766
    96  H    0.046773
    97  H    0.066289
    98  H    0.079906
    99  H    0.059764
   100  H    0.068046
   101  H    0.070592
   102  H    0.073507
   103  H    0.056124
   104  H    0.030775
   105  H    0.061435
   106  H    0.035512
   107  H    0.049211
   108  H    0.035697
   109  H    0.025634
   110  H    0.029035
   111  H    0.026619
   112  H    0.024998
   113  H    0.034433
   114  H    0.033856
   115  H    0.036275
   116  H    0.032167
   117  H    0.038873
   118  H    0.019228
   119  H    0.031286
   120  H    0.052182
   121  H    0.030675
   122  H    0.012020
   123  H    0.026306
   124  H    0.030843
   125  H    0.031180
   126  H    0.034529
   127  H    0.024972
   128  H    0.029997
   129  H    0.018568
   130  H    0.027621
   131  H    0.030569
   132  H    0.014466
   133  H    0.011080
   134  H    0.032101
   135  H    0.038722
   136  H    0.030444
   137  H    0.045518
   138  H    0.022973
   139  H    0.039816
   140  H    0.029914
 Sum of Mulliken charges =  -0.00000

 Dipole moment (field-independent basis, Debye):
    X=              0.4957    Y=              3.2265    Z=              1.6369  Tot=              3.6518
 Quadrupole moment (field-independent basis, Debye-Ang):
   XX=           -413.6249   YY=           -395.7636   ZZ=           -397.7546
   XY=            -40.0088   XZ=             -9.8559   YZ=            -33.0951

 Normal termination of Gaussian 16 at Thu Apr 28 03:51:13 2022.
