 Gaussian 16, Revision A.03,
 Gaussian 16:  ES64L-G16RevA.03 25-Dec-2016

 --------------------------------
 #p wB97XD/Def2SVP td=(nstates=5)
 --------------------------------

 -----------------------------------------------------
 step_1451_chromophore_11 TDDFT with wB97XD functional
 -----------------------------------------------------
 Symbolic Z-matrix:
 Charge =  0 Multiplicity = 1

                         Standard orientation:
 ---------------------------------------------------------------------
 Center     Atomic      Atomic             Coordinates (Angstroms)
 Number     Number       Type             X           Y           Z
 ---------------------------------------------------------------------
      1         12           0       -4.877308    1.252169    0.536359
      2          6           0       -5.799176   -2.103894   -0.044212
      3          6           0       -2.490757    0.184385    2.796594
      4          6           0       -3.503406    4.399199    0.656865
      5          6           0       -7.229516    2.218181   -1.754944
      6          7           0       -4.144378   -0.795568    1.209281
      7          6           0       -4.719574   -1.990419    0.922639
      8          6           0       -4.107939   -3.154287    1.719715
      9          6           0       -3.315074   -2.273055    2.771937
     10          6           0       -3.258420   -0.879469    2.197565
     11          6           0       -3.951151   -2.199448    4.233453
     12          6           0       -3.281668   -4.179061    0.968653
     13          6           0       -2.036830   -3.559858    0.222306
     14          6           0       -0.655676   -4.266312    0.397041
     15          8           0       -0.361968   -5.429958    0.066967
     16          8           0        0.196069   -3.420642    1.067956
     17          7           0       -3.225058    2.188740    1.577397
     18          6           0       -2.407489    1.539879    2.485177
     19          6           0       -1.505107    2.537629    3.060231
     20          6           0       -1.774207    3.812242    2.565193
     21          6           0       -2.825669    3.486871    1.548009
     22          6           0       -0.462605    2.072356    4.095726
     23          6           0       -1.096569    5.068492    2.928968
     24          8           0       -0.223281    5.093323    3.798521
     25          6           0       -1.444725    6.406933    2.288709
     26          7           0       -5.185175    2.928864   -0.551128
     27          6           0       -4.601226    4.167121   -0.210475
     28          6           0       -4.908693    5.205177   -1.319700
     29          6           0       -6.194028    4.599952   -1.968367
     30          6           0       -6.188909    3.129887   -1.437136
     31          6           0       -5.081405    6.734325   -0.844758
     32          6           0       -6.384823    4.762748   -3.538385
     33          6           0       -6.129000    6.165858   -4.110736
     34          7           0       -6.316725    0.328751   -0.605567
     35          6           0       -7.349479    0.876637   -1.318929
     36          6           0       -8.329722   -0.092836   -1.603872
     37          6           0       -7.733782   -1.323836   -1.191266
     38          6           0       -6.468772   -0.988700   -0.601333
     39          6           0       -9.564484    0.184395   -2.342847
     40          6           0       -7.854246   -2.750845   -1.161332
     41          8           0       -8.901605   -3.391285   -1.386858
     42          6           0       -6.594259   -3.339470   -0.406807
     43          6           0       -5.882483   -4.186746   -1.405974
     44          8           0       -5.194527   -3.838897   -2.364840
     45          8           0       -6.274240   -5.519657   -1.217658
     46          6           0       -5.607554   -6.548975   -2.058975
     47          6           0        1.461199   -3.951220    1.457709
     48          6           0        2.422109   -3.508747    0.367134
     49          6           0        3.788453   -3.700006    0.250531
     50          6           0        4.529433   -4.662395    1.229534
     51          6           0        4.559731   -2.993722   -0.822497
     52          6           0        5.049410   -1.574698   -0.428232
     53          6           0        6.382252   -1.209984   -0.959284
     54          6           0        6.590557    0.346401   -1.116614
     55          6           0        6.952431    0.750767   -2.605479
     56          6           0        7.704423    0.885900   -0.196021
     57          6           0        9.058876    0.129732   -0.445297
     58          6           0       10.298272    1.014202   -0.838343
     59          6           0       11.553031    0.551873   -0.094915
     60          6           0       11.673336    1.039663    1.316560
     61          6           0       12.785192    0.987215   -0.939356
     62          6           0       13.940037    0.014225   -0.807249
     63          6           0       15.078291    0.642217   -0.053042
     64          6           0       16.355683    0.909711   -0.858363
     65          6           0       16.153270    1.441248   -2.295098
     66          6           0       17.119129   -0.446242   -0.889287
     67          1           0       -1.983290   -0.239560    3.665636
     68          1           0       -2.982704    5.357081    0.710447
     69          1           0       -7.895068    2.677550   -2.489676
     70          1           0       -4.945256   -3.617779    2.242119
     71          1           0       -2.292315   -2.523504    3.052752
     72          1           0       -4.294389   -1.183755    4.430255
     73          1           0       -3.199531   -2.332233    5.011705
     74          1           0       -4.761546   -2.884053    4.485472
     75          1           0       -3.878099   -4.656105    0.191834
     76          1           0       -2.947687   -4.934786    1.680158
     77          1           0       -1.825069   -2.520799    0.474565
     78          1           0       -2.269672   -3.539530   -0.842181
     79          1           0       -0.320965    0.994015    4.160614
     80          1           0       -0.843426    2.399820    5.062979
     81          1           0        0.480749    2.617664    4.047305
     82          1           0       -1.146693    7.250037    2.913478
     83          1           0       -2.526353    6.351776    2.416862
     84          1           0       -1.128348    6.298020    1.252053
     85          1           0       -4.097471    5.331387   -2.036918
     86          1           0       -7.009855    5.134880   -1.481245
     87          1           0       -4.283529    7.402055   -1.170020
     88          1           0       -5.022517    6.678333    0.242018
     89          1           0       -6.027816    7.124372   -1.219977
     90          1           0       -7.387883    4.366599   -3.699289
     91          1           0       -5.780080    3.997312   -4.024739
     92          1           0       -7.044202    6.752697   -4.186876
     93          1           0       -5.622155    6.209607   -5.075147
     94          1           0       -5.516350    6.730618   -3.407429
     95          1           0       -9.341422   -0.320180   -3.282294
     96          1           0       -9.675564    1.254351   -2.518463
     97          1           0      -10.376919   -0.410954   -1.924445
     98          1           0       -6.993478   -3.960219    0.394836
     99          1           0       -5.924185   -7.456960   -1.546641
    100          1           0       -4.540958   -6.339214   -1.978380
    101          1           0       -6.018622   -6.553647   -3.068986
    102          1           0        1.471992   -5.029663    1.615873
    103          1           0        1.837586   -3.419300    2.331679
    104          1           0        1.946144   -2.887055   -0.391253
    105          1           0        5.240274   -5.298707    0.702545
    106          1           0        3.764563   -5.192514    1.797668
    107          1           0        4.965353   -3.888460    1.862085
    108          1           0        3.891725   -2.847636   -1.671980
    109          1           0        5.375288   -3.589240   -1.230925
    110          1           0        5.091955   -1.532094    0.660494
    111          1           0        4.393865   -0.786772   -0.800247
    112          1           0        6.526306   -1.722059   -1.909836
    113          1           0        7.032654   -1.687127   -0.226141
    114          1           0        5.634433    0.847554   -0.969343
    115          1           0        6.046287    1.003460   -3.154780
    116          1           0        7.393425   -0.029695   -3.226515
    117          1           0        7.660841    1.575578   -2.539695
    118          1           0        7.492289    0.711156    0.858599
    119          1           0        7.772522    1.969835   -0.285513
    120          1           0        8.895030   -0.618617   -1.220603
    121          1           0        9.298178   -0.309321    0.522785
    122          1           0       10.051703    1.995431   -0.431386
    123          1           0       10.476765    1.179589   -1.901782
    124          1           0       11.569932   -0.533754   -0.006509
    125          1           0       10.735377    1.197253    1.849863
    126          1           0       12.331961    1.906750    1.352659
    127          1           0       12.125925    0.228483    1.887573
    128          1           0       13.055582    1.985149   -0.592248
    129          1           0       12.486484    1.073766   -1.983199
    130          1           0       14.243996   -0.212284   -1.829831
    131          1           0       13.670068   -0.920842   -0.316039
    132          1           0       15.318595    0.137551    0.882978
    133          1           0       14.794699    1.602447    0.379199
    134          1           0       16.846564    1.553478   -0.128294
    135          1           0       15.166003    1.861550   -2.487051
    136          1           0       16.220223    0.636539   -3.026949
    137          1           0       16.952659    2.123658   -2.583764
    138          1           0       17.712827   -0.547591   -1.797580
    139          1           0       16.494209   -1.337751   -0.827572
    140          1           0       17.841719   -0.465418   -0.072993
 ---------------------------------------------------------------------

 SCF Done:  E(RwB97XD) =  -3007.86319313     A.U. after   17 cycles

 Excitation energies and oscillator strengths:

 Excited State   1:      Singlet-A      1.6265 eV  762.25 nm  f=0.3576  <S**2>=0.000
     245 -> 248        0.19034
     246 -> 247        0.68163
     245 <- 248        0.11829
 This state for optimization and/or second-order correction.
 Total Energy, E(TD-HF/TD-DFT) =  -3007.80341867
 Copying the excited state density for this state as the 1-particle RhoCI density.

 Excited State   2:      Singlet-A      2.1659 eV  572.42 nm  f=0.0669  <S**2>=0.000
     245 -> 247        0.61152
     246 -> 248       -0.34107

 Excited State   3:      Singlet-A      3.3344 eV  371.83 nm  f=0.0522  <S**2>=0.000
     242 -> 247       -0.35357
     242 -> 249       -0.21439
     242 -> 250       -0.17218
     243 -> 247        0.44931
     243 -> 249        0.10770
     246 -> 248        0.22992

 Excited State   4:      Singlet-A      3.3879 eV  365.96 nm  f=0.0352  <S**2>=0.000
     241 -> 247        0.10845
     242 -> 247        0.41341
     242 -> 249        0.21587
     242 -> 250        0.15657
     243 -> 247        0.40674
     246 -> 248        0.18571

 Excited State   5:      Singlet-A      3.4153 eV  363.02 nm  f=0.5641  <S**2>=0.000
     240 -> 247        0.11331
     241 -> 247       -0.24411
     243 -> 247       -0.26011
     245 -> 247        0.28561
     246 -> 248        0.50761

 The electronic state is 1-A.
 Alpha  occ. eigenvalues --  -46.95582 -19.30871 -19.29237 -19.24995 -19.24926
 Alpha  occ. eigenvalues --  -19.23821 -19.23632 -14.47760 -14.46967 -14.45200
 Alpha  occ. eigenvalues --  -14.43757 -10.43853 -10.43351 -10.39325 -10.39004
 Alpha  occ. eigenvalues --  -10.36281 -10.36002 -10.35944 -10.35825 -10.35778
 Alpha  occ. eigenvalues --  -10.35362 -10.35227 -10.34802 -10.33685 -10.33542
 Alpha  occ. eigenvalues --  -10.33405 -10.33387 -10.33233 -10.33042 -10.32903
 Alpha  occ. eigenvalues --  -10.32499 -10.32333 -10.32308 -10.32110 -10.32008
 Alpha  occ. eigenvalues --  -10.31918 -10.31690 -10.31470 -10.31116 -10.31059
 Alpha  occ. eigenvalues --  -10.30875 -10.30838 -10.30588 -10.30455 -10.30023
 Alpha  occ. eigenvalues --  -10.29979 -10.29964 -10.29919 -10.29804 -10.29402
 Alpha  occ. eigenvalues --  -10.29381 -10.29235 -10.29101 -10.28665 -10.28565
 Alpha  occ. eigenvalues --  -10.28469 -10.28438 -10.28399 -10.28213 -10.28191
 Alpha  occ. eigenvalues --  -10.28087 -10.27900 -10.27793 -10.27782 -10.27686
 Alpha  occ. eigenvalues --  -10.27552  -3.21594  -1.95175  -1.94701  -1.94583
 Alpha  occ. eigenvalues --   -1.18968  -1.16947  -1.11992  -1.10439  -1.09563
 Alpha  occ. eigenvalues --   -1.08887  -1.07594  -1.06459  -1.05891  -1.04644
 Alpha  occ. eigenvalues --   -0.95007  -0.92159  -0.91886  -0.91627  -0.90793
 Alpha  occ. eigenvalues --   -0.90250  -0.90215  -0.89491  -0.89374  -0.89281
 Alpha  occ. eigenvalues --   -0.89062  -0.87439  -0.86568  -0.85596  -0.85338
 Alpha  occ. eigenvalues --   -0.84288  -0.83967  -0.83481  -0.82733  -0.82613
 Alpha  occ. eigenvalues --   -0.81148  -0.80316  -0.79765  -0.79496  -0.78126
 Alpha  occ. eigenvalues --   -0.77849  -0.77458  -0.77454  -0.76748  -0.75671
 Alpha  occ. eigenvalues --   -0.75464  -0.74763  -0.74183  -0.72839  -0.71803
 Alpha  occ. eigenvalues --   -0.71180  -0.71010  -0.70003  -0.68468  -0.68113
 Alpha  occ. eigenvalues --   -0.67758  -0.67592  -0.66587  -0.66192  -0.65566
 Alpha  occ. eigenvalues --   -0.64920  -0.63681  -0.63674  -0.63085  -0.62319
 Alpha  occ. eigenvalues --   -0.61720  -0.61643  -0.61485  -0.60835  -0.60414
 Alpha  occ. eigenvalues --   -0.59717  -0.59451  -0.58394  -0.58050  -0.57607
 Alpha  occ. eigenvalues --   -0.57426  -0.57036  -0.56646  -0.56301  -0.56099
 Alpha  occ. eigenvalues --   -0.55847  -0.55646  -0.55514  -0.55099  -0.54769
 Alpha  occ. eigenvalues --   -0.54756  -0.54503  -0.54059  -0.54029  -0.53842
 Alpha  occ. eigenvalues --   -0.53492  -0.53236  -0.52915  -0.52663  -0.52557
 Alpha  occ. eigenvalues --   -0.52364  -0.51934  -0.51813  -0.51710  -0.51637
 Alpha  occ. eigenvalues --   -0.51414  -0.51291  -0.51157  -0.50989  -0.50683
 Alpha  occ. eigenvalues --   -0.50608  -0.50376  -0.50097  -0.49668  -0.49639
 Alpha  occ. eigenvalues --   -0.49408  -0.48977  -0.48923  -0.48673  -0.48548
 Alpha  occ. eigenvalues --   -0.48442  -0.48086  -0.47885  -0.47880  -0.47761
 Alpha  occ. eigenvalues --   -0.47715  -0.47407  -0.47220  -0.47126  -0.46787
 Alpha  occ. eigenvalues --   -0.46654  -0.46518  -0.46484  -0.46277  -0.46109
 Alpha  occ. eigenvalues --   -0.45805  -0.45759  -0.45531  -0.45240  -0.45065
 Alpha  occ. eigenvalues --   -0.44883  -0.44815  -0.44698  -0.44453  -0.44404
 Alpha  occ. eigenvalues --   -0.44239  -0.43718  -0.43489  -0.43270  -0.43039
 Alpha  occ. eigenvalues --   -0.42867  -0.42737  -0.42583  -0.42189  -0.42089
 Alpha  occ. eigenvalues --   -0.42000  -0.41709  -0.41346  -0.40847  -0.40549
 Alpha  occ. eigenvalues --   -0.40357  -0.40190  -0.39512  -0.39299  -0.39163
 Alpha  occ. eigenvalues --   -0.39153  -0.38965  -0.38541  -0.38445  -0.38276
 Alpha  occ. eigenvalues --   -0.38163  -0.37822  -0.37751  -0.36959  -0.36280
 Alpha  occ. eigenvalues --   -0.35957  -0.35887  -0.34828  -0.33853  -0.33062
 Alpha  occ. eigenvalues --   -0.32880  -0.32477  -0.31622  -0.30474  -0.26604
 Alpha  occ. eigenvalues --   -0.23266
 Alpha virt. eigenvalues --   -0.07424  -0.00948   0.01535   0.03738   0.05118
 Alpha virt. eigenvalues --    0.06404   0.06954   0.07352   0.08333   0.08858
 Alpha virt. eigenvalues --    0.10454   0.10875   0.11873   0.12311   0.12677

 Mulliken charges:
               1
     1  Mg   0.973923
     2  C   -0.005815
     3  C   -0.091612
     4  C   -0.078215
     5  C   -0.099233
     6  N   -0.292882
     7  C   -0.042138
     8  C    0.002761
     9  C   -0.145210
    10  C    0.012470
    11  C   -0.008152
    12  C    0.069927
    13  C   -0.045236
    14  C    0.217012
    15  O   -0.274489
    16  O   -0.347631
    17  N   -0.417840
    18  C    0.200454
    19  C   -0.150600
    20  C   -0.043719
    21  C    0.100036
    22  C    0.086529
    23  C   -0.012920
    24  O   -0.244511
    25  C    0.016814
    26  N   -0.435056
    27  C    0.159719
    28  C   -0.158711
    29  C   -0.069088
    30  C    0.073869
    31  C   -0.005591
    32  C   -0.011531
    33  C   -0.032050
    34  N   -0.433897
    35  C    0.169333
    36  C   -0.194588
    37  C   -0.014003
    38  C    0.138065
    39  C    0.105953
    40  C    0.095135
    41  O   -0.237869
    42  C   -0.084605
    43  C    0.263286
    44  O   -0.250466
    45  O   -0.401221
    46  C    0.145320
    47  C    0.260812
    48  C   -0.176448
    49  C   -0.241569
    50  C    0.046955
    51  C    0.047774
    52  C   -0.013905
    53  C   -0.010455
    54  C   -0.176671
    55  C   -0.019945
    56  C    0.010586
    57  C   -0.056768
    58  C    0.041029
    59  C   -0.208088
    60  C    0.019617
    61  C   -0.003760
    62  C    0.008527
    63  C   -0.030863
    64  C   -0.178567
    65  C   -0.000698
    66  C   -0.016666
    67  H    0.003092
    68  H   -0.031758
    69  H   -0.008304
    70  H    0.035083
    71  H    0.036542
    72  H    0.038200
    73  H    0.034406
    74  H    0.047147
    75  H    0.052590
    76  H    0.052782
    77  H    0.058946
    78  H    0.074379
    79  H    0.036294
    80  H    0.046803
    81  H    0.059631
    82  H    0.061323
    83  H    0.046774
    84  H    0.082076
    85  H    0.054487
    86  H    0.032555
    87  H    0.039684
    88  H    0.037783
    89  H    0.043954
    90  H    0.032202
    91  H    0.032694
    92  H    0.036165
    93  H    0.048276
    94  H    0.016789
    95  H    0.055855
    96  H    0.041110
    97  H    0.061693
    98  H    0.076471
    99  H    0.056753
   100  H    0.063562
   101  H    0.067399
   102  H    0.068867
   103  H    0.051032
   104  H    0.026020
   105  H    0.057363
   106  H    0.028987
   107  H    0.041228
   108  H    0.028857
   109  H    0.018388
   110  H    0.018439
   111  H    0.016806
   112  H    0.015040
   113  H    0.024277
   114  H    0.023188
   115  H    0.031390
   116  H    0.025923
   117  H    0.030560
   118  H    0.010817
   119  H    0.022652
   120  H    0.041150
   121  H    0.020389
   122  H   -0.000391
   123  H    0.018715
   124  H    0.016035
   125  H    0.025391
   126  H    0.027758
   127  H    0.019366
   128  H    0.017251
   129  H    0.010082
   130  H    0.016914
   131  H    0.022927
   132  H    0.006392
   133  H   -0.000652
   134  H    0.023305
   135  H    0.030458
   136  H    0.023696
   137  H    0.040926
   138  H    0.016655
   139  H    0.033190
   140  H    0.024543
 Sum of Mulliken charges =  -0.00000

 Dipole moment (field-independent basis, Debye):
    X=              0.8773    Y=              3.3177    Z=              1.9614  Tot=              3.9527
 Quadrupole moment (field-independent basis, Debye-Ang):
   XX=           -416.6846   YY=           -394.7581   ZZ=           -397.1043
   XY=            -39.4943   XZ=            -11.2332   YZ=            -32.0634

 Normal termination of Gaussian 16 at Thu Apr 28 04:22:13 2022.
