 Gaussian 16, Revision A.03,
 Gaussian 16:  ES64L-G16RevA.03 25-Dec-2016

 --------------------
 #p ZINDO=(nstates=5)
 --------------------

 ------------------------------
 step_1451_chromophore_11 ZINDO
 ------------------------------
 Symbolic Z-matrix:
 Charge =  0 Multiplicity = 1

                         Standard orientation:
 ---------------------------------------------------------------------
 Center     Atomic      Atomic             Coordinates (Angstroms)
 Number     Number       Type             X           Y           Z
 ---------------------------------------------------------------------
      1         12           0       -4.877308    1.252169    0.536359
      2          6           0       -5.799176   -2.103894   -0.044212
      3          6           0       -2.490757    0.184385    2.796594
      4          6           0       -3.503406    4.399199    0.656865
      5          6           0       -7.229516    2.218181   -1.754944
      6          7           0       -4.144378   -0.795568    1.209281
      7          6           0       -4.719574   -1.990419    0.922639
      8          6           0       -4.107939   -3.154287    1.719715
      9          6           0       -3.315074   -2.273055    2.771937
     10          6           0       -3.258420   -0.879469    2.197565
     11          6           0       -3.951151   -2.199448    4.233453
     12          6           0       -3.281668   -4.179061    0.968653
     13          6           0       -2.036830   -3.559858    0.222306
     14          6           0       -0.655676   -4.266312    0.397041
     15          8           0       -0.361968   -5.429958    0.066967
     16          8           0        0.196069   -3.420642    1.067956
     17          7           0       -3.225058    2.188740    1.577397
     18          6           0       -2.407489    1.539879    2.485177
     19          6           0       -1.505107    2.537629    3.060231
     20          6           0       -1.774207    3.812242    2.565193
     21          6           0       -2.825669    3.486871    1.548009
     22          6           0       -0.462605    2.072356    4.095726
     23          6           0       -1.096569    5.068492    2.928968
     24          8           0       -0.223281    5.093323    3.798521
     25          6           0       -1.444725    6.406933    2.288709
     26          7           0       -5.185175    2.928864   -0.551128
     27          6           0       -4.601226    4.167121   -0.210475
     28          6           0       -4.908693    5.205177   -1.319700
     29          6           0       -6.194028    4.599952   -1.968367
     30          6           0       -6.188909    3.129887   -1.437136
     31          6           0       -5.081405    6.734325   -0.844758
     32          6           0       -6.384823    4.762748   -3.538385
     33          6           0       -6.129000    6.165858   -4.110736
     34          7           0       -6.316725    0.328751   -0.605567
     35          6           0       -7.349479    0.876637   -1.318929
     36          6           0       -8.329722   -0.092836   -1.603872
     37          6           0       -7.733782   -1.323836   -1.191266
     38          6           0       -6.468772   -0.988700   -0.601333
     39          6           0       -9.564484    0.184395   -2.342847
     40          6           0       -7.854246   -2.750845   -1.161332
     41          8           0       -8.901605   -3.391285   -1.386858
     42          6           0       -6.594259   -3.339470   -0.406807
     43          6           0       -5.882483   -4.186746   -1.405974
     44          8           0       -5.194527   -3.838897   -2.364840
     45          8           0       -6.274240   -5.519657   -1.217658
     46          6           0       -5.607554   -6.548975   -2.058975
     47          6           0        1.461199   -3.951220    1.457709
     48          6           0        2.422109   -3.508747    0.367134
     49          6           0        3.788453   -3.700006    0.250531
     50          6           0        4.529433   -4.662395    1.229534
     51          6           0        4.559731   -2.993722   -0.822497
     52          6           0        5.049410   -1.574698   -0.428232
     53          6           0        6.382252   -1.209984   -0.959284
     54          6           0        6.590557    0.346401   -1.116614
     55          6           0        6.952431    0.750767   -2.605479
     56          6           0        7.704423    0.885900   -0.196021
     57          6           0        9.058876    0.129732   -0.445297
     58          6           0       10.298272    1.014202   -0.838343
     59          6           0       11.553031    0.551873   -0.094915
     60          6           0       11.673336    1.039663    1.316560
     61          6           0       12.785192    0.987215   -0.939356
     62          6           0       13.940037    0.014225   -0.807249
     63          6           0       15.078291    0.642217   -0.053042
     64          6           0       16.355683    0.909711   -0.858363
     65          6           0       16.153270    1.441248   -2.295098
     66          6           0       17.119129   -0.446242   -0.889287
     67          1           0       -1.983290   -0.239560    3.665636
     68          1           0       -2.982704    5.357081    0.710447
     69          1           0       -7.895068    2.677550   -2.489676
     70          1           0       -4.945256   -3.617779    2.242119
     71          1           0       -2.292315   -2.523504    3.052752
     72          1           0       -4.294389   -1.183755    4.430255
     73          1           0       -3.199531   -2.332233    5.011705
     74          1           0       -4.761546   -2.884053    4.485472
     75          1           0       -3.878099   -4.656105    0.191834
     76          1           0       -2.947687   -4.934786    1.680158
     77          1           0       -1.825069   -2.520799    0.474565
     78          1           0       -2.269672   -3.539530   -0.842181
     79          1           0       -0.320965    0.994015    4.160614
     80          1           0       -0.843426    2.399820    5.062979
     81          1           0        0.480749    2.617664    4.047305
     82          1           0       -1.146693    7.250037    2.913478
     83          1           0       -2.526353    6.351776    2.416862
     84          1           0       -1.128348    6.298020    1.252053
     85          1           0       -4.097471    5.331387   -2.036918
     86          1           0       -7.009855    5.134880   -1.481245
     87          1           0       -4.283529    7.402055   -1.170020
     88          1           0       -5.022517    6.678333    0.242018
     89          1           0       -6.027816    7.124372   -1.219977
     90          1           0       -7.387883    4.366599   -3.699289
     91          1           0       -5.780080    3.997312   -4.024739
     92          1           0       -7.044202    6.752697   -4.186876
     93          1           0       -5.622155    6.209607   -5.075147
     94          1           0       -5.516350    6.730618   -3.407429
     95          1           0       -9.341422   -0.320180   -3.282294
     96          1           0       -9.675564    1.254351   -2.518463
     97          1           0      -10.376919   -0.410954   -1.924445
     98          1           0       -6.993478   -3.960219    0.394836
     99          1           0       -5.924185   -7.456960   -1.546641
    100          1           0       -4.540958   -6.339214   -1.978380
    101          1           0       -6.018622   -6.553647   -3.068986
    102          1           0        1.471992   -5.029663    1.615873
    103          1           0        1.837586   -3.419300    2.331679
    104          1           0        1.946144   -2.887055   -0.391253
    105          1           0        5.240274   -5.298707    0.702545
    106          1           0        3.764563   -5.192514    1.797668
    107          1           0        4.965353   -3.888460    1.862085
    108          1           0        3.891725   -2.847636   -1.671980
    109          1           0        5.375288   -3.589240   -1.230925
    110          1           0        5.091955   -1.532094    0.660494
    111          1           0        4.393865   -0.786772   -0.800247
    112          1           0        6.526306   -1.722059   -1.909836
    113          1           0        7.032654   -1.687127   -0.226141
    114          1           0        5.634433    0.847554   -0.969343
    115          1           0        6.046287    1.003460   -3.154780
    116          1           0        7.393425   -0.029695   -3.226515
    117          1           0        7.660841    1.575578   -2.539695
    118          1           0        7.492289    0.711156    0.858599
    119          1           0        7.772522    1.969835   -0.285513
    120          1           0        8.895030   -0.618617   -1.220603
    121          1           0        9.298178   -0.309321    0.522785
    122          1           0       10.051703    1.995431   -0.431386
    123          1           0       10.476765    1.179589   -1.901782
    124          1           0       11.569932   -0.533754   -0.006509
    125          1           0       10.735377    1.197253    1.849863
    126          1           0       12.331961    1.906750    1.352659
    127          1           0       12.125925    0.228483    1.887573
    128          1           0       13.055582    1.985149   -0.592248
    129          1           0       12.486484    1.073766   -1.983199
    130          1           0       14.243996   -0.212284   -1.829831
    131          1           0       13.670068   -0.920842   -0.316039
    132          1           0       15.318595    0.137551    0.882978
    133          1           0       14.794699    1.602447    0.379199
    134          1           0       16.846564    1.553478   -0.128294
    135          1           0       15.166003    1.861550   -2.487051
    136          1           0       16.220223    0.636539   -3.026949
    137          1           0       16.952659    2.123658   -2.583764
    138          1           0       17.712827   -0.547591   -1.797580
    139          1           0       16.494209   -1.337751   -0.827572
    140          1           0       17.841719   -0.465418   -0.072993
 ---------------------------------------------------------------------

 SCF Done:  E(RZINDO/S) =  -474.185530071     A.U. after   20 cycles

 Excitation energies and oscillator strengths:

 Excited State   1:      Singlet-A      1.2625 eV  982.06 nm  f=0.5601  <S**2>=0.000
     175 ->178        -0.18685
     176 ->177         0.66315
 This state for optimization and/or second-order correction.
 Total Energy, E(CIS/TDA) =  -474.139134222
 Copying the excited state density for this state as the 1-particle RhoCI density.

 Excited State   2:      Singlet-A      1.8600 eV  666.60 nm  f=0.0057  <S**2>=0.000
     175 ->177         0.49585
     176 ->178         0.47753

 Excited State   3:      Singlet-A      2.8220 eV  439.35 nm  f=0.0838  <S**2>=0.000
     169 ->179         0.10436
     171 ->177         0.19708
     171 ->179         0.20316
     171 ->180         0.20776
     171 ->185         0.10346
     175 ->177        -0.13577
     176 ->178         0.15104
     176 ->179         0.41749
     176 ->180         0.13961

 Excited State   4:      Singlet-A      2.9094 eV  426.15 nm  f=0.1195  <S**2>=0.000
     169 ->177        -0.12120
     169 ->179        -0.11931
     169 ->180        -0.15557
     171 ->177        -0.18678
     171 ->179        -0.20550
     171 ->180        -0.17445
     175 ->177        -0.12686
     176 ->178         0.13679
     176 ->179         0.40704

 Excited State   5:      Singlet-A      2.9171 eV  425.03 nm  f=0.4592  <S**2>=0.000
     168 ->177         0.20340
     168 ->178         0.10564
     168 ->179        -0.29208
     168 ->180         0.21644
     168 ->183        -0.10873
     168 ->185        -0.17715
     175 ->177        -0.28963
     176 ->178         0.31850
     176 ->179        -0.12972

 The electronic state is 1-A.
 Alpha  occ. eigenvalues --   -1.85326  -1.81539  -1.79606  -1.73703  -1.71589
 Alpha  occ. eigenvalues --   -1.70328  -1.67575  -1.62748  -1.60057  -1.57427
 Alpha  occ. eigenvalues --   -1.56046  -1.50913  -1.47934  -1.47592  -1.46599
 Alpha  occ. eigenvalues --   -1.43253  -1.42667  -1.40105  -1.38356  -1.38330
 Alpha  occ. eigenvalues --   -1.35260  -1.34474  -1.32564  -1.31304  -1.27762
 Alpha  occ. eigenvalues --   -1.26212  -1.23944  -1.23097  -1.21102  -1.18031
 Alpha  occ. eigenvalues --   -1.17494  -1.17166  -1.15806  -1.14494  -1.14229
 Alpha  occ. eigenvalues --   -1.14052  -1.10485  -1.10125  -1.04232  -1.03359
 Alpha  occ. eigenvalues --   -1.02764  -1.02285  -1.00476  -0.98701  -0.97610
 Alpha  occ. eigenvalues --   -0.96157  -0.95529  -0.93734  -0.91619  -0.91461
 Alpha  occ. eigenvalues --   -0.90584  -0.90430  -0.87900  -0.86392  -0.85607
 Alpha  occ. eigenvalues --   -0.84539  -0.83938  -0.83565  -0.81385  -0.80655
 Alpha  occ. eigenvalues --   -0.80018  -0.78977  -0.78766  -0.77985  -0.76621
 Alpha  occ. eigenvalues --   -0.76573  -0.75948  -0.74901  -0.74078  -0.73998
 Alpha  occ. eigenvalues --   -0.73712  -0.73384  -0.72013  -0.71157  -0.70486
 Alpha  occ. eigenvalues --   -0.70187  -0.69451  -0.68725  -0.67831  -0.67670
 Alpha  occ. eigenvalues --   -0.67521  -0.67230  -0.66656  -0.66287  -0.65847
 Alpha  occ. eigenvalues --   -0.65206  -0.64915  -0.64222  -0.64035  -0.63940
 Alpha  occ. eigenvalues --   -0.63398  -0.62568  -0.62093  -0.62016  -0.61791
 Alpha  occ. eigenvalues --   -0.61306  -0.60865  -0.60560  -0.59958  -0.59858
 Alpha  occ. eigenvalues --   -0.59702  -0.59397  -0.59306  -0.59270  -0.58548
 Alpha  occ. eigenvalues --   -0.57904  -0.57555  -0.57096  -0.56509  -0.56281
 Alpha  occ. eigenvalues --   -0.55840  -0.55475  -0.55309  -0.54893  -0.54468
 Alpha  occ. eigenvalues --   -0.54380  -0.54285  -0.53975  -0.53814  -0.53127
 Alpha  occ. eigenvalues --   -0.52979  -0.52433  -0.52289  -0.51916  -0.51663
 Alpha  occ. eigenvalues --   -0.51556  -0.51133  -0.50816  -0.50462  -0.50175
 Alpha  occ. eigenvalues --   -0.49740  -0.49588  -0.49397  -0.49165  -0.49008
 Alpha  occ. eigenvalues --   -0.48756  -0.48375  -0.48338  -0.48174  -0.47953
 Alpha  occ. eigenvalues --   -0.47836  -0.47159  -0.47091  -0.46811  -0.46735
 Alpha  occ. eigenvalues --   -0.46565  -0.46097  -0.45896  -0.45554  -0.45492
 Alpha  occ. eigenvalues --   -0.45401  -0.45277  -0.44774  -0.44669  -0.44294
 Alpha  occ. eigenvalues --   -0.44228  -0.43340  -0.43095  -0.43064  -0.42522
 Alpha  occ. eigenvalues --   -0.41614  -0.41250  -0.40153  -0.39094  -0.38920
 Alpha  occ. eigenvalues --   -0.38591  -0.37339  -0.35935  -0.35284  -0.34473
 Alpha  occ. eigenvalues --   -0.34226  -0.32617  -0.31692  -0.30719  -0.27106
 Alpha  occ. eigenvalues --   -0.22001
 Alpha virt. eigenvalues --   -0.08615  -0.03192  -0.01366   0.00548   0.01383
 Alpha virt. eigenvalues --    0.01836   0.02383   0.02625   0.03930   0.05043
 Alpha virt. eigenvalues --    0.05422   0.06370   0.06882   0.07353   0.07556

 Mulliken charges:
               1
     1  Mg   0.431020
     2  C   -0.030804
     3  C   -0.068358
     4  C   -0.105203
     5  C   -0.079192
     6  N   -0.257710
     7  C    0.085779
     8  C    0.015546
     9  C    0.002017
    10  C    0.151623
    11  C   -0.057083
    12  C   -0.004231
    13  C    0.001624
    14  C    0.462588
    15  O   -0.519027
    16  O   -0.264192
    17  N   -0.326770
    18  C    0.115682
    19  C    0.067260
    20  C   -0.041715
    21  C    0.143462
    22  C   -0.045264
    23  C    0.331702
    24  O   -0.533486
    25  C   -0.033024
    26  N   -0.272903
    27  C    0.132538
    28  C   -0.006044
    29  C   -0.003680
    30  C    0.105180
    31  C   -0.064928
    32  C   -0.027843
    33  C   -0.054980
    34  N   -0.313122
    35  C    0.091121
    36  C    0.030895
    37  C   -0.064816
    38  C    0.103659
    39  C   -0.042053
    40  C    0.326580
    41  O   -0.539744
    42  C    0.067596
    43  C    0.483729
    44  O   -0.523489
    45  O   -0.290077
    46  C    0.074734
    47  C    0.110247
    48  C   -0.103438
    49  C   -0.018241
    50  C   -0.051935
    51  C   -0.015522
    52  C   -0.027465
    53  C   -0.033300
    54  C   -0.013088
    55  C   -0.064534
    56  C   -0.031794
    57  C   -0.042394
    58  C   -0.040506
    59  C   -0.008750
    60  C   -0.053109
    61  C   -0.037265
    62  C   -0.028054
    63  C   -0.030929
    64  C   -0.010340
    65  C   -0.049514
    66  C   -0.057961
    67  H    0.030433
    68  H    0.029440
    69  H    0.027048
    70  H    0.028945
    71  H    0.030350
    72  H    0.020217
    73  H    0.016721
    74  H    0.027108
    75  H    0.035856
    76  H    0.029793
    77  H    0.034295
    78  H    0.048711
    79  H    0.027564
    80  H    0.033058
    81  H    0.043936
    82  H    0.050787
    83  H    0.030477
    84  H    0.054091
    85  H    0.037206
    86  H    0.027122
    87  H    0.020799
    88  H    0.019576
    89  H    0.026961
    90  H    0.019894
    91  H    0.021939
    92  H    0.018494
    93  H    0.024741
    94  H    0.018067
    95  H    0.034968
    96  H    0.032530
    97  H    0.043632
    98  H    0.062769
    99  H    0.031631
   100  H    0.050575
   101  H    0.053839
   102  H    0.061695
   103  H    0.037321
   104  H    0.028202
   105  H    0.038686
   106  H    0.027640
   107  H    0.032266
   108  H    0.018219
   109  H    0.021796
   110  H    0.016305
   111  H    0.020860
   112  H    0.019489
   113  H    0.017882
   114  H    0.021424
   115  H    0.015169
   116  H    0.018665
   117  H    0.021087
   118  H    0.008354
   119  H    0.019664
   120  H    0.025770
   121  H    0.021042
   122  H    0.010924
   123  H    0.027411
   124  H    0.017095
   125  H    0.018528
   126  H    0.023609
   127  H    0.008491
   128  H    0.022001
   129  H    0.012899
   130  H    0.017111
   131  H    0.020658
   132  H    0.010504
   133  H    0.003041
   134  H    0.023897
   135  H    0.021357
   136  H    0.016486
   137  H    0.018458
   138  H    0.009827
   139  H    0.023466
   140  H    0.012419
 Sum of Mulliken charges =  -0.00000

 Dipole moment (field-independent basis, Debye):
    X=              2.1393    Y=              5.3030    Z=              4.5909  Tot=              7.3331
 N-N= 4.307116181176D+03 E-N= 0.000000000000D+00  KE=-9.288144635497D+03
 Leave Link  601 at Thu Apr 28 04:37:25 2022, MaxMem=  6710886400 cpu:               2.2 elap:               0.1
 (Enter /sw/apps/gaussian-16.0/g16/l9999.exe)
 1\1\GINC-BP1-COMPUTE142\SP\RZINDO CIS\STO-3G\C55H74Mg1N4O6\OF15641\28-
 Apr-2022\0\\#p ZINDO=(nstates=5)\\step_1451_chromophore_11 ZINDO\\0,1\
 Mg,0,52.956,24.421,44.386\C,0,50.123,26.452,43.839\C,0,51.125,21.647,4
 3.439\C,0,55.809,22.51,44.266\C,0,54.709,27.228,45.26\N,0,50.843,24.11
 9,43.594\C,0,49.859,25.052,43.55\C,0,48.491,24.46,43.173\C,0,48.877,22
 .936,43.375\C,0,50.384,22.884,43.413\C,0,48.307,22.246,44.696\C,0,47.9
 07,24.814,41.82\C,0,48.827,24.396,40.608\C,0,48.163,23.639,39.415\O,0,

 Normal termination of Gaussian 16 at Thu Apr 28 04:37:25 2022.
