 Gaussian 16, Revision A.03,
 Gaussian 16:  ES64L-G16RevA.03 25-Dec-2016

 ------------------------------
 #p blyp/Def2SVP td=(nstates=5)
 ------------------------------

 --------------------------------------------------
 step_201_chromophore_16 TDDFT with blyp functional
 --------------------------------------------------
 Symbolic Z-matrix:
 Charge =  0 Multiplicity = 1

                         Standard orientation:
 ---------------------------------------------------------------------
 Center     Atomic      Atomic             Coordinates (Angstroms)
 Number     Number       Type             X           Y           Z
 ---------------------------------------------------------------------
      1         12           0        6.178557    0.623035    0.196419
      2          6           0        3.946357   -2.090539   -0.040926
      3          6           0        3.611731    2.672971   -0.975444
      4          6           0        8.374300    2.990473    0.234943
      5          6           0        8.647598   -1.796826    1.009254
      6          7           0        4.020199    0.335690   -0.380710
      7          6           0        3.331947   -0.850625   -0.315650
      8          6           0        1.825325   -0.650016   -0.708495
      9          6           0        1.747650    0.882370   -1.047508
     10          6           0        3.175822    1.359290   -0.732311
     11          6           0        1.204211    1.062154   -2.481745
     12          6           0        0.769649   -1.034477    0.387309
     13          6           0       -0.559828   -0.306063    0.405534
     14          6           0       -1.769193   -1.169076    0.854485
     15          8           0       -2.109438   -1.454195    1.998493
     16          8           0       -2.321570   -1.779130   -0.210906
     17          7           0        5.989333    2.626253   -0.305859
     18          6           0        4.889748    3.247828   -0.738247
     19          6           0        5.259143    4.662573   -1.047568
     20          6           0        6.670649    4.818551   -0.680173
     21          6           0        7.083103    3.460567   -0.216137
     22          6           0        4.176983    5.676110   -1.408508
     23          6           0        7.591288    6.025230   -0.832739
     24          8           0        8.794474    5.967590   -0.497520
     25          6           0        7.012159    7.275645   -1.436211
     26          7           0        8.232657    0.605119    0.618251
     27          6           0        8.935841    1.742065    0.537484
     28          6           0       10.350970    1.509225    0.929758
     29          6           0       10.301272    0.060279    1.544750
     30          6           0        8.940429   -0.429190    1.109405
     31          6           0       11.466321    1.712248   -0.192366
     32          6           0       10.454000   -0.013340    3.053520
     33          6           0        9.344572    0.617111    4.044261
     34          7           0        6.311687   -1.469151    0.306936
     35          6           0        7.431266   -2.363517    0.495295
     36          6           0        7.031425   -3.706851    0.311699
     37          6           0        5.673772   -3.591788    0.182989
     38          6           0        5.290488   -2.286542    0.190736
     39          6           0        7.863939   -4.967903    0.457197
     40          6           0        4.468211   -4.525433    0.090894
     41          8           0        4.345050   -5.734983    0.107113
     42          6           0        3.262886   -3.501407   -0.046379
     43          6           0        2.621168   -3.777980   -1.289002
     44          8           0        3.181347   -3.637338   -2.404697
     45          8           0        1.415249   -4.446798   -1.101711
     46          6           0        0.850030   -5.145531   -2.307277
     47          6           0       -3.164398   -2.963579   -0.008528
     48          6           0       -4.660036   -2.644570    0.082852
     49          6           0       -5.760679   -3.414811    0.194517
     50          6           0       -5.617900   -4.910599    0.477333
     51          6           0       -7.070070   -2.627639    0.308440
     52          6           0       -7.520198   -1.763218   -0.831710
     53          6           0       -7.786392   -0.293213   -0.471549
     54          6           0       -8.897279    0.387577   -1.267739
     55          6           0       -8.462459    1.816866   -1.837720
     56          6           0      -10.103268    0.663273   -0.378028
     57          6           0      -11.424574    0.162779   -1.066149
     58          6           0      -12.540727    1.243378   -1.168052
     59          6           0      -14.046284    0.717460   -1.144003
     60          6           0      -14.408364   -0.131720   -2.371935
     61          6           0      -15.109356    1.843714   -0.944278
     62          6           0      -15.693581    1.831549    0.487525
     63          6           0      -15.001781    2.743424    1.495241
     64          6           0      -15.017362    2.123645    2.991244
     65          6           0      -13.706387    1.394343    3.359638
     66          6           0      -15.373640    3.209603    4.044036
     67          1           0        2.812085    3.364602   -1.248412
     68          1           0        9.085476    3.818297    0.248686
     69          1           0        9.465796   -2.376368    1.441979
     70          1           0        1.623957   -1.256110   -1.592011
     71          1           0        1.106435    1.412453   -0.342740
     72          1           0        0.202197    1.488670   -2.428814
     73          1           0        1.101415    0.162722   -3.088771
     74          1           0        1.832885    1.775391   -3.014375
     75          1           0        1.359331   -0.883053    1.290559
     76          1           0        0.511400   -2.092412    0.343987
     77          1           0       -0.697915    0.034026   -0.620700
     78          1           0       -0.412268    0.573024    1.033943
     79          1           0        4.293633    6.092131   -2.409915
     80          1           0        4.269337    6.456876   -0.654121
     81          1           0        3.131152    5.371398   -1.445790
     82          1           0        6.710040    7.193736   -2.480366
     83          1           0        7.840971    7.973717   -1.320648
     84          1           0        6.236401    7.660258   -0.773348
     85          1           0       10.563031    2.167681    1.771358
     86          1           0       10.975950   -0.549208    0.944764
     87          1           0       12.140167    2.515054    0.105057
     88          1           0       10.878406    1.970505   -1.074185
     89          1           0       11.976085    0.777943   -0.428776
     90          1           0       11.413050    0.449542    3.285523
     91          1           0       10.494831   -1.070337    3.317357
     92          1           0        9.761309    1.463529    4.590546
     93          1           0        9.083634   -0.119962    4.803460
     94          1           0        8.539550    0.904433    3.367597
     95          1           0        8.927878   -4.857438    0.666265
     96          1           0        7.779200   -5.571171   -0.446954
     97          1           0        7.425843   -5.535674    1.277795
     98          1           0        2.523056   -3.562759    0.752253
     99          1           0        1.575637   -5.543130   -3.017620
    100          1           0        0.260832   -4.428352   -2.878267
    101          1           0        0.133431   -5.884295   -1.947796
    102          1           0       -2.918399   -3.519766    0.896292
    103          1           0       -2.945306   -3.725049   -0.757390
    104          1           0       -4.834940   -1.576095   -0.037643
    105          1           0       -6.453941   -5.448422    0.029408
    106          1           0       -5.928845   -5.107419    1.502742
    107          1           0       -4.677108   -5.348436    0.140687
    108          1           0       -7.112860   -2.188772    1.304851
    109          1           0       -7.841967   -3.396188    0.357977
    110          1           0       -8.361792   -2.215454   -1.357455
    111          1           0       -6.598052   -1.713159   -1.410258
    112          1           0       -6.881512    0.242290   -0.757736
    113          1           0       -7.957937   -0.194720    0.601106
    114          1           0       -9.104096   -0.249749   -2.128366
    115          1           0       -7.484416    1.730246   -2.309411
    116          1           0       -8.215555    2.456743   -0.989278
    117          1           0       -9.180231    2.303502   -2.498036
    118          1           0      -10.175951    1.715509   -0.102194
    119          1           0      -10.155034    0.023406    0.502733
    120          1           0      -11.798560   -0.695098   -0.507687
    121          1           0      -11.162812   -0.186903   -2.063986
    122          1           0      -12.439259    1.680311   -2.160616
    123          1           0      -12.372044    1.994146   -0.395666
    124          1           0      -14.073860    0.033127   -0.296704
    125          1           0      -14.764573   -1.112453   -2.056951
    126          1           0      -13.523850   -0.340110   -2.973624
    127          1           0      -15.140534    0.260731   -3.078165
    128          1           0      -15.940755    1.788128   -1.646899
    129          1           0      -14.625235    2.786739   -1.197345
    130          1           0      -15.765673    0.791060    0.804896
    131          1           0      -16.751807    2.060396    0.363049
    132          1           0      -15.468966    3.728225    1.501676
    133          1           0      -13.976740    2.828064    1.134505
    134          1           0      -15.810067    1.391068    3.141528
    135          1           0      -13.946315    0.363175    3.617973
    136          1           0      -13.196217    1.793220    4.237114
    137          1           0      -12.904198    1.515767    2.632081
    138          1           0      -16.424263    3.120284    4.322834
    139          1           0      -15.167563    4.239320    3.752159
    140          1           0      -14.766673    3.058559    4.936961
 ---------------------------------------------------------------------

 SCF Done:  E(RB-LYP) =  -3007.38003379     A.U. after   20 cycles

 Excitation energies and oscillator strengths:

 Excited State   1:      Singlet-A      1.8394 eV  674.04 nm  f=0.3041  <S**2>=0.000
     245 -> 248       -0.17591
     245 -> 249        0.11461
     246 -> 247        0.68318
     246 <- 247       -0.14260
 This state for optimization and/or second-order correction.
 Total Energy, E(TD-HF/TD-DFT) =  -3007.31243664
 Copying the excited state density for this state as the 1-particle RhoCI density.

 Excited State   2:      Singlet-A      1.9951 eV  621.46 nm  f=0.0932  <S**2>=0.000
     244 -> 247       -0.10879
     245 -> 247        0.64693
     246 -> 248        0.19863
     246 -> 249       -0.12092

 Excited State   3:      Singlet-A      2.0789 eV  596.41 nm  f=0.0026  <S**2>=0.000
     244 -> 247        0.69788

 Excited State   4:      Singlet-A      2.2175 eV  559.11 nm  f=0.0000  <S**2>=0.000
     242 -> 247        0.69771
     243 -> 247        0.11466

 Excited State   5:      Singlet-A      2.2225 eV  557.85 nm  f=0.0003  <S**2>=0.000
     242 -> 247       -0.11489
     243 -> 247        0.69590

 The electronic state is 1-A.
 Alpha  occ. eigenvalues --  -46.26994 -18.82643 -18.82349 -18.77173 -18.76547
 Alpha  occ. eigenvalues --  -18.76136 -18.76021 -14.03574 -14.02696 -14.01369
 Alpha  occ. eigenvalues --  -14.00471 -10.04530 -10.03504 -10.00917 -10.00374
 Alpha  occ. eigenvalues --   -9.98590  -9.97949  -9.96858  -9.96668  -9.96596
 Alpha  occ. eigenvalues --   -9.96243  -9.95954  -9.95750  -9.95715  -9.94894
 Alpha  occ. eigenvalues --   -9.94315  -9.94217  -9.94020  -9.93923  -9.93641
 Alpha  occ. eigenvalues --   -9.93596  -9.93539  -9.93502  -9.93385  -9.93251
 Alpha  occ. eigenvalues --   -9.93222  -9.93151  -9.93098  -9.93077  -9.92916
 Alpha  occ. eigenvalues --   -9.92796  -9.92758  -9.92610  -9.92585  -9.92486
 Alpha  occ. eigenvalues --   -9.92455  -9.92324  -9.92228  -9.92188  -9.91890
 Alpha  occ. eigenvalues --   -9.91709  -9.91623  -9.91532  -9.91309  -9.91262
 Alpha  occ. eigenvalues --   -9.91136  -9.91069  -9.90985  -9.90883  -9.90830
 Alpha  occ. eigenvalues --   -9.90732  -9.90647  -9.90628  -9.90570  -9.90399
 Alpha  occ. eigenvalues --   -9.90378  -2.91618  -1.72061  -1.71497  -1.71321
 Alpha  occ. eigenvalues --   -0.98623  -0.96088  -0.92486  -0.90488  -0.89450
 Alpha  occ. eigenvalues --   -0.88051  -0.87157  -0.86404  -0.85645  -0.84844
 Alpha  occ. eigenvalues --   -0.75110  -0.73801  -0.73287  -0.72377  -0.72189
 Alpha  occ. eigenvalues --   -0.71650  -0.71331  -0.70881  -0.70337  -0.70066
 Alpha  occ. eigenvalues --   -0.69711  -0.69245  -0.68150  -0.67469  -0.66842
 Alpha  occ. eigenvalues --   -0.66315  -0.65837  -0.65529  -0.65118  -0.64332
 Alpha  occ. eigenvalues --   -0.64053  -0.62529  -0.62297  -0.61770  -0.61029
 Alpha  occ. eigenvalues --   -0.60701  -0.60233  -0.59739  -0.59108  -0.58816
 Alpha  occ. eigenvalues --   -0.58571  -0.58077  -0.57267  -0.55800  -0.55294
 Alpha  occ. eigenvalues --   -0.53894  -0.53494  -0.52700  -0.52197  -0.51430
 Alpha  occ. eigenvalues --   -0.51301  -0.50776  -0.50344  -0.50208  -0.49855
 Alpha  occ. eigenvalues --   -0.49671  -0.49485  -0.48754  -0.47875  -0.46638
 Alpha  occ. eigenvalues --   -0.46498  -0.46411  -0.45900  -0.45407  -0.44609
 Alpha  occ. eigenvalues --   -0.44188  -0.43886  -0.43061  -0.42780  -0.42273
 Alpha  occ. eigenvalues --   -0.42095  -0.41994  -0.41630  -0.41371  -0.40827
 Alpha  occ. eigenvalues --   -0.40526  -0.40413  -0.40079  -0.40029  -0.39796
 Alpha  occ. eigenvalues --   -0.39653  -0.39473  -0.39273  -0.39168  -0.39064
 Alpha  occ. eigenvalues --   -0.38805  -0.38779  -0.38321  -0.38098  -0.37972
 Alpha  occ. eigenvalues --   -0.37819  -0.37771  -0.37465  -0.37251  -0.37191
 Alpha  occ. eigenvalues --   -0.36759  -0.36664  -0.36604  -0.36552  -0.36411
 Alpha  occ. eigenvalues --   -0.36234  -0.35999  -0.35960  -0.35709  -0.35603
 Alpha  occ. eigenvalues --   -0.35357  -0.35186  -0.35158  -0.34813  -0.34749
 Alpha  occ. eigenvalues --   -0.34531  -0.34520  -0.34436  -0.34224  -0.33995
 Alpha  occ. eigenvalues --   -0.33965  -0.33900  -0.33642  -0.33313  -0.33174
 Alpha  occ. eigenvalues --   -0.33016  -0.32690  -0.32612  -0.32519  -0.32381
 Alpha  occ. eigenvalues --   -0.32230  -0.31799  -0.31693  -0.31585  -0.31298
 Alpha  occ. eigenvalues --   -0.31278  -0.31164  -0.30837  -0.30653  -0.30607
 Alpha  occ. eigenvalues --   -0.30452  -0.30406  -0.30234  -0.30023  -0.29954
 Alpha  occ. eigenvalues --   -0.29816  -0.29633  -0.29554  -0.29424  -0.28662
 Alpha  occ. eigenvalues --   -0.28489  -0.28379  -0.28279  -0.27668  -0.27517
 Alpha  occ. eigenvalues --   -0.27437  -0.27112  -0.26930  -0.26860  -0.26392
 Alpha  occ. eigenvalues --   -0.26203  -0.25837  -0.25507  -0.25385  -0.25357
 Alpha  occ. eigenvalues --   -0.24980  -0.24688  -0.24355  -0.23790  -0.23489
 Alpha  occ. eigenvalues --   -0.23365  -0.22184  -0.21652  -0.21254  -0.20945
 Alpha  occ. eigenvalues --   -0.20599  -0.19798  -0.19706  -0.19198  -0.17206
 Alpha  occ. eigenvalues --   -0.16073
 Alpha virt. eigenvalues --   -0.11648  -0.07100  -0.06285  -0.05060  -0.03226
 Alpha virt. eigenvalues --   -0.03181  -0.01950  -0.01857  -0.01283  -0.00141
 Alpha virt. eigenvalues --    0.01148   0.01365   0.02349   0.02660   0.02840

 Mulliken charges:
               1
     1  Mg   0.687712
     2  C   -0.018422
     3  C   -0.056894
     4  C   -0.014019
     5  C   -0.058748
     6  N   -0.201335
     7  C   -0.076658
     8  C   -0.023459
     9  C    0.017345
    10  C    0.008394
    11  C    0.127257
    12  C    0.060087
    13  C    0.157278
    14  C    0.080237
    15  O   -0.187728
    16  O   -0.252950
    17  N   -0.277884
    18  C    0.125417
    19  C   -0.137831
    20  C    0.042736
    21  C    0.066210
    22  C    0.144150
    23  C   -0.074799
    24  O   -0.180782
    25  C    0.131128
    26  N   -0.211899
    27  C    0.015384
    28  C    0.011731
    29  C    0.033176
    30  C   -0.037606
    31  C    0.143744
    32  C    0.086373
    33  C    0.048220
    34  N   -0.263282
    35  C    0.136030
    36  C   -0.172814
    37  C    0.020466
    38  C    0.140889
    39  C    0.174513
    40  C    0.017864
    41  O   -0.108286
    42  C    0.093579
    43  C    0.119347
    44  O   -0.228150
    45  O   -0.290045
    46  C    0.222091
    47  C    0.312748
    48  C   -0.104813
    49  C   -0.179140
    50  C    0.157860
    51  C    0.149124
    52  C    0.083923
    53  C    0.113276
    54  C   -0.087479
    55  C    0.081047
    56  C    0.129913
    57  C    0.044165
    58  C    0.068636
    59  C   -0.061236
    60  C    0.101060
    61  C    0.107116
    62  C    0.056613
    63  C    0.148530
    64  C   -0.093666
    65  C    0.099010
    66  C    0.084595
    67  H   -0.067304
    68  H   -0.048899
    69  H   -0.059968
    70  H    0.003972
    71  H   -0.016566
    72  H   -0.009504
    73  H    0.004574
    74  H   -0.012187
    75  H   -0.020684
    76  H   -0.001864
    77  H   -0.020165
    78  H   -0.002649
    79  H   -0.002347
    80  H    0.012641
    81  H   -0.011215
    82  H    0.026754
    83  H   -0.012921
    84  H    0.004618
    85  H   -0.028823
    86  H   -0.038131
    87  H    0.011077
    88  H   -0.004281
    89  H   -0.007707
    90  H   -0.019627
    91  H   -0.024677
    92  H   -0.002078
    93  H    0.001356
    94  H    0.019273
    95  H   -0.016026
    96  H    0.009129
    97  H    0.009618
    98  H   -0.006294
    99  H    0.032063
   100  H    0.002360
   101  H    0.016189
   102  H    0.002083
   103  H    0.000456
   104  H   -0.029632
   105  H   -0.029757
   106  H   -0.002315
   107  H    0.000636
   108  H   -0.006092
   109  H   -0.064354
   110  H   -0.017864
   111  H   -0.027699
   112  H   -0.046630
   113  H   -0.028480
   114  H   -0.028172
   115  H   -0.025983
   116  H   -0.019379
   117  H   -0.002389
   118  H   -0.023092
   119  H   -0.031919
   120  H   -0.036375
   121  H   -0.027639
   122  H   -0.032607
   123  H   -0.022118
   124  H   -0.034977
   125  H   -0.021524
   126  H   -0.031108
   127  H   -0.014729
   128  H   -0.042584
   129  H   -0.040504
   130  H   -0.034080
   131  H   -0.047238
   132  H   -0.027364
   133  H   -0.032988
   134  H   -0.029317
   135  H   -0.009528
   136  H   -0.029536
   137  H   -0.016425
   138  H   -0.013905
   139  H   -0.015490
   140  H   -0.028137
 Sum of Mulliken charges =  -0.00000

 Dipole moment (field-independent basis, Debye):
    X=             -1.8739    Y=              1.3308    Z=             -0.3079  Tot=              2.3189
 Quadrupole moment (field-independent basis, Debye-Ang):
   XX=           -391.7461   YY=           -411.2200   ZZ=           -408.9471
   XY=              3.2586   XZ=             20.1879   YZ=             -3.1972

 Normal termination of Gaussian 16 at Fri Apr 29 08:45:05 2022.
