 Gaussian 16, Revision A.03,
 Gaussian 16:  ES64L-G16RevA.03 25-Dec-2016

 -----------------------------------
 #p cam-b3lyp/Def2SVP td=(nstates=5)
 -----------------------------------

 -------------------------------------------------------
 step_201_chromophore_16 TDDFT with cam-b3lyp functional
 -------------------------------------------------------
 Symbolic Z-matrix:
 Charge =  0 Multiplicity = 1

                         Standard orientation:
 ---------------------------------------------------------------------
 Center     Atomic      Atomic             Coordinates (Angstroms)
 Number     Number       Type             X           Y           Z
 ---------------------------------------------------------------------
      1         12           0        6.178557    0.623035    0.196419
      2          6           0        3.946357   -2.090539   -0.040926
      3          6           0        3.611731    2.672971   -0.975444
      4          6           0        8.374300    2.990473    0.234943
      5          6           0        8.647598   -1.796826    1.009254
      6          7           0        4.020199    0.335690   -0.380710
      7          6           0        3.331947   -0.850625   -0.315650
      8          6           0        1.825325   -0.650016   -0.708495
      9          6           0        1.747650    0.882370   -1.047508
     10          6           0        3.175822    1.359290   -0.732311
     11          6           0        1.204211    1.062154   -2.481745
     12          6           0        0.769649   -1.034477    0.387309
     13          6           0       -0.559828   -0.306063    0.405534
     14          6           0       -1.769193   -1.169076    0.854485
     15          8           0       -2.109438   -1.454195    1.998493
     16          8           0       -2.321570   -1.779130   -0.210906
     17          7           0        5.989333    2.626253   -0.305859
     18          6           0        4.889748    3.247828   -0.738247
     19          6           0        5.259143    4.662573   -1.047568
     20          6           0        6.670649    4.818551   -0.680173
     21          6           0        7.083103    3.460567   -0.216137
     22          6           0        4.176983    5.676110   -1.408508
     23          6           0        7.591288    6.025230   -0.832739
     24          8           0        8.794474    5.967590   -0.497520
     25          6           0        7.012159    7.275645   -1.436211
     26          7           0        8.232657    0.605119    0.618251
     27          6           0        8.935841    1.742065    0.537484
     28          6           0       10.350970    1.509225    0.929758
     29          6           0       10.301272    0.060279    1.544750
     30          6           0        8.940429   -0.429190    1.109405
     31          6           0       11.466321    1.712248   -0.192366
     32          6           0       10.454000   -0.013340    3.053520
     33          6           0        9.344572    0.617111    4.044261
     34          7           0        6.311687   -1.469151    0.306936
     35          6           0        7.431266   -2.363517    0.495295
     36          6           0        7.031425   -3.706851    0.311699
     37          6           0        5.673772   -3.591788    0.182989
     38          6           0        5.290488   -2.286542    0.190736
     39          6           0        7.863939   -4.967903    0.457197
     40          6           0        4.468211   -4.525433    0.090894
     41          8           0        4.345050   -5.734983    0.107113
     42          6           0        3.262886   -3.501407   -0.046379
     43          6           0        2.621168   -3.777980   -1.289002
     44          8           0        3.181347   -3.637338   -2.404697
     45          8           0        1.415249   -4.446798   -1.101711
     46          6           0        0.850030   -5.145531   -2.307277
     47          6           0       -3.164398   -2.963579   -0.008528
     48          6           0       -4.660036   -2.644570    0.082852
     49          6           0       -5.760679   -3.414811    0.194517
     50          6           0       -5.617900   -4.910599    0.477333
     51          6           0       -7.070070   -2.627639    0.308440
     52          6           0       -7.520198   -1.763218   -0.831710
     53          6           0       -7.786392   -0.293213   -0.471549
     54          6           0       -8.897279    0.387577   -1.267739
     55          6           0       -8.462459    1.816866   -1.837720
     56          6           0      -10.103268    0.663273   -0.378028
     57          6           0      -11.424574    0.162779   -1.066149
     58          6           0      -12.540727    1.243378   -1.168052
     59          6           0      -14.046284    0.717460   -1.144003
     60          6           0      -14.408364   -0.131720   -2.371935
     61          6           0      -15.109356    1.843714   -0.944278
     62          6           0      -15.693581    1.831549    0.487525
     63          6           0      -15.001781    2.743424    1.495241
     64          6           0      -15.017362    2.123645    2.991244
     65          6           0      -13.706387    1.394343    3.359638
     66          6           0      -15.373640    3.209603    4.044036
     67          1           0        2.812085    3.364602   -1.248412
     68          1           0        9.085476    3.818297    0.248686
     69          1           0        9.465796   -2.376368    1.441979
     70          1           0        1.623957   -1.256110   -1.592011
     71          1           0        1.106435    1.412453   -0.342740
     72          1           0        0.202197    1.488670   -2.428814
     73          1           0        1.101415    0.162722   -3.088771
     74          1           0        1.832885    1.775391   -3.014375
     75          1           0        1.359331   -0.883053    1.290559
     76          1           0        0.511400   -2.092412    0.343987
     77          1           0       -0.697915    0.034026   -0.620700
     78          1           0       -0.412268    0.573024    1.033943
     79          1           0        4.293633    6.092131   -2.409915
     80          1           0        4.269337    6.456876   -0.654121
     81          1           0        3.131152    5.371398   -1.445790
     82          1           0        6.710040    7.193736   -2.480366
     83          1           0        7.840971    7.973717   -1.320648
     84          1           0        6.236401    7.660258   -0.773348
     85          1           0       10.563031    2.167681    1.771358
     86          1           0       10.975950   -0.549208    0.944764
     87          1           0       12.140167    2.515054    0.105057
     88          1           0       10.878406    1.970505   -1.074185
     89          1           0       11.976085    0.777943   -0.428776
     90          1           0       11.413050    0.449542    3.285523
     91          1           0       10.494831   -1.070337    3.317357
     92          1           0        9.761309    1.463529    4.590546
     93          1           0        9.083634   -0.119962    4.803460
     94          1           0        8.539550    0.904433    3.367597
     95          1           0        8.927878   -4.857438    0.666265
     96          1           0        7.779200   -5.571171   -0.446954
     97          1           0        7.425843   -5.535674    1.277795
     98          1           0        2.523056   -3.562759    0.752253
     99          1           0        1.575637   -5.543130   -3.017620
    100          1           0        0.260832   -4.428352   -2.878267
    101          1           0        0.133431   -5.884295   -1.947796
    102          1           0       -2.918399   -3.519766    0.896292
    103          1           0       -2.945306   -3.725049   -0.757390
    104          1           0       -4.834940   -1.576095   -0.037643
    105          1           0       -6.453941   -5.448422    0.029408
    106          1           0       -5.928845   -5.107419    1.502742
    107          1           0       -4.677108   -5.348436    0.140687
    108          1           0       -7.112860   -2.188772    1.304851
    109          1           0       -7.841967   -3.396188    0.357977
    110          1           0       -8.361792   -2.215454   -1.357455
    111          1           0       -6.598052   -1.713159   -1.410258
    112          1           0       -6.881512    0.242290   -0.757736
    113          1           0       -7.957937   -0.194720    0.601106
    114          1           0       -9.104096   -0.249749   -2.128366
    115          1           0       -7.484416    1.730246   -2.309411
    116          1           0       -8.215555    2.456743   -0.989278
    117          1           0       -9.180231    2.303502   -2.498036
    118          1           0      -10.175951    1.715509   -0.102194
    119          1           0      -10.155034    0.023406    0.502733
    120          1           0      -11.798560   -0.695098   -0.507687
    121          1           0      -11.162812   -0.186903   -2.063986
    122          1           0      -12.439259    1.680311   -2.160616
    123          1           0      -12.372044    1.994146   -0.395666
    124          1           0      -14.073860    0.033127   -0.296704
    125          1           0      -14.764573   -1.112453   -2.056951
    126          1           0      -13.523850   -0.340110   -2.973624
    127          1           0      -15.140534    0.260731   -3.078165
    128          1           0      -15.940755    1.788128   -1.646899
    129          1           0      -14.625235    2.786739   -1.197345
    130          1           0      -15.765673    0.791060    0.804896
    131          1           0      -16.751807    2.060396    0.363049
    132          1           0      -15.468966    3.728225    1.501676
    133          1           0      -13.976740    2.828064    1.134505
    134          1           0      -15.810067    1.391068    3.141528
    135          1           0      -13.946315    0.363175    3.617973
    136          1           0      -13.196217    1.793220    4.237114
    137          1           0      -12.904198    1.515767    2.632081
    138          1           0      -16.424263    3.120284    4.322834
    139          1           0      -15.167563    4.239320    3.752159
    140          1           0      -14.766673    3.058559    4.936961
 ---------------------------------------------------------------------

 SCF Done:  E(RCAM-B3LYP) =  -3007.16523755     A.U. after   17 cycles

 Excitation energies and oscillator strengths:

 Excited State   1:      Singlet-A      1.7344 eV  714.86 nm  f=0.3835  <S**2>=0.000
     245 -> 248        0.18633
     246 -> 247        0.68289
     245 <- 248        0.10681
 This state for optimization and/or second-order correction.
 Total Energy, E(TD-HF/TD-DFT) =  -3007.10150024
 Copying the excited state density for this state as the 1-particle RhoCI density.

 Excited State   2:      Singlet-A      2.2024 eV  562.96 nm  f=0.1304  <S**2>=0.000
     245 -> 247        0.64767
     246 -> 248       -0.27007

 Excited State   3:      Singlet-A      3.4255 eV  361.94 nm  f=0.0002  <S**2>=0.000
     243 -> 247        0.69378

 Excited State   4:      Singlet-A      3.5191 eV  352.32 nm  f=0.2699  <S**2>=0.000
     242 -> 247        0.44023
     245 -> 247        0.17282
     246 -> 248        0.51416

 Excited State   5:      Singlet-A      3.6799 eV  336.92 nm  f=0.4601  <S**2>=0.000
     239 -> 247        0.19961
     239 -> 249        0.12962
     242 -> 247        0.49219
     245 -> 247       -0.20557
     246 -> 248       -0.35146

 The electronic state is 1-A.
 Alpha  occ. eigenvalues --  -46.88483 -19.25521 -19.25411 -19.20316 -19.19543
 Alpha  occ. eigenvalues --  -19.19380 -19.19351 -14.42422 -14.41502 -14.39871
 Alpha  occ. eigenvalues --  -14.38759 -10.39807 -10.39161 -10.36300 -10.35776
 Alpha  occ. eigenvalues --  -10.32644 -10.32059 -10.31348 -10.31202 -10.31131
 Alpha  occ. eigenvalues --  -10.30644 -10.30376 -10.29944 -10.29807 -10.29740
 Alpha  occ. eigenvalues --  -10.28369 -10.28347 -10.28230 -10.28150 -10.28058
 Alpha  occ. eigenvalues --  -10.27742 -10.27690 -10.27547 -10.27454 -10.27230
 Alpha  occ. eigenvalues --  -10.27181 -10.27177 -10.27171 -10.26934 -10.26911
 Alpha  occ. eigenvalues --  -10.26561 -10.26453 -10.26414 -10.26412 -10.26364
 Alpha  occ. eigenvalues --  -10.26206 -10.26117 -10.26023 -10.25944 -10.25620
 Alpha  occ. eigenvalues --  -10.25528 -10.25395 -10.25384 -10.25007 -10.24943
 Alpha  occ. eigenvalues --  -10.24890 -10.24801 -10.24785 -10.24592 -10.24494
 Alpha  occ. eigenvalues --  -10.24389 -10.24325 -10.24211 -10.24206 -10.23994
 Alpha  occ. eigenvalues --  -10.23973  -3.17013  -1.91932  -1.91466  -1.91310
 Alpha  occ. eigenvalues --   -1.17086  -1.14667  -1.10848  -1.08967  -1.07319
 Alpha  occ. eigenvalues --   -1.06046  -1.04845  -1.03977  -1.03275  -1.02373
 Alpha  occ. eigenvalues --   -0.92176  -0.90682  -0.90129  -0.89155  -0.88811
 Alpha  occ. eigenvalues --   -0.88346  -0.87900  -0.87412  -0.86823  -0.86598
 Alpha  occ. eigenvalues --   -0.86422  -0.85604  -0.84421  -0.83653  -0.82965
 Alpha  occ. eigenvalues --   -0.82384  -0.82030  -0.81461  -0.80912  -0.80163
 Alpha  occ. eigenvalues --   -0.79858  -0.78194  -0.77959  -0.77261  -0.76419
 Alpha  occ. eigenvalues --   -0.76053  -0.75489  -0.75078  -0.74370  -0.74060
 Alpha  occ. eigenvalues --   -0.73637  -0.73063  -0.72206  -0.70628  -0.69879
 Alpha  occ. eigenvalues --   -0.68487  -0.68019  -0.67264  -0.66558  -0.65544
 Alpha  occ. eigenvalues --   -0.65288  -0.64778  -0.64499  -0.64200  -0.63742
 Alpha  occ. eigenvalues --   -0.63622  -0.63479  -0.62693  -0.61521  -0.60300
 Alpha  occ. eigenvalues --   -0.60089  -0.59995  -0.59425  -0.58759  -0.58203
 Alpha  occ. eigenvalues --   -0.57579  -0.57198  -0.56192  -0.55609  -0.55455
 Alpha  occ. eigenvalues --   -0.55357  -0.55154  -0.54626  -0.54364  -0.53810
 Alpha  occ. eigenvalues --   -0.53711  -0.53075  -0.53036  -0.52753  -0.52615
 Alpha  occ. eigenvalues --   -0.52197  -0.52074  -0.51765  -0.51685  -0.51540
 Alpha  occ. eigenvalues --   -0.51447  -0.51198  -0.51117  -0.50438  -0.50299
 Alpha  occ. eigenvalues --   -0.50259  -0.50140  -0.49999  -0.49624  -0.49524
 Alpha  occ. eigenvalues --   -0.49415  -0.49242  -0.49029  -0.48770  -0.48736
 Alpha  occ. eigenvalues --   -0.48382  -0.48290  -0.48068  -0.47815  -0.47594
 Alpha  occ. eigenvalues --   -0.47457  -0.47245  -0.47062  -0.46634  -0.46589
 Alpha  occ. eigenvalues --   -0.46443  -0.46329  -0.46264  -0.46110  -0.45757
 Alpha  occ. eigenvalues --   -0.45673  -0.45640  -0.45335  -0.45120  -0.45036
 Alpha  occ. eigenvalues --   -0.44877  -0.44375  -0.44296  -0.44133  -0.43981
 Alpha  occ. eigenvalues --   -0.43845  -0.43367  -0.43263  -0.43078  -0.43035
 Alpha  occ. eigenvalues --   -0.42807  -0.42693  -0.42449  -0.42204  -0.42127
 Alpha  occ. eigenvalues --   -0.42031  -0.41833  -0.41794  -0.41531  -0.41371
 Alpha  occ. eigenvalues --   -0.41110  -0.40959  -0.40774  -0.40564  -0.39841
 Alpha  occ. eigenvalues --   -0.39571  -0.39463  -0.39247  -0.38697  -0.38430
 Alpha  occ. eigenvalues --   -0.38307  -0.37807  -0.37758  -0.37723  -0.37522
 Alpha  occ. eigenvalues --   -0.36982  -0.36623  -0.36489  -0.36293  -0.36187
 Alpha  occ. eigenvalues --   -0.36069  -0.35655  -0.34848  -0.34457  -0.33912
 Alpha  occ. eigenvalues --   -0.33883  -0.33731  -0.33133  -0.31640  -0.31438
 Alpha  occ. eigenvalues --   -0.31227  -0.30272  -0.29908  -0.29407  -0.23840
 Alpha  occ. eigenvalues --   -0.21374
 Alpha virt. eigenvalues --   -0.08735  -0.01734   0.00116   0.01976   0.03132
 Alpha virt. eigenvalues --    0.04304   0.04681   0.05486   0.05785   0.06511
 Alpha virt. eigenvalues --    0.07612   0.08589   0.08730   0.08772   0.09064

 Mulliken charges:
               1
     1  Mg   0.821355
     2  C   -0.047207
     3  C   -0.071771
     4  C   -0.034592
     5  C   -0.061465
     6  N   -0.271811
     7  C   -0.031437
     8  C   -0.067929
     9  C   -0.043973
    10  C    0.033640
    11  C    0.067821
    12  C    0.018439
    13  C    0.081157
    14  C    0.160464
    15  O   -0.228216
    16  O   -0.317788
    17  N   -0.367704
    18  C    0.136781
    19  C   -0.139805
    20  C   -0.026475
    21  C    0.093067
    22  C    0.084583
    23  C    0.006907
    24  O   -0.222121
    25  C    0.047824
    26  N   -0.284668
    27  C    0.033526
    28  C   -0.045094
    29  C   -0.027323
    30  C   -0.019648
    31  C    0.087368
    32  C    0.031376
    33  C   -0.006809
    34  N   -0.351042
    35  C    0.134380
    36  C   -0.173352
    37  C   -0.056000
    38  C    0.176178
    39  C    0.125839
    40  C    0.117576
    41  O   -0.147046
    42  C    0.014595
    43  C    0.208697
    44  O   -0.263020
    45  O   -0.354175
    46  C    0.183623
    47  C    0.282704
    48  C   -0.122921
    49  C   -0.200709
    50  C    0.093451
    51  C    0.087608
    52  C    0.026982
    53  C    0.060434
    54  C   -0.146809
    55  C    0.027584
    56  C    0.072487
    57  C   -0.003027
    58  C    0.024382
    59  C   -0.115356
    60  C    0.040814
    61  C    0.050375
    62  C    0.001731
    63  C    0.095390
    64  C   -0.155214
    65  C    0.042045
    66  C    0.028306
    67  H   -0.034123
    68  H   -0.008020
    69  H   -0.024396
    70  H    0.034688
    71  H    0.017508
    72  H    0.014015
    73  H    0.030437
    74  H    0.014743
    75  H    0.010950
    76  H    0.025319
    77  H    0.013402
    78  H    0.029880
    79  H    0.024125
    80  H    0.036253
    81  H    0.018020
    82  H    0.054705
    83  H    0.023758
    84  H    0.032529
    85  H    0.007306
    86  H   -0.001003
    87  H    0.033986
    88  H    0.020726
    89  H    0.016105
    90  H    0.008298
    91  H    0.002834
    92  H    0.020701
    93  H    0.025123
    94  H    0.036162
    95  H    0.009335
    96  H    0.034880
    97  H    0.034588
    98  H    0.038765
    99  H    0.057414
   100  H    0.024476
   101  H    0.039726
   102  H    0.033324
   103  H    0.026387
   104  H   -0.000557
   105  H   -0.003659
   106  H    0.023006
   107  H    0.023418
   108  H    0.024236
   109  H   -0.030836
   110  H    0.010122
   111  H    0.003074
   112  H   -0.017593
   113  H   -0.000505
   114  H    0.002902
   115  H   -0.001468
   116  H    0.003809
   117  H    0.020935
   118  H    0.004925
   119  H   -0.002041
   120  H   -0.008518
   121  H   -0.002397
   122  H   -0.005904
   123  H    0.000081
   124  H   -0.005549
   125  H    0.003474
   126  H   -0.006875
   127  H    0.009615
   128  H   -0.010730
   129  H   -0.010802
   130  H   -0.006180
   131  H   -0.016878
   132  H    0.001812
   133  H   -0.008636
   134  H    0.002593
   135  H    0.013693
   136  H   -0.004294
   137  H    0.004254
   138  H    0.009672
   139  H    0.007541
   140  H   -0.003647
 Sum of Mulliken charges =  -0.00000

 Dipole moment (field-independent basis, Debye):
    X=             -2.1096    Y=              1.9467    Z=             -0.5333  Tot=              2.9196
 Quadrupole moment (field-independent basis, Debye-Ang):
   XX=           -391.8999   YY=           -405.4869   ZZ=           -408.9895
   XY=              6.9130   XZ=             20.3630   YZ=             -4.1006

 Normal termination of Gaussian 16 at Fri Apr 29 07:38:02 2022.
