 Gaussian 16, Revision A.03,
 Gaussian 16:  ES64L-G16RevA.03 25-Dec-2016

 ---------------------------------
 #p PBE1PBE/Def2SVP td=(nstates=5)
 ---------------------------------

 -----------------------------------------------------
 step_201_chromophore_16 TDDFT with PBE1PBE functional
 -----------------------------------------------------
 Symbolic Z-matrix:
 Charge =  0 Multiplicity = 1

                         Standard orientation:
 ---------------------------------------------------------------------
 Center     Atomic      Atomic             Coordinates (Angstroms)
 Number     Number       Type             X           Y           Z
 ---------------------------------------------------------------------
      1         12           0        6.178557    0.623035    0.196419
      2          6           0        3.946357   -2.090539   -0.040926
      3          6           0        3.611731    2.672971   -0.975444
      4          6           0        8.374300    2.990473    0.234943
      5          6           0        8.647598   -1.796826    1.009254
      6          7           0        4.020199    0.335690   -0.380710
      7          6           0        3.331947   -0.850625   -0.315650
      8          6           0        1.825325   -0.650016   -0.708495
      9          6           0        1.747650    0.882370   -1.047508
     10          6           0        3.175822    1.359290   -0.732311
     11          6           0        1.204211    1.062154   -2.481745
     12          6           0        0.769649   -1.034477    0.387309
     13          6           0       -0.559828   -0.306063    0.405534
     14          6           0       -1.769193   -1.169076    0.854485
     15          8           0       -2.109438   -1.454195    1.998493
     16          8           0       -2.321570   -1.779130   -0.210906
     17          7           0        5.989333    2.626253   -0.305859
     18          6           0        4.889748    3.247828   -0.738247
     19          6           0        5.259143    4.662573   -1.047568
     20          6           0        6.670649    4.818551   -0.680173
     21          6           0        7.083103    3.460567   -0.216137
     22          6           0        4.176983    5.676110   -1.408508
     23          6           0        7.591288    6.025230   -0.832739
     24          8           0        8.794474    5.967590   -0.497520
     25          6           0        7.012159    7.275645   -1.436211
     26          7           0        8.232657    0.605119    0.618251
     27          6           0        8.935841    1.742065    0.537484
     28          6           0       10.350970    1.509225    0.929758
     29          6           0       10.301272    0.060279    1.544750
     30          6           0        8.940429   -0.429190    1.109405
     31          6           0       11.466321    1.712248   -0.192366
     32          6           0       10.454000   -0.013340    3.053520
     33          6           0        9.344572    0.617111    4.044261
     34          7           0        6.311687   -1.469151    0.306936
     35          6           0        7.431266   -2.363517    0.495295
     36          6           0        7.031425   -3.706851    0.311699
     37          6           0        5.673772   -3.591788    0.182989
     38          6           0        5.290488   -2.286542    0.190736
     39          6           0        7.863939   -4.967903    0.457197
     40          6           0        4.468211   -4.525433    0.090894
     41          8           0        4.345050   -5.734983    0.107113
     42          6           0        3.262886   -3.501407   -0.046379
     43          6           0        2.621168   -3.777980   -1.289002
     44          8           0        3.181347   -3.637338   -2.404697
     45          8           0        1.415249   -4.446798   -1.101711
     46          6           0        0.850030   -5.145531   -2.307277
     47          6           0       -3.164398   -2.963579   -0.008528
     48          6           0       -4.660036   -2.644570    0.082852
     49          6           0       -5.760679   -3.414811    0.194517
     50          6           0       -5.617900   -4.910599    0.477333
     51          6           0       -7.070070   -2.627639    0.308440
     52          6           0       -7.520198   -1.763218   -0.831710
     53          6           0       -7.786392   -0.293213   -0.471549
     54          6           0       -8.897279    0.387577   -1.267739
     55          6           0       -8.462459    1.816866   -1.837720
     56          6           0      -10.103268    0.663273   -0.378028
     57          6           0      -11.424574    0.162779   -1.066149
     58          6           0      -12.540727    1.243378   -1.168052
     59          6           0      -14.046284    0.717460   -1.144003
     60          6           0      -14.408364   -0.131720   -2.371935
     61          6           0      -15.109356    1.843714   -0.944278
     62          6           0      -15.693581    1.831549    0.487525
     63          6           0      -15.001781    2.743424    1.495241
     64          6           0      -15.017362    2.123645    2.991244
     65          6           0      -13.706387    1.394343    3.359638
     66          6           0      -15.373640    3.209603    4.044036
     67          1           0        2.812085    3.364602   -1.248412
     68          1           0        9.085476    3.818297    0.248686
     69          1           0        9.465796   -2.376368    1.441979
     70          1           0        1.623957   -1.256110   -1.592011
     71          1           0        1.106435    1.412453   -0.342740
     72          1           0        0.202197    1.488670   -2.428814
     73          1           0        1.101415    0.162722   -3.088771
     74          1           0        1.832885    1.775391   -3.014375
     75          1           0        1.359331   -0.883053    1.290559
     76          1           0        0.511400   -2.092412    0.343987
     77          1           0       -0.697915    0.034026   -0.620700
     78          1           0       -0.412268    0.573024    1.033943
     79          1           0        4.293633    6.092131   -2.409915
     80          1           0        4.269337    6.456876   -0.654121
     81          1           0        3.131152    5.371398   -1.445790
     82          1           0        6.710040    7.193736   -2.480366
     83          1           0        7.840971    7.973717   -1.320648
     84          1           0        6.236401    7.660258   -0.773348
     85          1           0       10.563031    2.167681    1.771358
     86          1           0       10.975950   -0.549208    0.944764
     87          1           0       12.140167    2.515054    0.105057
     88          1           0       10.878406    1.970505   -1.074185
     89          1           0       11.976085    0.777943   -0.428776
     90          1           0       11.413050    0.449542    3.285523
     91          1           0       10.494831   -1.070337    3.317357
     92          1           0        9.761309    1.463529    4.590546
     93          1           0        9.083634   -0.119962    4.803460
     94          1           0        8.539550    0.904433    3.367597
     95          1           0        8.927878   -4.857438    0.666265
     96          1           0        7.779200   -5.571171   -0.446954
     97          1           0        7.425843   -5.535674    1.277795
     98          1           0        2.523056   -3.562759    0.752253
     99          1           0        1.575637   -5.543130   -3.017620
    100          1           0        0.260832   -4.428352   -2.878267
    101          1           0        0.133431   -5.884295   -1.947796
    102          1           0       -2.918399   -3.519766    0.896292
    103          1           0       -2.945306   -3.725049   -0.757390
    104          1           0       -4.834940   -1.576095   -0.037643
    105          1           0       -6.453941   -5.448422    0.029408
    106          1           0       -5.928845   -5.107419    1.502742
    107          1           0       -4.677108   -5.348436    0.140687
    108          1           0       -7.112860   -2.188772    1.304851
    109          1           0       -7.841967   -3.396188    0.357977
    110          1           0       -8.361792   -2.215454   -1.357455
    111          1           0       -6.598052   -1.713159   -1.410258
    112          1           0       -6.881512    0.242290   -0.757736
    113          1           0       -7.957937   -0.194720    0.601106
    114          1           0       -9.104096   -0.249749   -2.128366
    115          1           0       -7.484416    1.730246   -2.309411
    116          1           0       -8.215555    2.456743   -0.989278
    117          1           0       -9.180231    2.303502   -2.498036
    118          1           0      -10.175951    1.715509   -0.102194
    119          1           0      -10.155034    0.023406    0.502733
    120          1           0      -11.798560   -0.695098   -0.507687
    121          1           0      -11.162812   -0.186903   -2.063986
    122          1           0      -12.439259    1.680311   -2.160616
    123          1           0      -12.372044    1.994146   -0.395666
    124          1           0      -14.073860    0.033127   -0.296704
    125          1           0      -14.764573   -1.112453   -2.056951
    126          1           0      -13.523850   -0.340110   -2.973624
    127          1           0      -15.140534    0.260731   -3.078165
    128          1           0      -15.940755    1.788128   -1.646899
    129          1           0      -14.625235    2.786739   -1.197345
    130          1           0      -15.765673    0.791060    0.804896
    131          1           0      -16.751807    2.060396    0.363049
    132          1           0      -15.468966    3.728225    1.501676
    133          1           0      -13.976740    2.828064    1.134505
    134          1           0      -15.810067    1.391068    3.141528
    135          1           0      -13.946315    0.363175    3.617973
    136          1           0      -13.196217    1.793220    4.237114
    137          1           0      -12.904198    1.515767    2.632081
    138          1           0      -16.424263    3.120284    4.322834
    139          1           0      -15.167563    4.239320    3.752159
    140          1           0      -14.766673    3.058559    4.936961
 ---------------------------------------------------------------------

 SCF Done:  E(RPBE1PBE) =  -3005.35340294     A.U. after   15 cycles

 Excitation energies and oscillator strengths:

 Excited State   1:      Singlet-A      1.8920 eV  655.29 nm  f=0.3731  <S**2>=0.000
     245 -> 248        0.17404
     246 -> 247        0.68943
     246 <- 247       -0.10146
 This state for optimization and/or second-order correction.
 Total Energy, E(TD-HF/TD-DFT) =  -3005.28387173
 Copying the excited state density for this state as the 1-particle RhoCI density.

 Excited State   2:      Singlet-A      2.2122 eV  560.45 nm  f=0.1253  <S**2>=0.000
     245 -> 247        0.65781
     246 -> 248       -0.24003

 Excited State   3:      Singlet-A      3.1002 eV  399.92 nm  f=0.0003  <S**2>=0.000
     242 -> 247        0.12426
     243 -> 247        0.68914

 Excited State   4:      Singlet-A      3.2072 eV  386.58 nm  f=0.0061  <S**2>=0.000
     240 -> 247       -0.22614
     241 -> 247        0.54251
     241 -> 248       -0.12163
     241 -> 249        0.14095
     242 -> 247       -0.26893
     246 -> 248       -0.17488

 Excited State   5:      Singlet-A      3.2186 eV  385.22 nm  f=0.0030  <S**2>=0.000
     240 -> 247        0.49296
     240 -> 249       -0.11576
     241 -> 247        0.35354
     242 -> 247        0.25743
     246 -> 248        0.11238

 The electronic state is 1-A.
 Alpha  occ. eigenvalues --  -46.91896 -19.26226 -19.26043 -19.20597 -19.19851
 Alpha  occ. eigenvalues --  -19.19566 -19.19544 -14.41988 -14.41002 -14.39489
 Alpha  occ. eigenvalues --  -14.38510 -10.36879 -10.36135 -10.33538 -10.32844
 Alpha  occ. eigenvalues --  -10.30075 -10.29274 -10.29155 -10.28896 -10.28812
 Alpha  occ. eigenvalues --  -10.28318 -10.28000 -10.27782 -10.27686 -10.27374
 Alpha  occ. eigenvalues --  -10.26184 -10.26173 -10.25892 -10.25836 -10.25587
 Alpha  occ. eigenvalues --  -10.25563 -10.25399 -10.25214 -10.25072 -10.24931
 Alpha  occ. eigenvalues --  -10.24850 -10.24839 -10.24814 -10.24770 -10.24596
 Alpha  occ. eigenvalues --  -10.24256 -10.24109 -10.23834 -10.23807 -10.23683
 Alpha  occ. eigenvalues --  -10.23634 -10.23628 -10.23626 -10.23482 -10.23352
 Alpha  occ. eigenvalues --  -10.23094 -10.23091 -10.22945 -10.22767 -10.22550
 Alpha  occ. eigenvalues --  -10.22437 -10.22363 -10.22221 -10.22147 -10.22086
 Alpha  occ. eigenvalues --  -10.21964 -10.21884 -10.21721 -10.21589 -10.21380
 Alpha  occ. eigenvalues --  -10.21350  -3.14008  -1.86869  -1.86380  -1.86227
 Alpha  occ. eigenvalues --   -1.11940  -1.09376  -1.05661  -1.03611  -1.02208
 Alpha  occ. eigenvalues --   -1.00811  -0.99501  -0.98703  -0.97917  -0.97031
 Alpha  occ. eigenvalues --   -0.86561  -0.84827  -0.84321  -0.83262  -0.83148
 Alpha  occ. eigenvalues --   -0.82444  -0.82244  -0.81793  -0.81182  -0.80695
 Alpha  occ. eigenvalues --   -0.80624  -0.79861  -0.78617  -0.77972  -0.77207
 Alpha  occ. eigenvalues --   -0.76555  -0.76168  -0.75711  -0.75210  -0.74500
 Alpha  occ. eigenvalues --   -0.74020  -0.72494  -0.72211  -0.71550  -0.70745
 Alpha  occ. eigenvalues --   -0.70247  -0.69832  -0.69155  -0.68512  -0.68218
 Alpha  occ. eigenvalues --   -0.67980  -0.67505  -0.66623  -0.64968  -0.64279
 Alpha  occ. eigenvalues --   -0.62774  -0.62469  -0.61685  -0.60853  -0.59980
 Alpha  occ. eigenvalues --   -0.59883  -0.59269  -0.58801  -0.58693  -0.58171
 Alpha  occ. eigenvalues --   -0.57839  -0.57618  -0.56858  -0.56121  -0.54858
 Alpha  occ. eigenvalues --   -0.54591  -0.54401  -0.54037  -0.53374  -0.52642
 Alpha  occ. eigenvalues --   -0.52101  -0.51723  -0.50793  -0.50121  -0.50010
 Alpha  occ. eigenvalues --   -0.49902  -0.49698  -0.49209  -0.48872  -0.48268
 Alpha  occ. eigenvalues --   -0.48190  -0.47697  -0.47463  -0.47161  -0.47071
 Alpha  occ. eigenvalues --   -0.46712  -0.46541  -0.46327  -0.46233  -0.46074
 Alpha  occ. eigenvalues --   -0.46038  -0.45728  -0.45690  -0.44993  -0.44877
 Alpha  occ. eigenvalues --   -0.44799  -0.44698  -0.44620  -0.44196  -0.44125
 Alpha  occ. eigenvalues --   -0.44026  -0.43867  -0.43589  -0.43367  -0.43279
 Alpha  occ. eigenvalues --   -0.43047  -0.42947  -0.42660  -0.42487  -0.42216
 Alpha  occ. eigenvalues --   -0.42106  -0.41883  -0.41650  -0.41305  -0.41267
 Alpha  occ. eigenvalues --   -0.41183  -0.41017  -0.40865  -0.40849  -0.40550
 Alpha  occ. eigenvalues --   -0.40459  -0.40357  -0.39975  -0.39824  -0.39798
 Alpha  occ. eigenvalues --   -0.39518  -0.39188  -0.39074  -0.38930  -0.38741
 Alpha  occ. eigenvalues --   -0.38670  -0.38217  -0.38103  -0.37817  -0.37749
 Alpha  occ. eigenvalues --   -0.37582  -0.37361  -0.37303  -0.37004  -0.36974
 Alpha  occ. eigenvalues --   -0.36843  -0.36713  -0.36549  -0.36333  -0.36221
 Alpha  occ. eigenvalues --   -0.35883  -0.35819  -0.35601  -0.35311  -0.34704
 Alpha  occ. eigenvalues --   -0.34459  -0.34248  -0.34067  -0.33700  -0.33203
 Alpha  occ. eigenvalues --   -0.33092  -0.32809  -0.32634  -0.32549  -0.32490
 Alpha  occ. eigenvalues --   -0.32047  -0.31597  -0.31336  -0.31287  -0.31186
 Alpha  occ. eigenvalues --   -0.30911  -0.30482  -0.29787  -0.29638  -0.28849
 Alpha  occ. eigenvalues --   -0.28722  -0.28694  -0.28510  -0.27068  -0.26344
 Alpha  occ. eigenvalues --   -0.26313  -0.25903  -0.25551  -0.24691  -0.20835
 Alpha  occ. eigenvalues --   -0.19012
 Alpha virt. eigenvalues --   -0.11218  -0.05312  -0.04085  -0.02489  -0.00292
 Alpha virt. eigenvalues --   -0.00063   0.00378   0.01111   0.01564   0.02721
 Alpha virt. eigenvalues --    0.03746   0.04521   0.05233   0.05578   0.05771

 Mulliken charges:
               1
     1  Mg   0.971510
     2  C   -0.059385
     3  C   -0.065905
     4  C   -0.032009
     5  C   -0.052520
     6  N   -0.376092
     7  C    0.049740
     8  C   -0.137403
     9  C   -0.125586
    10  C    0.077164
    11  C    0.012442
    12  C   -0.025137
    13  C   -0.006507
    14  C    0.229124
    15  O   -0.261404
    16  O   -0.349420
    17  N   -0.487158
    18  C    0.165229
    19  C   -0.167130
    20  C   -0.073622
    21  C    0.127320
    22  C    0.023285
    23  C    0.054022
    24  O   -0.259520
    25  C   -0.022930
    26  N   -0.394680
    27  C    0.063731
    28  C   -0.115089
    29  C   -0.114139
    30  C    0.025682
    31  C    0.027947
    32  C   -0.028517
    33  C   -0.082407
    34  N   -0.474687
    35  C    0.148561
    36  C   -0.189729
    37  C   -0.104264
    38  C    0.228134
    39  C    0.074444
    40  C    0.212222
    41  O   -0.193178
    42  C   -0.091342
    43  C    0.299935
    44  O   -0.295765
    45  O   -0.386612
    46  C    0.127933
    47  C    0.243223
    48  C   -0.129867
    49  C   -0.246415
    50  C    0.026931
    51  C    0.025484
    52  C   -0.040715
    53  C    0.009596
    54  C   -0.235887
    55  C   -0.034304
    56  C    0.020928
    57  C   -0.060066
    58  C   -0.036646
    59  C   -0.197503
    60  C   -0.017385
    61  C   -0.004168
    62  C   -0.061035
    63  C    0.033549
    64  C   -0.247152
    65  C   -0.015204
    66  C   -0.030895
    67  H   -0.001088
    68  H    0.025184
    69  H    0.007192
    70  H    0.073339
    71  H    0.055635
    72  H    0.040228
    73  H    0.056305
    74  H    0.042736
    75  H    0.044083
    76  H    0.060217
    77  H    0.050695
    78  H    0.061967
    79  H    0.051603
    80  H    0.063672
    81  H    0.043371
    82  H    0.079891
    83  H    0.051170
    84  H    0.059208
    85  H    0.045959
    86  H    0.036763
    87  H    0.060442
    88  H    0.049678
    89  H    0.042828
    90  H    0.042261
    91  H    0.036696
    92  H    0.048114
    93  H    0.052449
    94  H    0.068994
    95  H    0.036183
    96  H    0.062538
    97  H    0.062098
    98  H    0.074320
    99  H    0.078052
   100  H    0.046621
   101  H    0.061056
   102  H    0.059966
   103  H    0.052367
   104  H    0.030976
   105  H    0.025089
   106  H    0.051287
   107  H    0.049163
   108  H    0.055551
   109  H    0.004569
   110  H    0.040820
   111  H    0.038387
   112  H    0.015595
   113  H    0.030604
   114  H    0.039334
   115  H    0.027252
   116  H    0.031993
   117  H    0.049165
   118  H    0.035043
   119  H    0.031203
   120  H    0.023527
   121  H    0.029023
   122  H    0.028596
   123  H    0.033765
   124  H    0.032459
   125  H    0.031094
   126  H    0.021384
   127  H    0.035813
   128  H    0.021342
   129  H    0.022149
   130  H    0.026134
   131  H    0.016631
   132  H    0.033934
   133  H    0.028019
   134  H    0.039588
   135  H    0.040276
   136  H    0.022245
   137  H    0.031118
   138  H    0.037179
   139  H    0.034349
   140  H    0.023793
 Sum of Mulliken charges =  -0.00000

 Dipole moment (field-independent basis, Debye):
    X=             -2.0121    Y=              1.7556    Z=             -0.4293  Tot=              2.7046
 Quadrupole moment (field-independent basis, Debye-Ang):
   XX=           -385.8425   YY=           -403.0181   ZZ=           -406.4647
   XY=              5.4898   XZ=             21.5930   YZ=             -4.2611

 Normal termination of Gaussian 16 at Fri Apr 29 07:59:46 2022.
