 Gaussian 16, Revision A.03,
 Gaussian 16:  ES64L-G16RevA.03 25-Dec-2016

 --------------------------------
 #p wB97XD/Def2SVP td=(nstates=5)
 --------------------------------

 ----------------------------------------------------
 step_201_chromophore_16 TDDFT with wB97XD functional
 ----------------------------------------------------
 Symbolic Z-matrix:
 Charge =  0 Multiplicity = 1

                         Standard orientation:
 ---------------------------------------------------------------------
 Center     Atomic      Atomic             Coordinates (Angstroms)
 Number     Number       Type             X           Y           Z
 ---------------------------------------------------------------------
      1         12           0        6.178557    0.623035    0.196419
      2          6           0        3.946357   -2.090539   -0.040926
      3          6           0        3.611731    2.672971   -0.975444
      4          6           0        8.374300    2.990473    0.234943
      5          6           0        8.647598   -1.796826    1.009254
      6          7           0        4.020199    0.335690   -0.380710
      7          6           0        3.331947   -0.850625   -0.315650
      8          6           0        1.825325   -0.650016   -0.708495
      9          6           0        1.747650    0.882370   -1.047508
     10          6           0        3.175822    1.359290   -0.732311
     11          6           0        1.204211    1.062154   -2.481745
     12          6           0        0.769649   -1.034477    0.387309
     13          6           0       -0.559828   -0.306063    0.405534
     14          6           0       -1.769193   -1.169076    0.854485
     15          8           0       -2.109438   -1.454195    1.998493
     16          8           0       -2.321570   -1.779130   -0.210906
     17          7           0        5.989333    2.626253   -0.305859
     18          6           0        4.889748    3.247828   -0.738247
     19          6           0        5.259143    4.662573   -1.047568
     20          6           0        6.670649    4.818551   -0.680173
     21          6           0        7.083103    3.460567   -0.216137
     22          6           0        4.176983    5.676110   -1.408508
     23          6           0        7.591288    6.025230   -0.832739
     24          8           0        8.794474    5.967590   -0.497520
     25          6           0        7.012159    7.275645   -1.436211
     26          7           0        8.232657    0.605119    0.618251
     27          6           0        8.935841    1.742065    0.537484
     28          6           0       10.350970    1.509225    0.929758
     29          6           0       10.301272    0.060279    1.544750
     30          6           0        8.940429   -0.429190    1.109405
     31          6           0       11.466321    1.712248   -0.192366
     32          6           0       10.454000   -0.013340    3.053520
     33          6           0        9.344572    0.617111    4.044261
     34          7           0        6.311687   -1.469151    0.306936
     35          6           0        7.431266   -2.363517    0.495295
     36          6           0        7.031425   -3.706851    0.311699
     37          6           0        5.673772   -3.591788    0.182989
     38          6           0        5.290488   -2.286542    0.190736
     39          6           0        7.863939   -4.967903    0.457197
     40          6           0        4.468211   -4.525433    0.090894
     41          8           0        4.345050   -5.734983    0.107113
     42          6           0        3.262886   -3.501407   -0.046379
     43          6           0        2.621168   -3.777980   -1.289002
     44          8           0        3.181347   -3.637338   -2.404697
     45          8           0        1.415249   -4.446798   -1.101711
     46          6           0        0.850030   -5.145531   -2.307277
     47          6           0       -3.164398   -2.963579   -0.008528
     48          6           0       -4.660036   -2.644570    0.082852
     49          6           0       -5.760679   -3.414811    0.194517
     50          6           0       -5.617900   -4.910599    0.477333
     51          6           0       -7.070070   -2.627639    0.308440
     52          6           0       -7.520198   -1.763218   -0.831710
     53          6           0       -7.786392   -0.293213   -0.471549
     54          6           0       -8.897279    0.387577   -1.267739
     55          6           0       -8.462459    1.816866   -1.837720
     56          6           0      -10.103268    0.663273   -0.378028
     57          6           0      -11.424574    0.162779   -1.066149
     58          6           0      -12.540727    1.243378   -1.168052
     59          6           0      -14.046284    0.717460   -1.144003
     60          6           0      -14.408364   -0.131720   -2.371935
     61          6           0      -15.109356    1.843714   -0.944278
     62          6           0      -15.693581    1.831549    0.487525
     63          6           0      -15.001781    2.743424    1.495241
     64          6           0      -15.017362    2.123645    2.991244
     65          6           0      -13.706387    1.394343    3.359638
     66          6           0      -15.373640    3.209603    4.044036
     67          1           0        2.812085    3.364602   -1.248412
     68          1           0        9.085476    3.818297    0.248686
     69          1           0        9.465796   -2.376368    1.441979
     70          1           0        1.623957   -1.256110   -1.592011
     71          1           0        1.106435    1.412453   -0.342740
     72          1           0        0.202197    1.488670   -2.428814
     73          1           0        1.101415    0.162722   -3.088771
     74          1           0        1.832885    1.775391   -3.014375
     75          1           0        1.359331   -0.883053    1.290559
     76          1           0        0.511400   -2.092412    0.343987
     77          1           0       -0.697915    0.034026   -0.620700
     78          1           0       -0.412268    0.573024    1.033943
     79          1           0        4.293633    6.092131   -2.409915
     80          1           0        4.269337    6.456876   -0.654121
     81          1           0        3.131152    5.371398   -1.445790
     82          1           0        6.710040    7.193736   -2.480366
     83          1           0        7.840971    7.973717   -1.320648
     84          1           0        6.236401    7.660258   -0.773348
     85          1           0       10.563031    2.167681    1.771358
     86          1           0       10.975950   -0.549208    0.944764
     87          1           0       12.140167    2.515054    0.105057
     88          1           0       10.878406    1.970505   -1.074185
     89          1           0       11.976085    0.777943   -0.428776
     90          1           0       11.413050    0.449542    3.285523
     91          1           0       10.494831   -1.070337    3.317357
     92          1           0        9.761309    1.463529    4.590546
     93          1           0        9.083634   -0.119962    4.803460
     94          1           0        8.539550    0.904433    3.367597
     95          1           0        8.927878   -4.857438    0.666265
     96          1           0        7.779200   -5.571171   -0.446954
     97          1           0        7.425843   -5.535674    1.277795
     98          1           0        2.523056   -3.562759    0.752253
     99          1           0        1.575637   -5.543130   -3.017620
    100          1           0        0.260832   -4.428352   -2.878267
    101          1           0        0.133431   -5.884295   -1.947796
    102          1           0       -2.918399   -3.519766    0.896292
    103          1           0       -2.945306   -3.725049   -0.757390
    104          1           0       -4.834940   -1.576095   -0.037643
    105          1           0       -6.453941   -5.448422    0.029408
    106          1           0       -5.928845   -5.107419    1.502742
    107          1           0       -4.677108   -5.348436    0.140687
    108          1           0       -7.112860   -2.188772    1.304851
    109          1           0       -7.841967   -3.396188    0.357977
    110          1           0       -8.361792   -2.215454   -1.357455
    111          1           0       -6.598052   -1.713159   -1.410258
    112          1           0       -6.881512    0.242290   -0.757736
    113          1           0       -7.957937   -0.194720    0.601106
    114          1           0       -9.104096   -0.249749   -2.128366
    115          1           0       -7.484416    1.730246   -2.309411
    116          1           0       -8.215555    2.456743   -0.989278
    117          1           0       -9.180231    2.303502   -2.498036
    118          1           0      -10.175951    1.715509   -0.102194
    119          1           0      -10.155034    0.023406    0.502733
    120          1           0      -11.798560   -0.695098   -0.507687
    121          1           0      -11.162812   -0.186903   -2.063986
    122          1           0      -12.439259    1.680311   -2.160616
    123          1           0      -12.372044    1.994146   -0.395666
    124          1           0      -14.073860    0.033127   -0.296704
    125          1           0      -14.764573   -1.112453   -2.056951
    126          1           0      -13.523850   -0.340110   -2.973624
    127          1           0      -15.140534    0.260731   -3.078165
    128          1           0      -15.940755    1.788128   -1.646899
    129          1           0      -14.625235    2.786739   -1.197345
    130          1           0      -15.765673    0.791060    0.804896
    131          1           0      -16.751807    2.060396    0.363049
    132          1           0      -15.468966    3.728225    1.501676
    133          1           0      -13.976740    2.828064    1.134505
    134          1           0      -15.810067    1.391068    3.141528
    135          1           0      -13.946315    0.363175    3.617973
    136          1           0      -13.196217    1.793220    4.237114
    137          1           0      -12.904198    1.515767    2.632081
    138          1           0      -16.424263    3.120284    4.322834
    139          1           0      -15.167563    4.239320    3.752159
    140          1           0      -14.766673    3.058559    4.936961
 ---------------------------------------------------------------------

 SCF Done:  E(RwB97XD) =  -3007.86240537     A.U. after   20 cycles

 Excitation energies and oscillator strengths:

 Excited State   1:      Singlet-A      1.6751 eV  740.16 nm  f=0.3808  <S**2>=0.000
     245 -> 248        0.19241
     246 -> 247        0.68080
     245 <- 248        0.11645
 This state for optimization and/or second-order correction.
 Total Energy, E(TD-HF/TD-DFT) =  -3007.80084699
 Copying the excited state density for this state as the 1-particle RhoCI density.

 Excited State   2:      Singlet-A      2.1463 eV  577.66 nm  f=0.1267  <S**2>=0.000
     245 -> 247        0.64553
     246 -> 248       -0.27348

 Excited State   3:      Singlet-A      3.4430 eV  360.11 nm  f=0.0002  <S**2>=0.000
     243 -> 247        0.68893

 Excited State   4:      Singlet-A      3.5368 eV  350.56 nm  f=0.3112  <S**2>=0.000
     242 -> 247        0.41992
     245 -> 247        0.18100
     246 -> 248        0.52524

 Excited State   5:      Singlet-A      3.7012 eV  334.99 nm  f=0.0165  <S**2>=0.000
     239 -> 247        0.23932
     239 -> 248       -0.10104
     239 -> 249        0.17539
     240 -> 247        0.41890
     240 -> 248       -0.18745
     240 -> 249        0.31698
     240 -> 250        0.17522
     242 -> 247        0.14981

 The electronic state is 1-A.
 Alpha  occ. eigenvalues --  -46.94829 -19.30781 -19.30628 -19.25371 -19.24526
 Alpha  occ. eigenvalues --  -19.24431 -19.24304 -14.47026 -14.46089 -14.44465
 Alpha  occ. eigenvalues --  -14.43389 -10.43657 -10.43007 -10.40348 -10.39767
 Alpha  occ. eigenvalues --  -10.36551 -10.35803 -10.35386 -10.35249 -10.35222
 Alpha  occ. eigenvalues --  -10.34667 -10.34431 -10.33946 -10.33936 -10.33842
 Alpha  occ. eigenvalues --  -10.32425 -10.32417 -10.32302 -10.32262 -10.31997
 Alpha  occ. eigenvalues --  -10.31831 -10.31663 -10.31544 -10.31502 -10.31269
 Alpha  occ. eigenvalues --  -10.31242 -10.31224 -10.31135 -10.30973 -10.30919
 Alpha  occ. eigenvalues --  -10.30547 -10.30508 -10.30288 -10.30247 -10.30239
 Alpha  occ. eigenvalues --  -10.30068 -10.29979 -10.29903 -10.29855 -10.29619
 Alpha  occ. eigenvalues --  -10.29480 -10.29381 -10.29317 -10.28973 -10.28929
 Alpha  occ. eigenvalues --  -10.28811 -10.28740 -10.28644 -10.28520 -10.28434
 Alpha  occ. eigenvalues --  -10.28326 -10.28246 -10.28102 -10.28009 -10.27803
 Alpha  occ. eigenvalues --  -10.27789  -3.20793  -1.94403  -1.93916  -1.93762
 Alpha  occ. eigenvalues --   -1.19305  -1.16820  -1.13101  -1.11192  -1.09546
 Alpha  occ. eigenvalues --   -1.08228  -1.06849  -1.06009  -1.05309  -1.04410
 Alpha  occ. eigenvalues --   -0.94145  -0.92485  -0.91962  -0.90932  -0.90709
 Alpha  occ. eigenvalues --   -0.90116  -0.89816  -0.89342  -0.88770  -0.88391
 Alpha  occ. eigenvalues --   -0.88355  -0.87502  -0.86271  -0.85587  -0.84862
 Alpha  occ. eigenvalues --   -0.84223  -0.83935  -0.83354  -0.82831  -0.82111
 Alpha  occ. eigenvalues --   -0.81687  -0.80155  -0.79865  -0.79179  -0.78350
 Alpha  occ. eigenvalues --   -0.77905  -0.77415  -0.76853  -0.76194  -0.75888
 Alpha  occ. eigenvalues --   -0.75565  -0.75039  -0.74166  -0.72569  -0.71804
 Alpha  occ. eigenvalues --   -0.70382  -0.70013  -0.69287  -0.68457  -0.67492
 Alpha  occ. eigenvalues --   -0.67291  -0.66727  -0.66370  -0.66191  -0.65644
 Alpha  occ. eigenvalues --   -0.65508  -0.65283  -0.64513  -0.63514  -0.62288
 Alpha  occ. eigenvalues --   -0.62073  -0.61899  -0.61431  -0.60739  -0.60145
 Alpha  occ. eigenvalues --   -0.59550  -0.59142  -0.58180  -0.57536  -0.57417
 Alpha  occ. eigenvalues --   -0.57324  -0.57092  -0.56608  -0.56274  -0.55691
 Alpha  occ. eigenvalues --   -0.55608  -0.55027  -0.54922  -0.54680  -0.54514
 Alpha  occ. eigenvalues --   -0.54075  -0.53975  -0.53666  -0.53594  -0.53432
 Alpha  occ. eigenvalues --   -0.53361  -0.53090  -0.53055  -0.52329  -0.52259
 Alpha  occ. eigenvalues --   -0.52151  -0.52038  -0.51956  -0.51522  -0.51426
 Alpha  occ. eigenvalues --   -0.51346  -0.51149  -0.50933  -0.50652  -0.50622
 Alpha  occ. eigenvalues --   -0.50296  -0.50231  -0.49961  -0.49744  -0.49520
 Alpha  occ. eigenvalues --   -0.49371  -0.49206  -0.48916  -0.48545  -0.48497
 Alpha  occ. eigenvalues --   -0.48392  -0.48182  -0.48148  -0.48030  -0.47675
 Alpha  occ. eigenvalues --   -0.47566  -0.47540  -0.47195  -0.47116  -0.46945
 Alpha  occ. eigenvalues --   -0.46752  -0.46292  -0.46203  -0.46057  -0.45853
 Alpha  occ. eigenvalues --   -0.45774  -0.45322  -0.45189  -0.44988  -0.44938
 Alpha  occ. eigenvalues --   -0.44772  -0.44543  -0.44377  -0.44191  -0.44059
 Alpha  occ. eigenvalues --   -0.44025  -0.43750  -0.43679  -0.43421  -0.43271
 Alpha  occ. eigenvalues --   -0.42973  -0.42856  -0.42667  -0.42422  -0.41742
 Alpha  occ. eigenvalues --   -0.41464  -0.41313  -0.41122  -0.40639  -0.40256
 Alpha  occ. eigenvalues --   -0.40152  -0.39692  -0.39665  -0.39555  -0.39456
 Alpha  occ. eigenvalues --   -0.39061  -0.38596  -0.38330  -0.38286  -0.38178
 Alpha  occ. eigenvalues --   -0.37921  -0.37507  -0.36682  -0.36448  -0.35842
 Alpha  occ. eigenvalues --   -0.35789  -0.35570  -0.35406  -0.33654  -0.33546
 Alpha  occ. eigenvalues --   -0.33282  -0.32467  -0.32094  -0.31449  -0.25763
 Alpha  occ. eigenvalues --   -0.23185
 Alpha virt. eigenvalues --   -0.07091   0.00175   0.02148   0.04048   0.06178
 Alpha virt. eigenvalues --    0.06440   0.06883   0.07801   0.08301   0.09121
 Alpha virt. eigenvalues --    0.10196   0.11416   0.11985   0.12291   0.12586

 Mulliken charges:
               1
     1  Mg   0.959983
     2  C   -0.060600
     3  C   -0.082636
     4  C   -0.045843
     5  C   -0.069003
     6  N   -0.342871
     7  C    0.012950
     8  C   -0.110234
     9  C   -0.096360
    10  C    0.061676
    11  C    0.021652
    12  C   -0.015271
    13  C    0.017079
    14  C    0.217197
    15  O   -0.257999
    16  O   -0.348339
    17  N   -0.452467
    18  C    0.156660
    19  C   -0.156617
    20  C   -0.068247
    21  C    0.117573
    22  C    0.036222
    23  C    0.052014
    24  O   -0.253306
    25  C   -0.013897
    26  N   -0.358608
    27  C    0.051941
    28  C   -0.095865
    29  C   -0.078663
    30  C    0.006969
    31  C    0.040248
    32  C   -0.017923
    33  C   -0.060012
    34  N   -0.438360
    35  C    0.140808
    36  C   -0.184682
    37  C   -0.101414
    38  C    0.211888
    39  C    0.084878
    40  C    0.192848
    41  O   -0.183976
    42  C   -0.053454
    43  C    0.272736
    44  O   -0.289834
    45  O   -0.384477
    46  C    0.143303
    47  C    0.258534
    48  C   -0.140665
    49  C   -0.231550
    50  C    0.041447
    51  C    0.040961
    52  C   -0.019254
    53  C    0.023349
    54  C   -0.205409
    55  C   -0.019147
    56  C    0.033024
    57  C   -0.043802
    58  C   -0.013135
    59  C   -0.169754
    60  C   -0.006203
    61  C    0.009743
    62  C   -0.043570
    63  C    0.053185
    64  C   -0.219823
    65  C   -0.003453
    66  C   -0.017743
    67  H   -0.009955
    68  H    0.019793
    69  H    0.002411
    70  H    0.059342
    71  H    0.042312
    72  H    0.034878
    73  H    0.052082
    74  H    0.036415
    75  H    0.036253
    76  H    0.048949
    77  H    0.038763
    78  H    0.056625
    79  H    0.046958
    80  H    0.057146
    81  H    0.041013
    82  H    0.076933
    83  H    0.049711
    84  H    0.053984
    85  H    0.034916
    86  H    0.025650
    87  H    0.055880
    88  H    0.042315
    89  H    0.037358
    90  H    0.034050
    91  H    0.027797
    92  H    0.042748
    93  H    0.047801
    94  H    0.054655
    95  H    0.031464
    96  H    0.057711
    97  H    0.056837
    98  H    0.068868
    99  H    0.074731
   100  H    0.042114
   101  H    0.058044
   102  H    0.054618
   103  H    0.048296
   104  H    0.023725
   105  H    0.018674
   106  H    0.045589
   107  H    0.045093
   108  H    0.048378
   109  H   -0.003704
   110  H    0.033900
   111  H    0.025920
   112  H    0.005781
   113  H    0.020839
   114  H    0.026166
   115  H    0.020490
   116  H    0.024144
   117  H    0.043657
   118  H    0.025955
   119  H    0.022503
   120  H    0.015353
   121  H    0.017979
   122  H    0.017934
   123  H    0.019552
   124  H    0.016824
   125  H    0.025953
   126  H    0.013841
   127  H    0.030335
   128  H    0.014103
   129  H    0.013090
   130  H    0.015137
   131  H    0.009696
   132  H    0.026836
   133  H    0.011520
   134  H    0.029154
   135  H    0.035274
   136  H    0.015830
   137  H    0.023966
   138  H    0.031789
   139  H    0.028083
   140  H    0.016774
 Sum of Mulliken charges =  -0.00000

 Dipole moment (field-independent basis, Debye):
    X=             -2.1150    Y=              2.0258    Z=             -0.5423  Tot=              2.9784
 Quadrupole moment (field-independent basis, Debye-Ang):
   XX=           -386.8774   YY=           -400.6853   ZZ=           -406.1165
   XY=              7.3875   XZ=             20.9812   YZ=             -4.4951

 Normal termination of Gaussian 16 at Fri Apr 29 08:33:51 2022.
