 Gaussian 16, Revision A.03,
 Gaussian 16:  ES64L-G16RevA.03 25-Dec-2016

 --------------------
 #p ZINDO=(nstates=5)
 --------------------

 -----------------------------
 step_201_chromophore_16 ZINDO
 -----------------------------
 Symbolic Z-matrix:
 Charge =  0 Multiplicity = 1

                         Standard orientation:
 ---------------------------------------------------------------------
 Center     Atomic      Atomic             Coordinates (Angstroms)
 Number     Number       Type             X           Y           Z
 ---------------------------------------------------------------------
      1         12           0        6.178557    0.623035    0.196419
      2          6           0        3.946357   -2.090539   -0.040926
      3          6           0        3.611731    2.672971   -0.975444
      4          6           0        8.374300    2.990473    0.234943
      5          6           0        8.647598   -1.796826    1.009254
      6          7           0        4.020199    0.335690   -0.380710
      7          6           0        3.331947   -0.850625   -0.315650
      8          6           0        1.825325   -0.650016   -0.708495
      9          6           0        1.747650    0.882370   -1.047508
     10          6           0        3.175822    1.359290   -0.732311
     11          6           0        1.204211    1.062154   -2.481745
     12          6           0        0.769649   -1.034477    0.387309
     13          6           0       -0.559828   -0.306063    0.405534
     14          6           0       -1.769193   -1.169076    0.854485
     15          8           0       -2.109438   -1.454195    1.998493
     16          8           0       -2.321570   -1.779130   -0.210906
     17          7           0        5.989333    2.626253   -0.305859
     18          6           0        4.889748    3.247828   -0.738247
     19          6           0        5.259143    4.662573   -1.047568
     20          6           0        6.670649    4.818551   -0.680173
     21          6           0        7.083103    3.460567   -0.216137
     22          6           0        4.176983    5.676110   -1.408508
     23          6           0        7.591288    6.025230   -0.832739
     24          8           0        8.794474    5.967590   -0.497520
     25          6           0        7.012159    7.275645   -1.436211
     26          7           0        8.232657    0.605119    0.618251
     27          6           0        8.935841    1.742065    0.537484
     28          6           0       10.350970    1.509225    0.929758
     29          6           0       10.301272    0.060279    1.544750
     30          6           0        8.940429   -0.429190    1.109405
     31          6           0       11.466321    1.712248   -0.192366
     32          6           0       10.454000   -0.013340    3.053520
     33          6           0        9.344572    0.617111    4.044261
     34          7           0        6.311687   -1.469151    0.306936
     35          6           0        7.431266   -2.363517    0.495295
     36          6           0        7.031425   -3.706851    0.311699
     37          6           0        5.673772   -3.591788    0.182989
     38          6           0        5.290488   -2.286542    0.190736
     39          6           0        7.863939   -4.967903    0.457197
     40          6           0        4.468211   -4.525433    0.090894
     41          8           0        4.345050   -5.734983    0.107113
     42          6           0        3.262886   -3.501407   -0.046379
     43          6           0        2.621168   -3.777980   -1.289002
     44          8           0        3.181347   -3.637338   -2.404697
     45          8           0        1.415249   -4.446798   -1.101711
     46          6           0        0.850030   -5.145531   -2.307277
     47          6           0       -3.164398   -2.963579   -0.008528
     48          6           0       -4.660036   -2.644570    0.082852
     49          6           0       -5.760679   -3.414811    0.194517
     50          6           0       -5.617900   -4.910599    0.477333
     51          6           0       -7.070070   -2.627639    0.308440
     52          6           0       -7.520198   -1.763218   -0.831710
     53          6           0       -7.786392   -0.293213   -0.471549
     54          6           0       -8.897279    0.387577   -1.267739
     55          6           0       -8.462459    1.816866   -1.837720
     56          6           0      -10.103268    0.663273   -0.378028
     57          6           0      -11.424574    0.162779   -1.066149
     58          6           0      -12.540727    1.243378   -1.168052
     59          6           0      -14.046284    0.717460   -1.144003
     60          6           0      -14.408364   -0.131720   -2.371935
     61          6           0      -15.109356    1.843714   -0.944278
     62          6           0      -15.693581    1.831549    0.487525
     63          6           0      -15.001781    2.743424    1.495241
     64          6           0      -15.017362    2.123645    2.991244
     65          6           0      -13.706387    1.394343    3.359638
     66          6           0      -15.373640    3.209603    4.044036
     67          1           0        2.812085    3.364602   -1.248412
     68          1           0        9.085476    3.818297    0.248686
     69          1           0        9.465796   -2.376368    1.441979
     70          1           0        1.623957   -1.256110   -1.592011
     71          1           0        1.106435    1.412453   -0.342740
     72          1           0        0.202197    1.488670   -2.428814
     73          1           0        1.101415    0.162722   -3.088771
     74          1           0        1.832885    1.775391   -3.014375
     75          1           0        1.359331   -0.883053    1.290559
     76          1           0        0.511400   -2.092412    0.343987
     77          1           0       -0.697915    0.034026   -0.620700
     78          1           0       -0.412268    0.573024    1.033943
     79          1           0        4.293633    6.092131   -2.409915
     80          1           0        4.269337    6.456876   -0.654121
     81          1           0        3.131152    5.371398   -1.445790
     82          1           0        6.710040    7.193736   -2.480366
     83          1           0        7.840971    7.973717   -1.320648
     84          1           0        6.236401    7.660258   -0.773348
     85          1           0       10.563031    2.167681    1.771358
     86          1           0       10.975950   -0.549208    0.944764
     87          1           0       12.140167    2.515054    0.105057
     88          1           0       10.878406    1.970505   -1.074185
     89          1           0       11.976085    0.777943   -0.428776
     90          1           0       11.413050    0.449542    3.285523
     91          1           0       10.494831   -1.070337    3.317357
     92          1           0        9.761309    1.463529    4.590546
     93          1           0        9.083634   -0.119962    4.803460
     94          1           0        8.539550    0.904433    3.367597
     95          1           0        8.927878   -4.857438    0.666265
     96          1           0        7.779200   -5.571171   -0.446954
     97          1           0        7.425843   -5.535674    1.277795
     98          1           0        2.523056   -3.562759    0.752253
     99          1           0        1.575637   -5.543130   -3.017620
    100          1           0        0.260832   -4.428352   -2.878267
    101          1           0        0.133431   -5.884295   -1.947796
    102          1           0       -2.918399   -3.519766    0.896292
    103          1           0       -2.945306   -3.725049   -0.757390
    104          1           0       -4.834940   -1.576095   -0.037643
    105          1           0       -6.453941   -5.448422    0.029408
    106          1           0       -5.928845   -5.107419    1.502742
    107          1           0       -4.677108   -5.348436    0.140687
    108          1           0       -7.112860   -2.188772    1.304851
    109          1           0       -7.841967   -3.396188    0.357977
    110          1           0       -8.361792   -2.215454   -1.357455
    111          1           0       -6.598052   -1.713159   -1.410258
    112          1           0       -6.881512    0.242290   -0.757736
    113          1           0       -7.957937   -0.194720    0.601106
    114          1           0       -9.104096   -0.249749   -2.128366
    115          1           0       -7.484416    1.730246   -2.309411
    116          1           0       -8.215555    2.456743   -0.989278
    117          1           0       -9.180231    2.303502   -2.498036
    118          1           0      -10.175951    1.715509   -0.102194
    119          1           0      -10.155034    0.023406    0.502733
    120          1           0      -11.798560   -0.695098   -0.507687
    121          1           0      -11.162812   -0.186903   -2.063986
    122          1           0      -12.439259    1.680311   -2.160616
    123          1           0      -12.372044    1.994146   -0.395666
    124          1           0      -14.073860    0.033127   -0.296704
    125          1           0      -14.764573   -1.112453   -2.056951
    126          1           0      -13.523850   -0.340110   -2.973624
    127          1           0      -15.140534    0.260731   -3.078165
    128          1           0      -15.940755    1.788128   -1.646899
    129          1           0      -14.625235    2.786739   -1.197345
    130          1           0      -15.765673    0.791060    0.804896
    131          1           0      -16.751807    2.060396    0.363049
    132          1           0      -15.468966    3.728225    1.501676
    133          1           0      -13.976740    2.828064    1.134505
    134          1           0      -15.810067    1.391068    3.141528
    135          1           0      -13.946315    0.363175    3.617973
    136          1           0      -13.196217    1.793220    4.237114
    137          1           0      -12.904198    1.515767    2.632081
    138          1           0      -16.424263    3.120284    4.322834
    139          1           0      -15.167563    4.239320    3.752159
    140          1           0      -14.766673    3.058559    4.936961
 ---------------------------------------------------------------------

 SCF Done:  E(RZINDO/S) =  -474.104071111     A.U. after   20 cycles

 Excitation energies and oscillator strengths:

 Excited State   1:      Singlet-A      1.2596 eV  984.28 nm  f=0.6082  <S**2>=0.000
     175 ->178        -0.20179
     176 ->177         0.66017
 This state for optimization and/or second-order correction.
 Total Energy, E(CIS/TDA) =  -474.057780086
 Copying the excited state density for this state as the 1-particle RhoCI density.

 Excited State   2:      Singlet-A      1.9128 eV  648.18 nm  f=0.0634  <S**2>=0.000
     175 ->177         0.56038
     176 ->178         0.40662

 Excited State   3:      Singlet-A      3.0174 eV  410.90 nm  f=0.0615  <S**2>=0.000
     168 ->177         0.25263
     168 ->178         0.12224
     168 ->179        -0.34164
     168 ->180         0.28204
     168 ->182        -0.11412
     168 ->185        -0.17748
     168 ->187        -0.13340
     169 ->177        -0.12053
     169 ->179         0.14390
     169 ->180        -0.12355
     176 ->178         0.13071

 Excited State   4:      Singlet-A      3.0474 eV  406.86 nm  f=0.1656  <S**2>=0.000
     169 ->177        -0.10402
     169 ->179        -0.12612
     175 ->177        -0.14228
     176 ->178         0.22100
     176 ->179         0.54927

 Excited State   5:      Singlet-A      3.0528 eV  406.13 nm  f=0.9467  <S**2>=0.000
     168 ->179         0.10493
     175 ->177        -0.33752
     176 ->178         0.47758
     176 ->179        -0.27788
     176 ->180         0.10423

 The electronic state is 1-A.
 Alpha  occ. eigenvalues --   -1.85904  -1.82833  -1.78939  -1.73703  -1.70807
 Alpha  occ. eigenvalues --   -1.70544  -1.64402  -1.60353  -1.57021  -1.56733
 Alpha  occ. eigenvalues --   -1.53890  -1.50376  -1.49191  -1.48428  -1.44776
 Alpha  occ. eigenvalues --   -1.44074  -1.41669  -1.39062  -1.39013  -1.37482
 Alpha  occ. eigenvalues --   -1.34895  -1.33466  -1.33106  -1.31109  -1.28913
 Alpha  occ. eigenvalues --   -1.27491  -1.24287  -1.22265  -1.20877  -1.18460
 Alpha  occ. eigenvalues --   -1.17861  -1.14713  -1.14681  -1.14265  -1.13211
 Alpha  occ. eigenvalues --   -1.12041  -1.11307  -1.10626  -1.05444  -1.03926
 Alpha  occ. eigenvalues --   -1.02860  -1.01905  -0.99565  -0.98627  -0.97677
 Alpha  occ. eigenvalues --   -0.95874  -0.93960  -0.93477  -0.92628  -0.92009
 Alpha  occ. eigenvalues --   -0.91322  -0.89912  -0.89044  -0.88566  -0.88020
 Alpha  occ. eigenvalues --   -0.85182  -0.84484  -0.83101  -0.81801  -0.80366
 Alpha  occ. eigenvalues --   -0.79677  -0.79275  -0.77815  -0.76367  -0.75780
 Alpha  occ. eigenvalues --   -0.75704  -0.75563  -0.74632  -0.74365  -0.74071
 Alpha  occ. eigenvalues --   -0.73444  -0.73207  -0.72063  -0.71695  -0.70320
 Alpha  occ. eigenvalues --   -0.69737  -0.69374  -0.68658  -0.67962  -0.67472
 Alpha  occ. eigenvalues --   -0.67297  -0.66706  -0.66379  -0.65804  -0.64888
 Alpha  occ. eigenvalues --   -0.64852  -0.64221  -0.63736  -0.63436  -0.63291
 Alpha  occ. eigenvalues --   -0.62987  -0.62632  -0.62046  -0.61898  -0.61740
 Alpha  occ. eigenvalues --   -0.61661  -0.61445  -0.61120  -0.60192  -0.59861
 Alpha  occ. eigenvalues --   -0.59598  -0.59343  -0.59037  -0.58610  -0.58189
 Alpha  occ. eigenvalues --   -0.57901  -0.57462  -0.56892  -0.56666  -0.56307
 Alpha  occ. eigenvalues --   -0.56110  -0.55651  -0.55559  -0.55226  -0.54824
 Alpha  occ. eigenvalues --   -0.54455  -0.54090  -0.53699  -0.53080  -0.52940
 Alpha  occ. eigenvalues --   -0.52740  -0.52461  -0.52384  -0.51703  -0.51595
 Alpha  occ. eigenvalues --   -0.51233  -0.50849  -0.50761  -0.50288  -0.50174
 Alpha  occ. eigenvalues --   -0.50137  -0.49943  -0.49767  -0.49156  -0.49091
 Alpha  occ. eigenvalues --   -0.48666  -0.48504  -0.48306  -0.48009  -0.47765
 Alpha  occ. eigenvalues --   -0.47336  -0.47097  -0.47027  -0.46844  -0.46439
 Alpha  occ. eigenvalues --   -0.46201  -0.46051  -0.45664  -0.45429  -0.45103
 Alpha  occ. eigenvalues --   -0.45060  -0.44848  -0.44768  -0.44520  -0.44015
 Alpha  occ. eigenvalues --   -0.43648  -0.43559  -0.42481  -0.42244  -0.41916
 Alpha  occ. eigenvalues --   -0.41783  -0.41250  -0.41231  -0.38957  -0.38811
 Alpha  occ. eigenvalues --   -0.38340  -0.36890  -0.35821  -0.35370  -0.34705
 Alpha  occ. eigenvalues --   -0.33410  -0.32808  -0.32386  -0.31714  -0.26454
 Alpha  occ. eigenvalues --   -0.21903
 Alpha virt. eigenvalues --   -0.08593  -0.02016  -0.00776   0.00591   0.01516
 Alpha virt. eigenvalues --    0.02621   0.02820   0.02955   0.04738   0.05030
 Alpha virt. eigenvalues --    0.06147   0.06671   0.06881   0.07557   0.08078

 Mulliken charges:
               1
     1  Mg   0.423728
     2  C   -0.049013
     3  C   -0.084808
     4  C   -0.064996
     5  C   -0.063896
     6  N   -0.283020
     7  C    0.116801
     8  C   -0.004020
     9  C    0.004010
    10  C    0.128082
    11  C   -0.048317
    12  C   -0.022297
    13  C    0.011608
    14  C    0.471979
    15  O   -0.519741
    16  O   -0.267112
    17  N   -0.302597
    18  C    0.118323
    19  C   -0.002688
    20  C   -0.052668
    21  C    0.123664
    22  C   -0.041345
    23  C    0.333505
    24  O   -0.528504
    25  C   -0.033091
    26  N   -0.261715
    27  C    0.150955
    28  C   -0.000416
    29  C    0.001612
    30  C    0.116673
    31  C   -0.052753
    32  C   -0.028453
    33  C   -0.060206
    34  N   -0.343330
    35  C    0.078805
    36  C    0.038167
    37  C   -0.040611
    38  C    0.148464
    39  C   -0.037044
    40  C    0.332540
    41  O   -0.495871
    42  C    0.056625
    43  C    0.493547
    44  O   -0.544541
    45  O   -0.275311
    46  C    0.074612
    47  C    0.108124
    48  C   -0.078856
    49  C   -0.018501
    50  C   -0.044974
    51  C   -0.015422
    52  C   -0.030707
    53  C   -0.034987
    54  C   -0.010354
    55  C   -0.064749
    56  C   -0.037507
    57  C   -0.045794
    58  C   -0.039081
    59  C   -0.012748
    60  C   -0.057382
    61  C   -0.034376
    62  C   -0.035335
    63  C   -0.029189
    64  C   -0.015825
    65  C   -0.059166
    66  C   -0.060398
    67  H    0.023637
    68  H    0.038775
    69  H    0.030661
    70  H    0.039835
    71  H    0.032018
    72  H    0.013247
    73  H    0.031574
    74  H    0.021182
    75  H    0.024374
    76  H    0.024481
    77  H    0.034533
    78  H    0.037658
    79  H    0.026988
    80  H    0.027512
    81  H    0.028362
    82  H    0.048545
    83  H    0.032251
    84  H    0.038504
    85  H    0.027244
    86  H    0.031009
    87  H    0.032562
    88  H    0.025641
    89  H    0.026563
    90  H    0.014060
    91  H    0.014637
    92  H    0.022976
    93  H    0.025892
    94  H    0.034565
    95  H    0.022761
    96  H    0.035698
    97  H    0.032996
    98  H    0.052395
    99  H    0.060128
   100  H    0.030403
   101  H    0.035887
   102  H    0.049550
   103  H    0.039352
   104  H    0.024088
   105  H    0.015210
   106  H    0.035420
   107  H    0.035759
   108  H    0.033810
   109  H   -0.000568
   110  H    0.028424
   111  H    0.022792
   112  H    0.014712
   113  H    0.024002
   114  H    0.026353
   115  H    0.009360
   116  H    0.015378
   117  H    0.026702
   118  H    0.029234
   119  H    0.017142
   120  H    0.016911
   121  H    0.018841
   122  H    0.015729
   123  H    0.022368
   124  H    0.018302
   125  H    0.013316
   126  H    0.010968
   127  H    0.021843
   128  H    0.017260
   129  H    0.015685
   130  H    0.019144
   131  H    0.008180
   132  H    0.024882
   133  H    0.024681
   134  H    0.023507
   135  H    0.020448
   136  H    0.013292
   137  H    0.020810
   138  H    0.016362
   139  H    0.018918
   140  H    0.014169
 Sum of Mulliken charges =  -0.00000

 Dipole moment (field-independent basis, Debye):
    X=             -3.0975    Y=              3.8865    Z=             -0.1615  Tot=              4.9724
 N-N= 4.218801575060D+03 E-N= 0.000000000000D+00  KE=-9.111868147349D+03
 Leave Link  601 at Fri Apr 29 08:45:12 2022, MaxMem=  6710886400 cpu:               0.8 elap:               0.1
 (Enter /sw/apps/gaussian-16.0/g16/l9999.exe)
 1\1\GINC-BP1-COMPUTE103\SP\RZINDO CIS\STO-3G\C55H74Mg1N4O6\OF15641\29-
 Apr-2022\0\\#p ZINDO=(nstates=5)\\step_201_chromophore_16 ZINDO\\0,1\M
 g,0,40.116,41.253,27.492\C,0,39.232,43.658,29.908\C,0,41.125,39.18,30.
 109\C,0,41.102,39.22,25.185\C,0,39.342,43.746,25.084\N,0,40.121,41.38,
 29.741\C,0,39.638,42.433,30.478\C,0,39.723,42.13,32.016\C,0,40.375,40.
 701,32.061\C,0,40.5,40.352,30.568\C,0,41.656,40.75,32.922\C,0,38.363,4
 2.149,32.799\C,0,38.217,41.272,34.027\C,0,37.328,41.868,35.151\O,0,36.

 Normal termination of Gaussian 16 at Fri Apr 29 08:45:12 2022.
