 Gaussian 16, Revision A.03,
 Gaussian 16:  ES64L-G16RevA.03 25-Dec-2016

 ------------------------------
 #p blyp/Def2SVP td=(nstates=5)
 ------------------------------

 --------------------------------------------------
 step_201_chromophore_27 TDDFT with blyp functional
 --------------------------------------------------
 Symbolic Z-matrix:
 Charge =  0 Multiplicity = 1

                         Standard orientation:
 ---------------------------------------------------------------------
 Center     Atomic      Atomic             Coordinates (Angstroms)
 Number     Number       Type             X           Y           Z
 ---------------------------------------------------------------------
      1         12           0       -4.404600    0.942745   -0.049729
      2          6           0       -3.986001   -2.544801    0.311303
      3          6           0       -0.984782    1.308501    0.456875
      4          6           0       -4.861300    4.236344    0.057845
      5          6           0       -7.860712    0.524738   -0.168287
      6          7           0       -2.685646   -0.433895    0.248678
      7          6           0       -2.737149   -1.808630    0.206566
      8          6           0       -1.353503   -2.460696    0.349821
      9          6           0       -0.439497   -1.252516    0.702353
     10          6           0       -1.377838    0.004943    0.423233
     11          6           0        0.092183   -1.204714    2.234446
     12          6           0       -0.975510   -3.116196   -1.030101
     13          6           0       -0.195318   -4.369021   -0.847088
     14          6           0        1.253265   -4.146222   -0.673360
     15          8           0        1.675345   -3.542547    0.274657
     16          8           0        2.019722   -4.813766   -1.557184
     17          7           0       -3.053681    2.557732    0.069901
     18          6           0       -1.648099    2.482617    0.328807
     19          6           0       -1.126948    3.823751    0.305617
     20          6           0       -2.242928    4.649028    0.339390
     21          6           0       -3.451761    3.842166    0.166698
     22          6           0        0.373482    4.071165    0.249656
     23          6           0       -2.302774    6.254162    0.385917
     24          8           0       -3.347016    6.848067    0.239573
     25          6           0       -0.992140    6.970996    0.339060
     26          7           0       -6.138535    2.213151   -0.264958
     27          6           0       -6.048519    3.572444   -0.281243
     28          6           0       -7.343205    4.226708   -0.413434
     29          6           0       -8.347037    3.013033   -0.584496
     30          6           0       -7.465140    1.819288   -0.287835
     31          6           0       -7.621572    5.246636    0.777227
     32          6           0       -9.201558    2.919880   -1.864308
     33          6           0      -10.647215    2.478743   -1.706272
     34          7           0       -5.696351   -0.652284   -0.070613
     35          6           0       -7.103731   -0.665094   -0.081316
     36          6           0       -7.506521   -2.057870    0.028759
     37          6           0       -6.308239   -2.767354    0.241156
     38          6           0       -5.279518   -1.955703    0.122385
     39          6           0       -8.902839   -2.705424    0.071544
     40          6           0       -5.776730   -4.075306    0.422896
     41          8           0       -6.327098   -5.197860    0.499812
     42          6           0       -4.218930   -4.032884    0.380787
     43          6           0       -3.880023   -4.683407    1.631414
     44          8           0       -3.890491   -4.159902    2.729217
     45          8           0       -3.426526   -5.917236    1.451991
     46          6           0       -2.635135   -6.456313    2.543121
     47          6           0        3.457964   -4.794993   -1.444139
     48          6           0        4.026027   -3.406624   -1.623065
     49          6           0        5.330774   -3.074828   -1.715422
     50          6           0        6.498973   -4.064897   -1.532100
     51          6           0        5.810969   -1.608551   -1.831146
     52          6           0        6.177647   -1.136617   -3.201296
     53          6           0        7.668255   -0.668175   -3.313584
     54          6           0        7.652715    0.797163   -3.818089
     55          6           0        7.079376    1.112316   -5.199818
     56          6           0        9.069672    1.417504   -3.749823
     57          6           0        9.268016    2.301167   -2.418098
     58          6           0       10.192175    1.700333   -1.377673
     59          6           0        9.603424    1.563449    0.036272
     60          6           0        9.269525    0.091765    0.476047
     61          6           0       10.504688    2.258958    1.117974
     62          6           0        9.696104    2.862064    2.335417
     63          6           0       10.262708    2.379313    3.679245
     64          6           0        9.658311    1.109414    4.218481
     65          6           0        8.734376    1.386817    5.405185
     66          6           0       10.736954    0.098183    4.627595
     67          1           0        0.056077    1.373122    0.779784
     68          1           0       -4.988488    5.318668    0.116522
     69          1           0       -8.919061    0.302273   -0.322459
     70          1           0       -1.389781   -3.147058    1.195189
     71          1           0        0.387613   -1.185711   -0.003855
     72          1           0        1.113451   -0.825644    2.267990
     73          1           0        0.014029   -2.218725    2.624293
     74          1           0       -0.467655   -0.609519    2.956359
     75          1           0       -0.423552   -2.468715   -1.711885
     76          1           0       -1.908724   -3.323925   -1.552956
     77          1           0       -0.283547   -5.182903   -1.566608
     78          1           0       -0.588677   -4.773919    0.086184
     79          1           0        0.654752    4.539743    1.193376
     80          1           0        0.558919    4.723948   -0.603775
     81          1           0        0.909541    3.132572    0.110282
     82          1           0       -1.222741    8.018205    0.533555
     83          1           0       -0.678570    7.009896   -0.703759
     84          1           0       -0.311145    6.700819    1.146171
     85          1           0       -7.403387    4.804742   -1.335965
     86          1           0       -9.057493    3.153701    0.230638
     87          1           0       -6.915907    5.185964    1.605898
     88          1           0       -8.624501    5.228108    1.202039
     89          1           0       -7.423097    6.222888    0.335169
     90          1           0       -8.613427    2.351297   -2.583913
     91          1           0       -9.338747    3.934743   -2.235913
     92          1           0      -10.842195    1.724018   -2.468239
     93          1           0      -11.438517    3.213761   -1.856374
     94          1           0      -10.735764    1.908273   -0.782078
     95          1           0       -9.479517   -2.172626   -0.683197
     96          1           0       -9.322689   -2.642323    1.076069
     97          1           0       -8.849760   -3.771029   -0.153618
     98          1           0       -3.786897   -4.563038   -0.467168
     99          1           0       -2.138404   -7.297513    2.059169
    100          1           0       -3.123163   -6.757804    3.470180
    101          1           0       -1.854949   -5.723452    2.750953
    102          1           0        3.721519   -5.454301   -2.270521
    103          1           0        3.740733   -5.153280   -0.453774
    104          1           0        3.298443   -2.608076   -1.766849
    105          1           0        6.999641   -3.721950   -0.627085
    106          1           0        7.135992   -4.197733   -2.406469
    107          1           0        6.127519   -5.027730   -1.181916
    108          1           0        6.564201   -1.429475   -1.064809
    109          1           0        4.986149   -0.927424   -1.623060
    110          1           0        5.526348   -0.295072   -3.438508
    111          1           0        5.999092   -1.946101   -3.909731
    112          1           0        8.165727   -1.186609   -4.133090
    113          1           0        8.232215   -0.834164   -2.395651
    114          1           0        6.993852    1.381364   -3.176215
    115          1           0        7.058688    2.198574   -5.286714
    116          1           0        6.137438    0.597720   -5.395868
    117          1           0        7.763051    0.713001   -5.948776
    118          1           0        9.219746    2.125401   -4.565599
    119          1           0        9.829610    0.654880   -3.923462
    120          1           0        8.268104    2.529086   -2.048174
    121          1           0        9.674017    3.233431   -2.812486
    122          1           0       11.114647    2.280769   -1.411467
    123          1           0       10.516574    0.723148   -1.735682
    124          1           0        8.576052    1.909911   -0.076052
    125          1           0        9.791955    0.061117    1.432281
    126          1           0        9.779383   -0.636411   -0.154893
    127          1           0        8.190116   -0.028230    0.567170
    128          1           0       11.017414    3.057975    0.582858
    129          1           0       11.294682    1.652829    1.561981
    130          1           0        8.683208    2.488169    2.181569
    131          1           0        9.696894    3.951212    2.373503
    132          1           0       10.013156    3.201208    4.350975
    133          1           0       11.349695    2.342479    3.758464
    134          1           0        8.941111    0.632866    3.551279
    135          1           0        8.529071    0.499061    6.002496
    136          1           0        7.789601    1.894263    5.210549
    137          1           0        9.326145    2.025415    6.060895
    138          1           0       11.703801    0.399896    4.223117
    139          1           0       10.518222   -0.910679    4.279096
    140          1           0       10.832893   -0.019821    5.707145
 ---------------------------------------------------------------------

 SCF Done:  E(RB-LYP) =  -3007.36130157     A.U. after   21 cycles

 Excitation energies and oscillator strengths:

 Excited State   1:      Singlet-A      1.8251 eV  679.34 nm  f=0.2291  <S**2>=0.000
     244 -> 247       -0.31204
     245 -> 248        0.17285
     246 -> 247        0.61155
     246 <- 247       -0.12756
 This state for optimization and/or second-order correction.
 Total Energy, E(TD-HF/TD-DFT) =  -3007.29423165
 Copying the excited state density for this state as the 1-particle RhoCI density.

 Excited State   2:      Singlet-A      1.8695 eV  663.18 nm  f=0.0808  <S**2>=0.000
     244 -> 247        0.59492
     245 -> 247       -0.19269
     246 -> 247        0.31384

 Excited State   3:      Singlet-A      1.9975 eV  620.71 nm  f=0.0775  <S**2>=0.000
     243 -> 247       -0.11372
     244 -> 247        0.21595
     245 -> 247        0.61697
     246 -> 248       -0.21545

 Excited State   4:      Singlet-A      2.1722 eV  570.78 nm  f=0.0066  <S**2>=0.000
     243 -> 247        0.69324

 Excited State   5:      Singlet-A      2.4744 eV  501.06 nm  f=0.0022  <S**2>=0.000
     240 -> 247        0.65375
     242 -> 247        0.25817

 The electronic state is 1-A.
 Alpha  occ. eigenvalues --  -46.26152 -18.82571 -18.81550 -18.76636 -18.76478
 Alpha  occ. eigenvalues --  -18.75135 -18.74844 -14.03045 -14.02267 -14.00490
 Alpha  occ. eigenvalues --  -13.99999 -10.03780 -10.02637 -10.00454  -9.99007
 Alpha  occ. eigenvalues --   -9.98914  -9.97479  -9.96483  -9.95952  -9.95837
 Alpha  occ. eigenvalues --   -9.95803  -9.95679  -9.95316  -9.94937  -9.93971
 Alpha  occ. eigenvalues --   -9.93912  -9.93799  -9.93640  -9.93582  -9.93575
 Alpha  occ. eigenvalues --   -9.93469  -9.93430  -9.93252  -9.93239  -9.93231
 Alpha  occ. eigenvalues --   -9.93172  -9.92933  -9.92726  -9.92591  -9.92529
 Alpha  occ. eigenvalues --   -9.92344  -9.92182  -9.92146  -9.92078  -9.92062
 Alpha  occ. eigenvalues --   -9.91897  -9.91855  -9.91852  -9.91807  -9.91722
 Alpha  occ. eigenvalues --   -9.91716  -9.91709  -9.91614  -9.91594  -9.91469
 Alpha  occ. eigenvalues --   -9.91403  -9.91335  -9.91206  -9.91094  -9.90959
 Alpha  occ. eigenvalues --   -9.90957  -9.90765  -9.90705  -9.90624  -9.90599
 Alpha  occ. eigenvalues --   -9.89783  -2.90717  -1.71171  -1.70590  -1.70421
 Alpha  occ. eigenvalues --   -0.99553  -0.98883  -0.92810  -0.91396  -0.89588
 Alpha  occ. eigenvalues --   -0.88932  -0.85625  -0.84854  -0.84594  -0.83756
 Alpha  occ. eigenvalues --   -0.75615  -0.73904  -0.73464  -0.73085  -0.72292
 Alpha  occ. eigenvalues --   -0.72087  -0.71575  -0.71199  -0.70936  -0.70010
 Alpha  occ. eigenvalues --   -0.69291  -0.68675  -0.68043  -0.67790  -0.66930
 Alpha  occ. eigenvalues --   -0.66651  -0.66125  -0.65551  -0.64970  -0.64524
 Alpha  occ. eigenvalues --   -0.64276  -0.62229  -0.61926  -0.61490  -0.61015
 Alpha  occ. eigenvalues --   -0.60701  -0.60150  -0.59778  -0.59628  -0.59227
 Alpha  occ. eigenvalues --   -0.58767  -0.57277  -0.56712  -0.56014  -0.54778
 Alpha  occ. eigenvalues --   -0.53910  -0.53575  -0.52596  -0.51940  -0.51192
 Alpha  occ. eigenvalues --   -0.51067  -0.50606  -0.50294  -0.50083  -0.49951
 Alpha  occ. eigenvalues --   -0.49527  -0.49495  -0.48971  -0.48241  -0.46794
 Alpha  occ. eigenvalues --   -0.46175  -0.45645  -0.45581  -0.45379  -0.44981
 Alpha  occ. eigenvalues --   -0.44201  -0.43970  -0.43025  -0.42622  -0.42522
 Alpha  occ. eigenvalues --   -0.42087  -0.41719  -0.41632  -0.41162  -0.40884
 Alpha  occ. eigenvalues --   -0.40824  -0.40730  -0.40635  -0.40628  -0.40172
 Alpha  occ. eigenvalues --   -0.39846  -0.39711  -0.39630  -0.39444  -0.39180
 Alpha  occ. eigenvalues --   -0.38941  -0.38712  -0.38408  -0.38381  -0.38169
 Alpha  occ. eigenvalues --   -0.38096  -0.37947  -0.37783  -0.37648  -0.37454
 Alpha  occ. eigenvalues --   -0.37225  -0.37064  -0.36830  -0.36493  -0.36368
 Alpha  occ. eigenvalues --   -0.36038  -0.35869  -0.35640  -0.35467  -0.35307
 Alpha  occ. eigenvalues --   -0.35195  -0.35049  -0.34983  -0.34619  -0.34490
 Alpha  occ. eigenvalues --   -0.34396  -0.34341  -0.34199  -0.33908  -0.33863
 Alpha  occ. eigenvalues --   -0.33805  -0.33515  -0.33372  -0.33012  -0.32870
 Alpha  occ. eigenvalues --   -0.32741  -0.32577  -0.32342  -0.32280  -0.31995
 Alpha  occ. eigenvalues --   -0.31865  -0.31753  -0.31551  -0.31325  -0.31196
 Alpha  occ. eigenvalues --   -0.30949  -0.30841  -0.30644  -0.30610  -0.30472
 Alpha  occ. eigenvalues --   -0.30331  -0.30170  -0.30100  -0.29866  -0.29803
 Alpha  occ. eigenvalues --   -0.29575  -0.29508  -0.29200  -0.29129  -0.28908
 Alpha  occ. eigenvalues --   -0.28691  -0.28417  -0.28366  -0.28106  -0.28034
 Alpha  occ. eigenvalues --   -0.27697  -0.27286  -0.27042  -0.26878  -0.26209
 Alpha  occ. eigenvalues --   -0.26158  -0.25792  -0.25739  -0.25495  -0.25299
 Alpha  occ. eigenvalues --   -0.25223  -0.24722  -0.24508  -0.23802  -0.23300
 Alpha  occ. eigenvalues --   -0.23190  -0.22097  -0.21703  -0.20767  -0.20376
 Alpha  occ. eigenvalues --   -0.20272  -0.19813  -0.19137  -0.18057  -0.16742
 Alpha  occ. eigenvalues --   -0.15674
 Alpha virt. eigenvalues --   -0.11282  -0.06328  -0.05761  -0.04602  -0.03068
 Alpha virt. eigenvalues --   -0.01829  -0.01447  -0.01103  -0.00328  -0.00283
 Alpha virt. eigenvalues --    0.01221   0.01584   0.02215   0.02757   0.02806

 Mulliken charges:
               1
     1  Mg   0.674775
     2  C   -0.000532
     3  C   -0.062629
     4  C   -0.019102
     5  C   -0.071451
     6  N   -0.217360
     7  C   -0.053113
     8  C    0.001956
     9  C    0.041984
    10  C   -0.025533
    11  C    0.114461
    12  C    0.121273
    13  C    0.198594
    14  C    0.001806
    15  O   -0.183900
    16  O   -0.248063
    17  N   -0.304202
    18  C    0.174127
    19  C   -0.155523
    20  C   -0.000627
    21  C    0.075223
    22  C    0.193788
    23  C   -0.070454
    24  O   -0.140138
    25  C    0.147159
    26  N   -0.234565
    27  C    0.016232
    28  C    0.029055
    29  C    0.049313
    30  C    0.046661
    31  C    0.108948
    32  C    0.114262
    33  C    0.064663
    34  N   -0.313400
    35  C    0.092887
    36  C   -0.186894
    37  C    0.166163
    38  C    0.079561
    39  C    0.163730
    40  C   -0.109460
    41  O   -0.172753
    42  C    0.123732
    43  C    0.061137
    44  O   -0.192256
    45  O   -0.228582
    46  C    0.228021
    47  C    0.337209
    48  C   -0.103185
    49  C   -0.171160
    50  C    0.138198
    51  C    0.134401
    52  C    0.078516
    53  C    0.113831
    54  C   -0.101825
    55  C    0.103896
    56  C    0.083139
    57  C    0.058737
    58  C    0.149372
    59  C   -0.110924
    60  C    0.103130
    61  C    0.117564
    62  C    0.076957
    63  C    0.112963
    64  C   -0.078057
    65  C    0.084656
    66  C    0.102497
    67  H   -0.062328
    68  H   -0.047649
    69  H   -0.073936
    70  H   -0.004989
    71  H   -0.024423
    72  H    0.000117
    73  H   -0.005737
    74  H   -0.003776
    75  H   -0.020185
    76  H   -0.017654
    77  H   -0.022596
    78  H   -0.015050
    79  H    0.008398
    80  H    0.006206
    81  H   -0.010744
    82  H   -0.023233
    83  H    0.025032
    84  H    0.008483
    85  H   -0.022551
    86  H   -0.040859
    87  H    0.003553
    88  H   -0.003898
    89  H    0.001380
    90  H   -0.015291
    91  H   -0.028162
    92  H   -0.018866
    93  H    0.001183
    94  H   -0.002212
    95  H   -0.004182
    96  H    0.011489
    97  H    0.005417
    98  H   -0.001305
    99  H    0.002591
   100  H    0.029584
   101  H    0.000690
   102  H    0.011105
   103  H    0.011519
   104  H   -0.031093
   105  H   -0.003081
   106  H    0.015790
   107  H   -0.029488
   108  H   -0.020714
   109  H   -0.048256
   110  H   -0.016920
   111  H   -0.027512
   112  H   -0.039751
   113  H   -0.020700
   114  H   -0.045280
   115  H   -0.003212
   116  H   -0.018908
   117  H   -0.025574
   118  H   -0.051110
   119  H   -0.034618
   120  H   -0.030642
   121  H   -0.036252
   122  H   -0.041695
   123  H   -0.047254
   124  H   -0.036292
   125  H   -0.022949
   126  H   -0.014472
   127  H    0.004453
   128  H   -0.038676
   129  H   -0.025266
   130  H   -0.027960
   131  H   -0.029471
   132  H   -0.051626
   133  H   -0.037312
   134  H   -0.025502
   135  H   -0.021828
   136  H   -0.014741
   137  H   -0.029191
   138  H   -0.019350
   139  H   -0.017672
   140  H   -0.021884
 Sum of Mulliken charges =  -0.00000

 Dipole moment (field-independent basis, Debye):
    X=              5.0663    Y=              2.1330    Z=             -2.8049  Tot=              6.1712
 Quadrupole moment (field-independent basis, Debye-Ang):
   XX=           -388.1326   YY=           -413.9860   ZZ=           -407.4781
   XY=            -32.1225   XZ=             10.4817   YZ=              3.9077

 Normal termination of Gaussian 16 at Fri Apr 29 09:56:06 2022.
