 Gaussian 16, Revision A.03,
 Gaussian 16:  ES64L-G16RevA.03 25-Dec-2016

 -----------------------------------
 #p cam-b3lyp/Def2SVP td=(nstates=5)
 -----------------------------------

 -------------------------------------------------------
 step_201_chromophore_27 TDDFT with cam-b3lyp functional
 -------------------------------------------------------
 Symbolic Z-matrix:
 Charge =  0 Multiplicity = 1

                         Standard orientation:
 ---------------------------------------------------------------------
 Center     Atomic      Atomic             Coordinates (Angstroms)
 Number     Number       Type             X           Y           Z
 ---------------------------------------------------------------------
      1         12           0       -4.404600    0.942745   -0.049729
      2          6           0       -3.986001   -2.544801    0.311303
      3          6           0       -0.984782    1.308501    0.456875
      4          6           0       -4.861300    4.236344    0.057845
      5          6           0       -7.860712    0.524738   -0.168287
      6          7           0       -2.685646   -0.433895    0.248678
      7          6           0       -2.737149   -1.808630    0.206566
      8          6           0       -1.353503   -2.460696    0.349821
      9          6           0       -0.439497   -1.252516    0.702353
     10          6           0       -1.377838    0.004943    0.423233
     11          6           0        0.092183   -1.204714    2.234446
     12          6           0       -0.975510   -3.116196   -1.030101
     13          6           0       -0.195318   -4.369021   -0.847088
     14          6           0        1.253265   -4.146222   -0.673360
     15          8           0        1.675345   -3.542547    0.274657
     16          8           0        2.019722   -4.813766   -1.557184
     17          7           0       -3.053681    2.557732    0.069901
     18          6           0       -1.648099    2.482617    0.328807
     19          6           0       -1.126948    3.823751    0.305617
     20          6           0       -2.242928    4.649028    0.339390
     21          6           0       -3.451761    3.842166    0.166698
     22          6           0        0.373482    4.071165    0.249656
     23          6           0       -2.302774    6.254162    0.385917
     24          8           0       -3.347016    6.848067    0.239573
     25          6           0       -0.992140    6.970996    0.339060
     26          7           0       -6.138535    2.213151   -0.264958
     27          6           0       -6.048519    3.572444   -0.281243
     28          6           0       -7.343205    4.226708   -0.413434
     29          6           0       -8.347037    3.013033   -0.584496
     30          6           0       -7.465140    1.819288   -0.287835
     31          6           0       -7.621572    5.246636    0.777227
     32          6           0       -9.201558    2.919880   -1.864308
     33          6           0      -10.647215    2.478743   -1.706272
     34          7           0       -5.696351   -0.652284   -0.070613
     35          6           0       -7.103731   -0.665094   -0.081316
     36          6           0       -7.506521   -2.057870    0.028759
     37          6           0       -6.308239   -2.767354    0.241156
     38          6           0       -5.279518   -1.955703    0.122385
     39          6           0       -8.902839   -2.705424    0.071544
     40          6           0       -5.776730   -4.075306    0.422896
     41          8           0       -6.327098   -5.197860    0.499812
     42          6           0       -4.218930   -4.032884    0.380787
     43          6           0       -3.880023   -4.683407    1.631414
     44          8           0       -3.890491   -4.159902    2.729217
     45          8           0       -3.426526   -5.917236    1.451991
     46          6           0       -2.635135   -6.456313    2.543121
     47          6           0        3.457964   -4.794993   -1.444139
     48          6           0        4.026027   -3.406624   -1.623065
     49          6           0        5.330774   -3.074828   -1.715422
     50          6           0        6.498973   -4.064897   -1.532100
     51          6           0        5.810969   -1.608551   -1.831146
     52          6           0        6.177647   -1.136617   -3.201296
     53          6           0        7.668255   -0.668175   -3.313584
     54          6           0        7.652715    0.797163   -3.818089
     55          6           0        7.079376    1.112316   -5.199818
     56          6           0        9.069672    1.417504   -3.749823
     57          6           0        9.268016    2.301167   -2.418098
     58          6           0       10.192175    1.700333   -1.377673
     59          6           0        9.603424    1.563449    0.036272
     60          6           0        9.269525    0.091765    0.476047
     61          6           0       10.504688    2.258958    1.117974
     62          6           0        9.696104    2.862064    2.335417
     63          6           0       10.262708    2.379313    3.679245
     64          6           0        9.658311    1.109414    4.218481
     65          6           0        8.734376    1.386817    5.405185
     66          6           0       10.736954    0.098183    4.627595
     67          1           0        0.056077    1.373122    0.779784
     68          1           0       -4.988488    5.318668    0.116522
     69          1           0       -8.919061    0.302273   -0.322459
     70          1           0       -1.389781   -3.147058    1.195189
     71          1           0        0.387613   -1.185711   -0.003855
     72          1           0        1.113451   -0.825644    2.267990
     73          1           0        0.014029   -2.218725    2.624293
     74          1           0       -0.467655   -0.609519    2.956359
     75          1           0       -0.423552   -2.468715   -1.711885
     76          1           0       -1.908724   -3.323925   -1.552956
     77          1           0       -0.283547   -5.182903   -1.566608
     78          1           0       -0.588677   -4.773919    0.086184
     79          1           0        0.654752    4.539743    1.193376
     80          1           0        0.558919    4.723948   -0.603775
     81          1           0        0.909541    3.132572    0.110282
     82          1           0       -1.222741    8.018205    0.533555
     83          1           0       -0.678570    7.009896   -0.703759
     84          1           0       -0.311145    6.700819    1.146171
     85          1           0       -7.403387    4.804742   -1.335965
     86          1           0       -9.057493    3.153701    0.230638
     87          1           0       -6.915907    5.185964    1.605898
     88          1           0       -8.624501    5.228108    1.202039
     89          1           0       -7.423097    6.222888    0.335169
     90          1           0       -8.613427    2.351297   -2.583913
     91          1           0       -9.338747    3.934743   -2.235913
     92          1           0      -10.842195    1.724018   -2.468239
     93          1           0      -11.438517    3.213761   -1.856374
     94          1           0      -10.735764    1.908273   -0.782078
     95          1           0       -9.479517   -2.172626   -0.683197
     96          1           0       -9.322689   -2.642323    1.076069
     97          1           0       -8.849760   -3.771029   -0.153618
     98          1           0       -3.786897   -4.563038   -0.467168
     99          1           0       -2.138404   -7.297513    2.059169
    100          1           0       -3.123163   -6.757804    3.470180
    101          1           0       -1.854949   -5.723452    2.750953
    102          1           0        3.721519   -5.454301   -2.270521
    103          1           0        3.740733   -5.153280   -0.453774
    104          1           0        3.298443   -2.608076   -1.766849
    105          1           0        6.999641   -3.721950   -0.627085
    106          1           0        7.135992   -4.197733   -2.406469
    107          1           0        6.127519   -5.027730   -1.181916
    108          1           0        6.564201   -1.429475   -1.064809
    109          1           0        4.986149   -0.927424   -1.623060
    110          1           0        5.526348   -0.295072   -3.438508
    111          1           0        5.999092   -1.946101   -3.909731
    112          1           0        8.165727   -1.186609   -4.133090
    113          1           0        8.232215   -0.834164   -2.395651
    114          1           0        6.993852    1.381364   -3.176215
    115          1           0        7.058688    2.198574   -5.286714
    116          1           0        6.137438    0.597720   -5.395868
    117          1           0        7.763051    0.713001   -5.948776
    118          1           0        9.219746    2.125401   -4.565599
    119          1           0        9.829610    0.654880   -3.923462
    120          1           0        8.268104    2.529086   -2.048174
    121          1           0        9.674017    3.233431   -2.812486
    122          1           0       11.114647    2.280769   -1.411467
    123          1           0       10.516574    0.723148   -1.735682
    124          1           0        8.576052    1.909911   -0.076052
    125          1           0        9.791955    0.061117    1.432281
    126          1           0        9.779383   -0.636411   -0.154893
    127          1           0        8.190116   -0.028230    0.567170
    128          1           0       11.017414    3.057975    0.582858
    129          1           0       11.294682    1.652829    1.561981
    130          1           0        8.683208    2.488169    2.181569
    131          1           0        9.696894    3.951212    2.373503
    132          1           0       10.013156    3.201208    4.350975
    133          1           0       11.349695    2.342479    3.758464
    134          1           0        8.941111    0.632866    3.551279
    135          1           0        8.529071    0.499061    6.002496
    136          1           0        7.789601    1.894263    5.210549
    137          1           0        9.326145    2.025415    6.060895
    138          1           0       11.703801    0.399896    4.223117
    139          1           0       10.518222   -0.910679    4.279096
    140          1           0       10.832893   -0.019821    5.707145
 ---------------------------------------------------------------------

 SCF Done:  E(RCAM-B3LYP) =  -3007.16530589     A.U. after   17 cycles

 Excitation energies and oscillator strengths:

 Excited State   1:      Singlet-A      1.7376 eV  713.54 nm  f=0.3758  <S**2>=0.000
     245 -> 248       -0.18777
     246 -> 247        0.68411
     245 <- 248       -0.10939
 This state for optimization and/or second-order correction.
 Total Energy, E(TD-HF/TD-DFT) =  -3007.10145057
 Copying the excited state density for this state as the 1-particle RhoCI density.

 Excited State   2:      Singlet-A      2.1886 eV  566.50 nm  f=0.1423  <S**2>=0.000
     245 -> 247        0.65389
     246 -> 248        0.25538

 Excited State   3:      Singlet-A      3.2813 eV  377.85 nm  f=0.0025  <S**2>=0.000
     243 -> 247       -0.32254
     244 -> 247        0.61197

 Excited State   4:      Singlet-A      3.4393 eV  360.50 nm  f=0.0057  <S**2>=0.000
     240 -> 247        0.21746
     242 -> 247       -0.12195
     243 -> 247        0.52982
     244 -> 247        0.30022
     246 -> 248       -0.21730

 Excited State   5:      Singlet-A      3.4841 eV  355.86 nm  f=0.0045  <S**2>=0.000
     242 -> 247        0.55250
     242 -> 249       -0.29527
     242 -> 250        0.22752

 The electronic state is 1-A.
 Alpha  occ. eigenvalues --  -46.87605 -19.25477 -19.24480 -19.19984 -19.19658
 Alpha  occ. eigenvalues --  -19.18167 -19.17861 -14.42135 -14.40905 -14.39091
 Alpha  occ. eigenvalues --  -14.38165 -10.38968 -10.37896 -10.35956 -10.34204
 Alpha  occ. eigenvalues --  -10.32951 -10.31463 -10.30890 -10.30673 -10.30610
 Alpha  occ. eigenvalues --  -10.30352 -10.29801 -10.29585 -10.29237 -10.28524
 Alpha  occ. eigenvalues --  -10.28199 -10.28145 -10.27986 -10.27610 -10.27528
 Alpha  occ. eigenvalues --  -10.27517 -10.27436 -10.27433 -10.27417 -10.27326
 Alpha  occ. eigenvalues --  -10.27143 -10.26994 -10.26816 -10.26599 -10.26438
 Alpha  occ. eigenvalues --  -10.26404 -10.26221 -10.26138 -10.25812 -10.25786
 Alpha  occ. eigenvalues --  -10.25692 -10.25683 -10.25595 -10.25476 -10.25470
 Alpha  occ. eigenvalues --  -10.25342 -10.25333 -10.25303 -10.25285 -10.25177
 Alpha  occ. eigenvalues --  -10.25116 -10.25076 -10.24941 -10.24756 -10.24726
 Alpha  occ. eigenvalues --  -10.24624 -10.24391 -10.24365 -10.24295 -10.24220
 Alpha  occ. eigenvalues --  -10.23496  -3.16075  -1.91007  -1.90520  -1.90375
 Alpha  occ. eigenvalues --   -1.18107  -1.17467  -1.11525  -1.09352  -1.07753
 Alpha  occ. eigenvalues --   -1.06910  -1.03242  -1.02488  -1.02207  -1.01307
 Alpha  occ. eigenvalues --   -0.92649  -0.90814  -0.90315  -0.89919  -0.89067
 Alpha  occ. eigenvalues --   -0.88848  -0.88151  -0.87827  -0.87482  -0.86891
 Alpha  occ. eigenvalues --   -0.85623  -0.84897  -0.84328  -0.83928  -0.83129
 Alpha  occ. eigenvalues --   -0.82797  -0.82345  -0.81504  -0.80791  -0.80400
 Alpha  occ. eigenvalues --   -0.80094  -0.78162  -0.77486  -0.76906  -0.76429
 Alpha  occ. eigenvalues --   -0.76117  -0.75534  -0.75042  -0.74949  -0.74420
 Alpha  occ. eigenvalues --   -0.73987  -0.72177  -0.71622  -0.70884  -0.69267
 Alpha  occ. eigenvalues --   -0.68534  -0.68155  -0.67029  -0.66346  -0.65309
 Alpha  occ. eigenvalues --   -0.65214  -0.64982  -0.64301  -0.64162  -0.63926
 Alpha  occ. eigenvalues --   -0.63507  -0.63360  -0.62913  -0.61907  -0.60347
 Alpha  occ. eigenvalues --   -0.59905  -0.59264  -0.59184  -0.58933  -0.58477
 Alpha  occ. eigenvalues --   -0.57790  -0.57267  -0.56330  -0.55959  -0.55724
 Alpha  occ. eigenvalues --   -0.55239  -0.54908  -0.54469  -0.53951  -0.53833
 Alpha  occ. eigenvalues --   -0.53632  -0.53512  -0.53459  -0.53247  -0.52904
 Alpha  occ. eigenvalues --   -0.52588  -0.52441  -0.52201  -0.52138  -0.51850
 Alpha  occ. eigenvalues --   -0.51616  -0.51136  -0.50983  -0.50856  -0.50501
 Alpha  occ. eigenvalues --   -0.50432  -0.50378  -0.50229  -0.50105  -0.49983
 Alpha  occ. eigenvalues --   -0.49696  -0.49582  -0.49307  -0.48793  -0.48515
 Alpha  occ. eigenvalues --   -0.48360  -0.48113  -0.47862  -0.47603  -0.47495
 Alpha  occ. eigenvalues --   -0.47281  -0.47168  -0.47007  -0.46661  -0.46439
 Alpha  occ. eigenvalues --   -0.46265  -0.46163  -0.46093  -0.45868  -0.45820
 Alpha  occ. eigenvalues --   -0.45602  -0.45221  -0.45025  -0.44655  -0.44653
 Alpha  occ. eigenvalues --   -0.44362  -0.44200  -0.44119  -0.44041  -0.43655
 Alpha  occ. eigenvalues --   -0.43489  -0.43313  -0.43043  -0.42957  -0.42787
 Alpha  occ. eigenvalues --   -0.42606  -0.42423  -0.42306  -0.42174  -0.41976
 Alpha  occ. eigenvalues --   -0.41855  -0.41532  -0.41455  -0.41219  -0.41126
 Alpha  occ. eigenvalues --   -0.40976  -0.40610  -0.40499  -0.40287  -0.40211
 Alpha  occ. eigenvalues --   -0.39801  -0.39501  -0.39328  -0.39200  -0.39032
 Alpha  occ. eigenvalues --   -0.38639  -0.38092  -0.38024  -0.37750  -0.37229
 Alpha  occ. eigenvalues --   -0.37010  -0.36883  -0.36682  -0.36416  -0.36195
 Alpha  occ. eigenvalues --   -0.36156  -0.35859  -0.35071  -0.34436  -0.33856
 Alpha  occ. eigenvalues --   -0.33678  -0.33358  -0.33163  -0.31490  -0.31062
 Alpha  occ. eigenvalues --   -0.30298  -0.30119  -0.29529  -0.28795  -0.23414
 Alpha  occ. eigenvalues --   -0.21087
 Alpha virt. eigenvalues --   -0.08452  -0.01121   0.00904   0.02496   0.04186
 Alpha virt. eigenvalues --    0.04524   0.05526   0.05665   0.06530   0.06863
 Alpha virt. eigenvalues --    0.08101   0.08394   0.08634   0.08924   0.09112

 Mulliken charges:
               1
     1  Mg   0.807879
     2  C   -0.006909
     3  C   -0.082170
     4  C   -0.051489
     5  C   -0.080252
     6  N   -0.281835
     7  C   -0.013528
     8  C   -0.051924
     9  C   -0.006521
    10  C   -0.003926
    11  C    0.060109
    12  C    0.067130
    13  C    0.119394
    14  C    0.088887
    15  O   -0.223147
    16  O   -0.314171
    17  N   -0.390149
    18  C    0.181806
    19  C   -0.159862
    20  C   -0.066385
    21  C    0.106108
    22  C    0.138431
    23  C    0.016090
    24  O   -0.178708
    25  C    0.056114
    26  N   -0.309803
    27  C    0.053662
    28  C   -0.032407
    29  C   -0.003424
    30  C    0.066339
    31  C    0.048323
    32  C    0.054143
    33  C    0.002180
    34  N   -0.402004
    35  C    0.098694
    36  C   -0.187158
    37  C    0.084544
    38  C    0.106713
    39  C    0.116992
    40  C   -0.015934
    41  O   -0.212054
    42  C    0.035789
    43  C    0.153360
    44  O   -0.228985
    45  O   -0.290779
    46  C    0.188129
    47  C    0.302531
    48  C   -0.121243
    49  C   -0.195072
    50  C    0.079849
    51  C    0.077529
    52  C    0.022781
    53  C    0.067038
    54  C   -0.156658
    55  C    0.047560
    56  C    0.026333
    57  C    0.005506
    58  C    0.092216
    59  C   -0.164056
    60  C    0.050302
    61  C    0.061286
    62  C    0.027246
    63  C    0.049812
    64  C   -0.143376
    65  C    0.029897
    66  C    0.043261
    67  H   -0.026966
    68  H   -0.009283
    69  H   -0.041082
    70  H    0.025269
    71  H    0.009166
    72  H    0.023148
    73  H    0.018274
    74  H    0.021739
    75  H    0.010193
    76  H    0.015527
    77  H    0.016530
    78  H    0.015158
    79  H    0.034728
    80  H    0.033070
    81  H    0.018444
    82  H    0.014616
    83  H    0.054387
    84  H    0.037027
    85  H    0.014387
    86  H   -0.004285
    87  H    0.029831
    88  H    0.021338
    89  H    0.024267
    90  H    0.014493
    91  H    0.000629
    92  H    0.006358
    93  H    0.025432
    94  H    0.017919
    95  H    0.016857
    96  H    0.035586
    97  H    0.032220
    98  H    0.041302
    99  H    0.027049
   100  H    0.053508
   101  H    0.021519
   102  H    0.040203
   103  H    0.040136
   104  H    0.000022
   105  H    0.020931
   106  H    0.038746
   107  H   -0.004323
   108  H    0.004646
   109  H   -0.015685
   110  H    0.009261
   111  H    0.002777
   112  H   -0.011287
   113  H    0.003058
   114  H   -0.016128
   115  H    0.020268
   116  H    0.005978
   117  H   -0.002072
   118  H   -0.018156
   119  H   -0.006076
   120  H   -0.003997
   121  H   -0.006016
   122  H   -0.010621
   123  H   -0.018751
   124  H   -0.004743
   125  H   -0.001181
   126  H    0.008443
   127  H    0.024362
   128  H   -0.008384
   129  H    0.002075
   130  H   -0.001565
   131  H    0.000309
   132  H   -0.019284
   133  H   -0.007247
   134  H    0.004451
   135  H    0.003587
   136  H    0.009567
   137  H   -0.006079
   138  H    0.003714
   139  H    0.007166
   140  H    0.003506
 Sum of Mulliken charges =  -0.00000

 Dipole moment (field-independent basis, Debye):
    X=              6.0639    Y=              2.8586    Z=             -2.7979  Tot=              7.2644
 Quadrupole moment (field-independent basis, Debye-Ang):
   XX=           -392.5519   YY=           -408.7674   ZZ=           -407.2433
   XY=            -33.6320   XZ=             10.9966   YZ=              4.2858

 Normal termination of Gaussian 16 at Fri Apr 29 08:32:53 2022.
