 Gaussian 16, Revision A.03,
 Gaussian 16:  ES64L-G16RevA.03 25-Dec-2016

 ---------------------------------
 #p PBE1PBE/Def2SVP td=(nstates=5)
 ---------------------------------

 -----------------------------------------------------
 step_201_chromophore_27 TDDFT with PBE1PBE functional
 -----------------------------------------------------
 Symbolic Z-matrix:
 Charge =  0 Multiplicity = 1

                         Standard orientation:
 ---------------------------------------------------------------------
 Center     Atomic      Atomic             Coordinates (Angstroms)
 Number     Number       Type             X           Y           Z
 ---------------------------------------------------------------------
      1         12           0       -4.404600    0.942745   -0.049729
      2          6           0       -3.986001   -2.544801    0.311303
      3          6           0       -0.984782    1.308501    0.456875
      4          6           0       -4.861300    4.236344    0.057845
      5          6           0       -7.860712    0.524738   -0.168287
      6          7           0       -2.685646   -0.433895    0.248678
      7          6           0       -2.737149   -1.808630    0.206566
      8          6           0       -1.353503   -2.460696    0.349821
      9          6           0       -0.439497   -1.252516    0.702353
     10          6           0       -1.377838    0.004943    0.423233
     11          6           0        0.092183   -1.204714    2.234446
     12          6           0       -0.975510   -3.116196   -1.030101
     13          6           0       -0.195318   -4.369021   -0.847088
     14          6           0        1.253265   -4.146222   -0.673360
     15          8           0        1.675345   -3.542547    0.274657
     16          8           0        2.019722   -4.813766   -1.557184
     17          7           0       -3.053681    2.557732    0.069901
     18          6           0       -1.648099    2.482617    0.328807
     19          6           0       -1.126948    3.823751    0.305617
     20          6           0       -2.242928    4.649028    0.339390
     21          6           0       -3.451761    3.842166    0.166698
     22          6           0        0.373482    4.071165    0.249656
     23          6           0       -2.302774    6.254162    0.385917
     24          8           0       -3.347016    6.848067    0.239573
     25          6           0       -0.992140    6.970996    0.339060
     26          7           0       -6.138535    2.213151   -0.264958
     27          6           0       -6.048519    3.572444   -0.281243
     28          6           0       -7.343205    4.226708   -0.413434
     29          6           0       -8.347037    3.013033   -0.584496
     30          6           0       -7.465140    1.819288   -0.287835
     31          6           0       -7.621572    5.246636    0.777227
     32          6           0       -9.201558    2.919880   -1.864308
     33          6           0      -10.647215    2.478743   -1.706272
     34          7           0       -5.696351   -0.652284   -0.070613
     35          6           0       -7.103731   -0.665094   -0.081316
     36          6           0       -7.506521   -2.057870    0.028759
     37          6           0       -6.308239   -2.767354    0.241156
     38          6           0       -5.279518   -1.955703    0.122385
     39          6           0       -8.902839   -2.705424    0.071544
     40          6           0       -5.776730   -4.075306    0.422896
     41          8           0       -6.327098   -5.197860    0.499812
     42          6           0       -4.218930   -4.032884    0.380787
     43          6           0       -3.880023   -4.683407    1.631414
     44          8           0       -3.890491   -4.159902    2.729217
     45          8           0       -3.426526   -5.917236    1.451991
     46          6           0       -2.635135   -6.456313    2.543121
     47          6           0        3.457964   -4.794993   -1.444139
     48          6           0        4.026027   -3.406624   -1.623065
     49          6           0        5.330774   -3.074828   -1.715422
     50          6           0        6.498973   -4.064897   -1.532100
     51          6           0        5.810969   -1.608551   -1.831146
     52          6           0        6.177647   -1.136617   -3.201296
     53          6           0        7.668255   -0.668175   -3.313584
     54          6           0        7.652715    0.797163   -3.818089
     55          6           0        7.079376    1.112316   -5.199818
     56          6           0        9.069672    1.417504   -3.749823
     57          6           0        9.268016    2.301167   -2.418098
     58          6           0       10.192175    1.700333   -1.377673
     59          6           0        9.603424    1.563449    0.036272
     60          6           0        9.269525    0.091765    0.476047
     61          6           0       10.504688    2.258958    1.117974
     62          6           0        9.696104    2.862064    2.335417
     63          6           0       10.262708    2.379313    3.679245
     64          6           0        9.658311    1.109414    4.218481
     65          6           0        8.734376    1.386817    5.405185
     66          6           0       10.736954    0.098183    4.627595
     67          1           0        0.056077    1.373122    0.779784
     68          1           0       -4.988488    5.318668    0.116522
     69          1           0       -8.919061    0.302273   -0.322459
     70          1           0       -1.389781   -3.147058    1.195189
     71          1           0        0.387613   -1.185711   -0.003855
     72          1           0        1.113451   -0.825644    2.267990
     73          1           0        0.014029   -2.218725    2.624293
     74          1           0       -0.467655   -0.609519    2.956359
     75          1           0       -0.423552   -2.468715   -1.711885
     76          1           0       -1.908724   -3.323925   -1.552956
     77          1           0       -0.283547   -5.182903   -1.566608
     78          1           0       -0.588677   -4.773919    0.086184
     79          1           0        0.654752    4.539743    1.193376
     80          1           0        0.558919    4.723948   -0.603775
     81          1           0        0.909541    3.132572    0.110282
     82          1           0       -1.222741    8.018205    0.533555
     83          1           0       -0.678570    7.009896   -0.703759
     84          1           0       -0.311145    6.700819    1.146171
     85          1           0       -7.403387    4.804742   -1.335965
     86          1           0       -9.057493    3.153701    0.230638
     87          1           0       -6.915907    5.185964    1.605898
     88          1           0       -8.624501    5.228108    1.202039
     89          1           0       -7.423097    6.222888    0.335169
     90          1           0       -8.613427    2.351297   -2.583913
     91          1           0       -9.338747    3.934743   -2.235913
     92          1           0      -10.842195    1.724018   -2.468239
     93          1           0      -11.438517    3.213761   -1.856374
     94          1           0      -10.735764    1.908273   -0.782078
     95          1           0       -9.479517   -2.172626   -0.683197
     96          1           0       -9.322689   -2.642323    1.076069
     97          1           0       -8.849760   -3.771029   -0.153618
     98          1           0       -3.786897   -4.563038   -0.467168
     99          1           0       -2.138404   -7.297513    2.059169
    100          1           0       -3.123163   -6.757804    3.470180
    101          1           0       -1.854949   -5.723452    2.750953
    102          1           0        3.721519   -5.454301   -2.270521
    103          1           0        3.740733   -5.153280   -0.453774
    104          1           0        3.298443   -2.608076   -1.766849
    105          1           0        6.999641   -3.721950   -0.627085
    106          1           0        7.135992   -4.197733   -2.406469
    107          1           0        6.127519   -5.027730   -1.181916
    108          1           0        6.564201   -1.429475   -1.064809
    109          1           0        4.986149   -0.927424   -1.623060
    110          1           0        5.526348   -0.295072   -3.438508
    111          1           0        5.999092   -1.946101   -3.909731
    112          1           0        8.165727   -1.186609   -4.133090
    113          1           0        8.232215   -0.834164   -2.395651
    114          1           0        6.993852    1.381364   -3.176215
    115          1           0        7.058688    2.198574   -5.286714
    116          1           0        6.137438    0.597720   -5.395868
    117          1           0        7.763051    0.713001   -5.948776
    118          1           0        9.219746    2.125401   -4.565599
    119          1           0        9.829610    0.654880   -3.923462
    120          1           0        8.268104    2.529086   -2.048174
    121          1           0        9.674017    3.233431   -2.812486
    122          1           0       11.114647    2.280769   -1.411467
    123          1           0       10.516574    0.723148   -1.735682
    124          1           0        8.576052    1.909911   -0.076052
    125          1           0        9.791955    0.061117    1.432281
    126          1           0        9.779383   -0.636411   -0.154893
    127          1           0        8.190116   -0.028230    0.567170
    128          1           0       11.017414    3.057975    0.582858
    129          1           0       11.294682    1.652829    1.561981
    130          1           0        8.683208    2.488169    2.181569
    131          1           0        9.696894    3.951212    2.373503
    132          1           0       10.013156    3.201208    4.350975
    133          1           0       11.349695    2.342479    3.758464
    134          1           0        8.941111    0.632866    3.551279
    135          1           0        8.529071    0.499061    6.002496
    136          1           0        7.789601    1.894263    5.210549
    137          1           0        9.326145    2.025415    6.060895
    138          1           0       11.703801    0.399896    4.223117
    139          1           0       10.518222   -0.910679    4.279096
    140          1           0       10.832893   -0.019821    5.707145
 ---------------------------------------------------------------------

 SCF Done:  E(RPBE1PBE) =  -3005.35229216     A.U. after   15 cycles

 Excitation energies and oscillator strengths:

 Excited State   1:      Singlet-A      1.8846 eV  657.87 nm  f=0.3646  <S**2>=0.000
     245 -> 248       -0.18330
     246 -> 247        0.69057
     246 <- 247       -0.10322
 This state for optimization and/or second-order correction.
 Total Energy, E(TD-HF/TD-DFT) =  -3005.28303284
 Copying the excited state density for this state as the 1-particle RhoCI density.

 Excited State   2:      Singlet-A      2.1972 eV  564.28 nm  f=0.1290  <S**2>=0.000
     245 -> 247        0.66186
     246 -> 248        0.23624

 Excited State   3:      Singlet-A      2.9150 eV  425.33 nm  f=0.0012  <S**2>=0.000
     242 -> 247       -0.11318
     243 -> 247       -0.39739
     244 -> 247        0.54866

 Excited State   4:      Singlet-A      2.9988 eV  413.45 nm  f=0.0022  <S**2>=0.000
     242 -> 247        0.43533
     243 -> 247        0.36588
     244 -> 247        0.38995

 Excited State   5:      Singlet-A      3.1057 eV  399.21 nm  f=0.0087  <S**2>=0.000
     239 -> 247       -0.10676
     240 -> 247        0.13087
     242 -> 247        0.50362
     243 -> 247       -0.39991
     244 -> 247       -0.18042
     246 -> 248        0.11422

 The electronic state is 1-A.
 Alpha  occ. eigenvalues --  -46.91023 -19.26138 -19.25122 -19.20016 -19.19860
 Alpha  occ. eigenvalues --  -19.18425 -19.18250 -14.41553 -14.40562 -14.38674
 Alpha  occ. eigenvalues --  -14.38008 -10.35936 -10.34912 -10.32940 -10.31495
 Alpha  occ. eigenvalues --  -10.30310 -10.28778 -10.28702 -10.28245 -10.28070
 Alpha  occ. eigenvalues --  -10.27919 -10.27665 -10.27212 -10.27033 -10.26000
 Alpha  occ. eigenvalues --  -10.25917 -10.25912 -10.25817 -10.25299 -10.25246
 Alpha  occ. eigenvalues --  -10.25184 -10.25165 -10.25160 -10.25085 -10.24906
 Alpha  occ. eigenvalues --  -10.24852 -10.24813 -10.24287 -10.23830 -10.23798
 Alpha  occ. eigenvalues --  -10.23796 -10.23748 -10.23733 -10.23574 -10.23472
 Alpha  occ. eigenvalues --  -10.23379 -10.23343 -10.23157 -10.23039 -10.22992
 Alpha  occ. eigenvalues --  -10.22922 -10.22918 -10.22862 -10.22851 -10.22693
 Alpha  occ. eigenvalues --  -10.22635 -10.22631 -10.22483 -10.22312 -10.22126
 Alpha  occ. eigenvalues --  -10.22006 -10.21905 -10.21824 -10.21767 -10.21589
 Alpha  occ. eigenvalues --  -10.21360  -3.13077  -1.85951  -1.85441  -1.85299
 Alpha  occ. eigenvalues --   -1.12898  -1.12283  -1.06104  -1.04179  -1.02576
 Alpha  occ. eigenvalues --   -1.01751  -0.97885  -0.97080  -0.96864  -0.95924
 Alpha  occ. eigenvalues --   -0.87129  -0.84934  -0.84472  -0.83994  -0.83180
 Alpha  occ. eigenvalues --   -0.83088  -0.82470  -0.81948  -0.81838  -0.81008
 Alpha  occ. eigenvalues --   -0.79830  -0.79397  -0.78552  -0.78258  -0.77295
 Alpha  occ. eigenvalues --   -0.76957  -0.76519  -0.75715  -0.75132  -0.74696
 Alpha  occ. eigenvalues --   -0.74275  -0.72321  -0.71784  -0.71280  -0.70691
 Alpha  occ. eigenvalues --   -0.70303  -0.69602  -0.69367  -0.69091  -0.68652
 Alpha  occ. eigenvalues --   -0.68193  -0.66701  -0.66047  -0.65154  -0.63709
 Alpha  occ. eigenvalues --   -0.62765  -0.62636  -0.61236  -0.60736  -0.59679
 Alpha  occ. eigenvalues --   -0.59532  -0.59339  -0.58860  -0.58511  -0.58248
 Alpha  occ. eigenvalues --   -0.57789  -0.57629  -0.57101  -0.56524  -0.54656
 Alpha  occ. eigenvalues --   -0.54350  -0.53772  -0.53653  -0.53380  -0.53053
 Alpha  occ. eigenvalues --   -0.52277  -0.51938  -0.50868  -0.50515  -0.50239
 Alpha  occ. eigenvalues --   -0.49721  -0.49474  -0.49040  -0.48413  -0.48289
 Alpha  occ. eigenvalues --   -0.48077  -0.47879  -0.47860  -0.47675  -0.47429
 Alpha  occ. eigenvalues --   -0.47201  -0.46925  -0.46712  -0.46677  -0.46460
 Alpha  occ. eigenvalues --   -0.46052  -0.45800  -0.45412  -0.45360  -0.45136
 Alpha  occ. eigenvalues --   -0.44975  -0.44921  -0.44782  -0.44727  -0.44579
 Alpha  occ. eigenvalues --   -0.44257  -0.44118  -0.43890  -0.43452  -0.43098
 Alpha  occ. eigenvalues --   -0.42943  -0.42807  -0.42445  -0.42285  -0.42156
 Alpha  occ. eigenvalues --   -0.41866  -0.41770  -0.41635  -0.41377  -0.41078
 Alpha  occ. eigenvalues --   -0.40928  -0.40829  -0.40706  -0.40525  -0.40487
 Alpha  occ. eigenvalues --   -0.40247  -0.40008  -0.39639  -0.39507  -0.39206
 Alpha  occ. eigenvalues --   -0.39203  -0.39090  -0.38899  -0.38758  -0.38435
 Alpha  occ. eigenvalues --   -0.38243  -0.37973  -0.37794  -0.37667  -0.37587
 Alpha  occ. eigenvalues --   -0.37332  -0.37157  -0.37056  -0.36922  -0.36826
 Alpha  occ. eigenvalues --   -0.36610  -0.36313  -0.36251  -0.36047  -0.36003
 Alpha  occ. eigenvalues --   -0.35914  -0.35436  -0.35363  -0.35225  -0.34985
 Alpha  occ. eigenvalues --   -0.34751  -0.34446  -0.34129  -0.34091  -0.33798
 Alpha  occ. eigenvalues --   -0.33404  -0.33104  -0.32882  -0.32513  -0.32235
 Alpha  occ. eigenvalues --   -0.31923  -0.31758  -0.31640  -0.31424  -0.31163
 Alpha  occ. eigenvalues --   -0.31000  -0.30702  -0.29950  -0.29537  -0.28852
 Alpha  occ. eigenvalues --   -0.28733  -0.28615  -0.28019  -0.26660  -0.26148
 Alpha  occ. eigenvalues --   -0.25524  -0.25175  -0.24974  -0.24610  -0.20377
 Alpha  occ. eigenvalues --   -0.18659
 Alpha virt. eigenvalues --   -0.10896  -0.04643  -0.03379  -0.01951  -0.00020
 Alpha virt. eigenvalues --    0.01174   0.01534   0.01791   0.02017   0.02604
 Alpha virt. eigenvalues --    0.04225   0.04417   0.05124   0.05639   0.05648

 Mulliken charges:
               1
     1  Mg   0.960665
     2  C    0.009341
     3  C   -0.089888
     4  C   -0.053721
     5  C   -0.077911
     6  N   -0.383370
     7  C    0.061563
     8  C   -0.134662
     9  C   -0.076827
    10  C    0.039220
    11  C    0.004862
    12  C    0.021032
    13  C    0.028449
    14  C    0.168526
    15  O   -0.254401
    16  O   -0.351278
    17  N   -0.498290
    18  C    0.200021
    19  C   -0.186230
    20  C   -0.117867
    21  C    0.143158
    22  C    0.077976
    23  C    0.069660
    24  O   -0.217555
    25  C   -0.019177
    26  N   -0.410313
    27  C    0.097583
    28  C   -0.113158
    29  C   -0.074006
    30  C    0.100704
    31  C   -0.011958
    32  C   -0.010674
    33  C   -0.069463
    34  N   -0.526976
    35  C    0.125915
    36  C   -0.199507
    37  C    0.042463
    38  C    0.145542
    39  C    0.063667
    40  C    0.063895
    41  O   -0.253610
    42  C   -0.093045
    43  C    0.257508
    44  O   -0.264190
    45  O   -0.327489
    46  C    0.130663
    47  C    0.261468
    48  C   -0.130573
    49  C   -0.240781
    50  C    0.019166
    51  C    0.011450
    52  C   -0.037786
    53  C    0.011737
    54  C   -0.246358
    55  C   -0.014235
    56  C   -0.026498
    57  C   -0.057269
    58  C    0.041698
    59  C   -0.244949
    60  C   -0.013338
    61  C   -0.000100
    62  C   -0.035399
    63  C   -0.006923
    64  C   -0.238250
    65  C   -0.030486
    66  C   -0.015166
    67  H    0.004849
    68  H    0.025550
    69  H   -0.004197
    70  H    0.064819
    71  H    0.044961
    72  H    0.049615
    73  H    0.044729
    74  H    0.048684
    75  H    0.042773
    76  H    0.049865
    77  H    0.048253
    78  H    0.052112
    79  H    0.061730
    80  H    0.060311
    81  H    0.044150
    82  H    0.042285
    83  H    0.080626
    84  H    0.062700
    85  H    0.051851
    86  H    0.035745
    87  H    0.057518
    88  H    0.048307
    89  H    0.051555
    90  H    0.046810
    91  H    0.035641
    92  H    0.035044
    93  H    0.052718
    94  H    0.044235
    95  H    0.044327
    96  H    0.064462
    97  H    0.060448
    98  H    0.077107
    99  H    0.049292
   100  H    0.075109
   101  H    0.043959
   102  H    0.066060
   103  H    0.066654
   104  H    0.029499
   105  H    0.048233
   106  H    0.065083
   107  H    0.023557
   108  H    0.039351
   109  H    0.017700
   110  H    0.040065
   111  H    0.036050
   112  H    0.022340
   113  H    0.039304
   114  H    0.023705
   115  H    0.048509
   116  H    0.033534
   117  H    0.026713
   118  H    0.014830
   119  H    0.024883
   120  H    0.026455
   121  H    0.027233
   122  H    0.021049
   123  H    0.013776
   124  H    0.032948
   125  H    0.032559
   126  H    0.034311
   127  H    0.051184
   128  H    0.025853
   129  H    0.034536
   130  H    0.032237
   131  H    0.032488
   132  H    0.014125
   133  H    0.023984
   134  H    0.041822
   135  H    0.032044
   136  H    0.037783
   137  H    0.022365
   138  H    0.030134
   139  H    0.034436
   140  H    0.030407
 Sum of Mulliken charges =  -0.00000

 Dipole moment (field-independent basis, Debye):
    X=              5.5977    Y=              2.6142    Z=             -2.8423  Tot=              6.8005
 Quadrupole moment (field-independent basis, Debye-Ang):
   XX=           -383.3411   YY=           -406.4902   ZZ=           -404.7200
   XY=            -33.6652   XZ=             11.4829   YZ=              3.9267

 Normal termination of Gaussian 16 at Fri Apr 29 08:57:20 2022.
