 Gaussian 16, Revision A.03,
 Gaussian 16:  ES64L-G16RevA.03 25-Dec-2016

 --------------------------------
 #p wB97XD/Def2SVP td=(nstates=5)
 --------------------------------

 ----------------------------------------------------
 step_201_chromophore_27 TDDFT with wB97XD functional
 ----------------------------------------------------
 Symbolic Z-matrix:
 Charge =  0 Multiplicity = 1

                         Standard orientation:
 ---------------------------------------------------------------------
 Center     Atomic      Atomic             Coordinates (Angstroms)
 Number     Number       Type             X           Y           Z
 ---------------------------------------------------------------------
      1         12           0       -4.404600    0.942745   -0.049729
      2          6           0       -3.986001   -2.544801    0.311303
      3          6           0       -0.984782    1.308501    0.456875
      4          6           0       -4.861300    4.236344    0.057845
      5          6           0       -7.860712    0.524738   -0.168287
      6          7           0       -2.685646   -0.433895    0.248678
      7          6           0       -2.737149   -1.808630    0.206566
      8          6           0       -1.353503   -2.460696    0.349821
      9          6           0       -0.439497   -1.252516    0.702353
     10          6           0       -1.377838    0.004943    0.423233
     11          6           0        0.092183   -1.204714    2.234446
     12          6           0       -0.975510   -3.116196   -1.030101
     13          6           0       -0.195318   -4.369021   -0.847088
     14          6           0        1.253265   -4.146222   -0.673360
     15          8           0        1.675345   -3.542547    0.274657
     16          8           0        2.019722   -4.813766   -1.557184
     17          7           0       -3.053681    2.557732    0.069901
     18          6           0       -1.648099    2.482617    0.328807
     19          6           0       -1.126948    3.823751    0.305617
     20          6           0       -2.242928    4.649028    0.339390
     21          6           0       -3.451761    3.842166    0.166698
     22          6           0        0.373482    4.071165    0.249656
     23          6           0       -2.302774    6.254162    0.385917
     24          8           0       -3.347016    6.848067    0.239573
     25          6           0       -0.992140    6.970996    0.339060
     26          7           0       -6.138535    2.213151   -0.264958
     27          6           0       -6.048519    3.572444   -0.281243
     28          6           0       -7.343205    4.226708   -0.413434
     29          6           0       -8.347037    3.013033   -0.584496
     30          6           0       -7.465140    1.819288   -0.287835
     31          6           0       -7.621572    5.246636    0.777227
     32          6           0       -9.201558    2.919880   -1.864308
     33          6           0      -10.647215    2.478743   -1.706272
     34          7           0       -5.696351   -0.652284   -0.070613
     35          6           0       -7.103731   -0.665094   -0.081316
     36          6           0       -7.506521   -2.057870    0.028759
     37          6           0       -6.308239   -2.767354    0.241156
     38          6           0       -5.279518   -1.955703    0.122385
     39          6           0       -8.902839   -2.705424    0.071544
     40          6           0       -5.776730   -4.075306    0.422896
     41          8           0       -6.327098   -5.197860    0.499812
     42          6           0       -4.218930   -4.032884    0.380787
     43          6           0       -3.880023   -4.683407    1.631414
     44          8           0       -3.890491   -4.159902    2.729217
     45          8           0       -3.426526   -5.917236    1.451991
     46          6           0       -2.635135   -6.456313    2.543121
     47          6           0        3.457964   -4.794993   -1.444139
     48          6           0        4.026027   -3.406624   -1.623065
     49          6           0        5.330774   -3.074828   -1.715422
     50          6           0        6.498973   -4.064897   -1.532100
     51          6           0        5.810969   -1.608551   -1.831146
     52          6           0        6.177647   -1.136617   -3.201296
     53          6           0        7.668255   -0.668175   -3.313584
     54          6           0        7.652715    0.797163   -3.818089
     55          6           0        7.079376    1.112316   -5.199818
     56          6           0        9.069672    1.417504   -3.749823
     57          6           0        9.268016    2.301167   -2.418098
     58          6           0       10.192175    1.700333   -1.377673
     59          6           0        9.603424    1.563449    0.036272
     60          6           0        9.269525    0.091765    0.476047
     61          6           0       10.504688    2.258958    1.117974
     62          6           0        9.696104    2.862064    2.335417
     63          6           0       10.262708    2.379313    3.679245
     64          6           0        9.658311    1.109414    4.218481
     65          6           0        8.734376    1.386817    5.405185
     66          6           0       10.736954    0.098183    4.627595
     67          1           0        0.056077    1.373122    0.779784
     68          1           0       -4.988488    5.318668    0.116522
     69          1           0       -8.919061    0.302273   -0.322459
     70          1           0       -1.389781   -3.147058    1.195189
     71          1           0        0.387613   -1.185711   -0.003855
     72          1           0        1.113451   -0.825644    2.267990
     73          1           0        0.014029   -2.218725    2.624293
     74          1           0       -0.467655   -0.609519    2.956359
     75          1           0       -0.423552   -2.468715   -1.711885
     76          1           0       -1.908724   -3.323925   -1.552956
     77          1           0       -0.283547   -5.182903   -1.566608
     78          1           0       -0.588677   -4.773919    0.086184
     79          1           0        0.654752    4.539743    1.193376
     80          1           0        0.558919    4.723948   -0.603775
     81          1           0        0.909541    3.132572    0.110282
     82          1           0       -1.222741    8.018205    0.533555
     83          1           0       -0.678570    7.009896   -0.703759
     84          1           0       -0.311145    6.700819    1.146171
     85          1           0       -7.403387    4.804742   -1.335965
     86          1           0       -9.057493    3.153701    0.230638
     87          1           0       -6.915907    5.185964    1.605898
     88          1           0       -8.624501    5.228108    1.202039
     89          1           0       -7.423097    6.222888    0.335169
     90          1           0       -8.613427    2.351297   -2.583913
     91          1           0       -9.338747    3.934743   -2.235913
     92          1           0      -10.842195    1.724018   -2.468239
     93          1           0      -11.438517    3.213761   -1.856374
     94          1           0      -10.735764    1.908273   -0.782078
     95          1           0       -9.479517   -2.172626   -0.683197
     96          1           0       -9.322689   -2.642323    1.076069
     97          1           0       -8.849760   -3.771029   -0.153618
     98          1           0       -3.786897   -4.563038   -0.467168
     99          1           0       -2.138404   -7.297513    2.059169
    100          1           0       -3.123163   -6.757804    3.470180
    101          1           0       -1.854949   -5.723452    2.750953
    102          1           0        3.721519   -5.454301   -2.270521
    103          1           0        3.740733   -5.153280   -0.453774
    104          1           0        3.298443   -2.608076   -1.766849
    105          1           0        6.999641   -3.721950   -0.627085
    106          1           0        7.135992   -4.197733   -2.406469
    107          1           0        6.127519   -5.027730   -1.181916
    108          1           0        6.564201   -1.429475   -1.064809
    109          1           0        4.986149   -0.927424   -1.623060
    110          1           0        5.526348   -0.295072   -3.438508
    111          1           0        5.999092   -1.946101   -3.909731
    112          1           0        8.165727   -1.186609   -4.133090
    113          1           0        8.232215   -0.834164   -2.395651
    114          1           0        6.993852    1.381364   -3.176215
    115          1           0        7.058688    2.198574   -5.286714
    116          1           0        6.137438    0.597720   -5.395868
    117          1           0        7.763051    0.713001   -5.948776
    118          1           0        9.219746    2.125401   -4.565599
    119          1           0        9.829610    0.654880   -3.923462
    120          1           0        8.268104    2.529086   -2.048174
    121          1           0        9.674017    3.233431   -2.812486
    122          1           0       11.114647    2.280769   -1.411467
    123          1           0       10.516574    0.723148   -1.735682
    124          1           0        8.576052    1.909911   -0.076052
    125          1           0        9.791955    0.061117    1.432281
    126          1           0        9.779383   -0.636411   -0.154893
    127          1           0        8.190116   -0.028230    0.567170
    128          1           0       11.017414    3.057975    0.582858
    129          1           0       11.294682    1.652829    1.561981
    130          1           0        8.683208    2.488169    2.181569
    131          1           0        9.696894    3.951212    2.373503
    132          1           0       10.013156    3.201208    4.350975
    133          1           0       11.349695    2.342479    3.758464
    134          1           0        8.941111    0.632866    3.551279
    135          1           0        8.529071    0.499061    6.002496
    136          1           0        7.789601    1.894263    5.210549
    137          1           0        9.326145    2.025415    6.060895
    138          1           0       11.703801    0.399896    4.223117
    139          1           0       10.518222   -0.910679    4.279096
    140          1           0       10.832893   -0.019821    5.707145
 ---------------------------------------------------------------------

 SCF Done:  E(RwB97XD) =  -3007.86365683     A.U. after   17 cycles

 Excitation energies and oscillator strengths:

 Excited State   1:      Singlet-A      1.6858 eV  735.47 nm  f=0.3746  <S**2>=0.000
     245 -> 248       -0.19233
     246 -> 247        0.68206
     245 <- 248       -0.11821
 This state for optimization and/or second-order correction.
 Total Energy, E(TD-HF/TD-DFT) =  -3007.80170515
 Copying the excited state density for this state as the 1-particle RhoCI density.

 Excited State   2:      Singlet-A      2.1354 eV  580.61 nm  f=0.1388  <S**2>=0.000
     245 -> 247        0.65135
     246 -> 248        0.25768

 Excited State   3:      Singlet-A      3.3015 eV  375.54 nm  f=0.0027  <S**2>=0.000
     243 -> 247       -0.34029
     244 -> 247        0.58822

 Excited State   4:      Singlet-A      3.4592 eV  358.42 nm  f=0.0111  <S**2>=0.000
     239 -> 247        0.12683
     240 -> 247       -0.18664
     242 -> 247       -0.21795
     243 -> 247        0.45590
     244 -> 247        0.32481
     246 -> 248       -0.25628

 Excited State   5:      Singlet-A      3.5234 eV  351.88 nm  f=0.0038  <S**2>=0.000
     242 -> 247        0.49897
     242 -> 249       -0.29733
     242 -> 250        0.23000
     243 -> 247        0.21286
     243 -> 249       -0.12696

 The electronic state is 1-A.
 Alpha  occ. eigenvalues --  -46.93941 -19.30716 -19.29681 -19.25035 -19.24564
 Alpha  occ. eigenvalues --  -19.23107 -19.22889 -14.46778 -14.45483 -14.43732
 Alpha  occ. eigenvalues --  -14.42773 -10.42736 -10.41716 -10.39962 -10.38202
 Alpha  occ. eigenvalues --  -10.36819 -10.35201 -10.34910 -10.34758 -10.34724
 Alpha  occ. eigenvalues --  -10.34395 -10.33766 -10.33685 -10.33221 -10.32710
 Alpha  occ. eigenvalues --  -10.32368 -10.32241 -10.32059 -10.31586 -10.31539
 Alpha  occ. eigenvalues --  -10.31485 -10.31482 -10.31450 -10.31446 -10.31376
 Alpha  occ. eigenvalues --  -10.31207 -10.31024 -10.30689 -10.30501 -10.30453
 Alpha  occ. eigenvalues --  -10.30268 -10.30157 -10.30048 -10.29772 -10.29741
 Alpha  occ. eigenvalues --  -10.29703 -10.29674 -10.29477 -10.29458 -10.29403
 Alpha  occ. eigenvalues --  -10.29273 -10.29232 -10.29151 -10.29134 -10.29105
 Alpha  occ. eigenvalues --  -10.29024 -10.29015 -10.28866 -10.28677 -10.28599
 Alpha  occ. eigenvalues --  -10.28467 -10.28284 -10.28218 -10.28212 -10.28049
 Alpha  occ. eigenvalues --  -10.27449  -3.19852  -1.93474  -1.92964  -1.92823
 Alpha  occ. eigenvalues --   -1.20281  -1.19643  -1.13774  -1.11529  -1.09937
 Alpha  occ. eigenvalues --   -1.09095  -1.05238  -1.04507  -1.04248  -1.03346
 Alpha  occ. eigenvalues --   -0.94638  -0.92619  -0.92133  -0.91681  -0.90878
 Alpha  occ. eigenvalues --   -0.90774  -0.90021  -0.89616  -0.89405  -0.88875
 Alpha  occ. eigenvalues --   -0.87492  -0.86817  -0.86195  -0.85822  -0.85016
 Alpha  occ. eigenvalues --   -0.84659  -0.84259  -0.83395  -0.82728  -0.82316
 Alpha  occ. eigenvalues --   -0.81950  -0.80160  -0.79390  -0.78824  -0.78322
 Alpha  occ. eigenvalues --   -0.77983  -0.77321  -0.76952  -0.76799  -0.76306
 Alpha  occ. eigenvalues --   -0.75857  -0.74144  -0.73595  -0.72790  -0.71176
 Alpha  occ. eigenvalues --   -0.70410  -0.70148  -0.68897  -0.68342  -0.67183
 Alpha  occ. eigenvalues --   -0.67138  -0.66991  -0.66296  -0.65964  -0.65918
 Alpha  occ. eigenvalues --   -0.65324  -0.65293  -0.64759  -0.63882  -0.62222
 Alpha  occ. eigenvalues --   -0.61921  -0.61184  -0.61159  -0.60840  -0.60438
 Alpha  occ. eigenvalues --   -0.59759  -0.59260  -0.58303  -0.57917  -0.57686
 Alpha  occ. eigenvalues --   -0.57148  -0.56851  -0.56398  -0.55844  -0.55771
 Alpha  occ. eigenvalues --   -0.55580  -0.55391  -0.55330  -0.55116  -0.54829
 Alpha  occ. eigenvalues --   -0.54502  -0.54365  -0.54084  -0.54053  -0.53778
 Alpha  occ. eigenvalues --   -0.53470  -0.53051  -0.52962  -0.52763  -0.52385
 Alpha  occ. eigenvalues --   -0.52369  -0.52300  -0.52100  -0.52046  -0.51894
 Alpha  occ. eigenvalues --   -0.51631  -0.51450  -0.51199  -0.50691  -0.50393
 Alpha  occ. eigenvalues --   -0.50274  -0.50071  -0.49811  -0.49535  -0.49427
 Alpha  occ. eigenvalues --   -0.49225  -0.49044  -0.48898  -0.48574  -0.48351
 Alpha  occ. eigenvalues --   -0.48136  -0.48082  -0.47963  -0.47792  -0.47739
 Alpha  occ. eigenvalues --   -0.47476  -0.47134  -0.46892  -0.46562  -0.46484
 Alpha  occ. eigenvalues --   -0.46288  -0.46123  -0.46086  -0.45992  -0.45587
 Alpha  occ. eigenvalues --   -0.45410  -0.45181  -0.45034  -0.44831  -0.44696
 Alpha  occ. eigenvalues --   -0.44501  -0.44380  -0.44208  -0.44128  -0.43850
 Alpha  occ. eigenvalues --   -0.43728  -0.43391  -0.43385  -0.43108  -0.43064
 Alpha  occ. eigenvalues --   -0.42882  -0.42453  -0.42375  -0.42253  -0.42079
 Alpha  occ. eigenvalues --   -0.41726  -0.41401  -0.41174  -0.41087  -0.40878
 Alpha  occ. eigenvalues --   -0.40497  -0.39990  -0.39925  -0.39589  -0.39166
 Alpha  occ. eigenvalues --   -0.38942  -0.38817  -0.38673  -0.38389  -0.38219
 Alpha  occ. eigenvalues --   -0.38011  -0.37706  -0.36921  -0.36408  -0.35780
 Alpha  occ. eigenvalues --   -0.35523  -0.35476  -0.35185  -0.33514  -0.33238
 Alpha  occ. eigenvalues --   -0.32309  -0.32077  -0.31736  -0.30924  -0.25344
 Alpha  occ. eigenvalues --   -0.22899
 Alpha virt. eigenvalues --   -0.06801   0.00792   0.02950   0.04589   0.06709
 Alpha virt. eigenvalues --    0.07498   0.07852   0.08251   0.08763   0.09195
 Alpha virt. eigenvalues --    0.10690   0.11282   0.11824   0.12271   0.12377

 Mulliken charges:
               1
     1  Mg   0.949235
     2  C   -0.003860
     3  C   -0.100499
     4  C   -0.068464
     5  C   -0.090957
     6  N   -0.349818
     7  C    0.029967
     8  C   -0.101797
     9  C   -0.054884
    10  C    0.023819
    11  C    0.015192
    12  C    0.029384
    13  C    0.053284
    14  C    0.149033
    15  O   -0.250122
    16  O   -0.348588
    17  N   -0.470512
    18  C    0.197259
    19  C   -0.175257
    20  C   -0.110916
    21  C    0.135382
    22  C    0.091012
    23  C    0.067047
    24  O   -0.210333
    25  C   -0.011237
    26  N   -0.381784
    27  C    0.086293
    28  C   -0.089607
    29  C   -0.047734
    30  C    0.089864
    31  C    0.000064
    32  C    0.002794
    33  C   -0.053428
    34  N   -0.491201
    35  C    0.113911
    36  C   -0.201717
    37  C    0.045725
    38  C    0.131184
    39  C    0.076022
    40  C    0.049174
    41  O   -0.245843
    42  C   -0.045348
    43  C    0.228967
    44  O   -0.258060
    45  O   -0.324834
    46  C    0.146662
    47  C    0.274303
    48  C   -0.139918
    49  C   -0.227381
    50  C    0.032792
    51  C    0.034608
    52  C   -0.022560
    53  C    0.029832
    54  C   -0.209048
    55  C   -0.000861
    56  C   -0.014763
    57  C   -0.038280
    58  C    0.053871
    59  C   -0.215997
    60  C    0.004191
    61  C    0.019436
    62  C   -0.017267
    63  C    0.008298
    64  C   -0.209867
    65  C   -0.016671
    66  C   -0.002894
    67  H   -0.001705
    68  H    0.016710
    69  H   -0.014478
    70  H    0.046251
    71  H    0.034554
    72  H    0.044725
    73  H    0.039968
    74  H    0.043074
    75  H    0.035018
    76  H    0.040607
    77  H    0.044977
    78  H    0.042562
    79  H    0.057490
    80  H    0.055806
    81  H    0.041119
    82  H    0.041321
    83  H    0.077694
    84  H    0.058808
    85  H    0.042669
    86  H    0.021996
    87  H    0.050796
    88  H    0.044044
    89  H    0.045583
    90  H    0.039657
    91  H    0.026220
    92  H    0.028971
    93  H    0.048308
    94  H    0.036388
    95  H    0.037461
    96  H    0.058321
    97  H    0.055602
    98  H    0.071278
    99  H    0.045996
   100  H    0.072237
   101  H    0.038114
   102  H    0.062907
   103  H    0.061987
   104  H    0.024970
   105  H    0.042067
   106  H    0.060752
   107  H    0.017560
   108  H    0.026287
   109  H    0.010807
   110  H    0.029548
   111  H    0.027895
   112  H    0.012848
   113  H    0.022055
   114  H    0.006385
   115  H    0.042056
   116  H    0.027887
   117  H    0.018842
   118  H    0.006581
   119  H    0.016680
   120  H    0.015480
   121  H    0.020605
   122  H    0.013921
   123  H    0.001744
   124  H    0.017777
   125  H    0.017487
   126  H    0.029193
   127  H    0.046062
   128  H    0.016670
   129  H    0.023599
   130  H    0.019783
   131  H    0.026891
   132  H    0.005279
   133  H    0.015406
   134  H    0.028132
   135  H    0.026176
   136  H    0.032508
   137  H    0.013380
   138  H    0.023109
   139  H    0.029509
   140  H    0.024738
 Sum of Mulliken charges =  -0.00000

 Dipole moment (field-independent basis, Debye):
    X=              6.2017    Y=              2.9980    Z=             -2.7980  Tot=              7.4349
 Quadrupole moment (field-independent basis, Debye-Ang):
   XX=           -388.5183   YY=           -403.9966   ZZ=           -404.2447
   XY=            -34.1418   XZ=             11.3110   YZ=              4.1609

 Normal termination of Gaussian 16 at Fri Apr 29 09:34:46 2022.
