 Gaussian 16, Revision A.03,
 Gaussian 16:  ES64L-G16RevA.03 25-Dec-2016

 --------------------
 #p ZINDO=(nstates=5)
 --------------------

 -----------------------------
 step_201_chromophore_27 ZINDO
 -----------------------------
 Symbolic Z-matrix:
 Charge =  0 Multiplicity = 1

                         Standard orientation:
 ---------------------------------------------------------------------
 Center     Atomic      Atomic             Coordinates (Angstroms)
 Number     Number       Type             X           Y           Z
 ---------------------------------------------------------------------
      1         12           0       -4.404600    0.942745   -0.049729
      2          6           0       -3.986001   -2.544801    0.311303
      3          6           0       -0.984782    1.308501    0.456875
      4          6           0       -4.861300    4.236344    0.057845
      5          6           0       -7.860712    0.524738   -0.168287
      6          7           0       -2.685646   -0.433895    0.248678
      7          6           0       -2.737149   -1.808630    0.206566
      8          6           0       -1.353503   -2.460696    0.349821
      9          6           0       -0.439497   -1.252516    0.702353
     10          6           0       -1.377838    0.004943    0.423233
     11          6           0        0.092183   -1.204714    2.234446
     12          6           0       -0.975510   -3.116196   -1.030101
     13          6           0       -0.195318   -4.369021   -0.847088
     14          6           0        1.253265   -4.146222   -0.673360
     15          8           0        1.675345   -3.542547    0.274657
     16          8           0        2.019722   -4.813766   -1.557184
     17          7           0       -3.053681    2.557732    0.069901
     18          6           0       -1.648099    2.482617    0.328807
     19          6           0       -1.126948    3.823751    0.305617
     20          6           0       -2.242928    4.649028    0.339390
     21          6           0       -3.451761    3.842166    0.166698
     22          6           0        0.373482    4.071165    0.249656
     23          6           0       -2.302774    6.254162    0.385917
     24          8           0       -3.347016    6.848067    0.239573
     25          6           0       -0.992140    6.970996    0.339060
     26          7           0       -6.138535    2.213151   -0.264958
     27          6           0       -6.048519    3.572444   -0.281243
     28          6           0       -7.343205    4.226708   -0.413434
     29          6           0       -8.347037    3.013033   -0.584496
     30          6           0       -7.465140    1.819288   -0.287835
     31          6           0       -7.621572    5.246636    0.777227
     32          6           0       -9.201558    2.919880   -1.864308
     33          6           0      -10.647215    2.478743   -1.706272
     34          7           0       -5.696351   -0.652284   -0.070613
     35          6           0       -7.103731   -0.665094   -0.081316
     36          6           0       -7.506521   -2.057870    0.028759
     37          6           0       -6.308239   -2.767354    0.241156
     38          6           0       -5.279518   -1.955703    0.122385
     39          6           0       -8.902839   -2.705424    0.071544
     40          6           0       -5.776730   -4.075306    0.422896
     41          8           0       -6.327098   -5.197860    0.499812
     42          6           0       -4.218930   -4.032884    0.380787
     43          6           0       -3.880023   -4.683407    1.631414
     44          8           0       -3.890491   -4.159902    2.729217
     45          8           0       -3.426526   -5.917236    1.451991
     46          6           0       -2.635135   -6.456313    2.543121
     47          6           0        3.457964   -4.794993   -1.444139
     48          6           0        4.026027   -3.406624   -1.623065
     49          6           0        5.330774   -3.074828   -1.715422
     50          6           0        6.498973   -4.064897   -1.532100
     51          6           0        5.810969   -1.608551   -1.831146
     52          6           0        6.177647   -1.136617   -3.201296
     53          6           0        7.668255   -0.668175   -3.313584
     54          6           0        7.652715    0.797163   -3.818089
     55          6           0        7.079376    1.112316   -5.199818
     56          6           0        9.069672    1.417504   -3.749823
     57          6           0        9.268016    2.301167   -2.418098
     58          6           0       10.192175    1.700333   -1.377673
     59          6           0        9.603424    1.563449    0.036272
     60          6           0        9.269525    0.091765    0.476047
     61          6           0       10.504688    2.258958    1.117974
     62          6           0        9.696104    2.862064    2.335417
     63          6           0       10.262708    2.379313    3.679245
     64          6           0        9.658311    1.109414    4.218481
     65          6           0        8.734376    1.386817    5.405185
     66          6           0       10.736954    0.098183    4.627595
     67          1           0        0.056077    1.373122    0.779784
     68          1           0       -4.988488    5.318668    0.116522
     69          1           0       -8.919061    0.302273   -0.322459
     70          1           0       -1.389781   -3.147058    1.195189
     71          1           0        0.387613   -1.185711   -0.003855
     72          1           0        1.113451   -0.825644    2.267990
     73          1           0        0.014029   -2.218725    2.624293
     74          1           0       -0.467655   -0.609519    2.956359
     75          1           0       -0.423552   -2.468715   -1.711885
     76          1           0       -1.908724   -3.323925   -1.552956
     77          1           0       -0.283547   -5.182903   -1.566608
     78          1           0       -0.588677   -4.773919    0.086184
     79          1           0        0.654752    4.539743    1.193376
     80          1           0        0.558919    4.723948   -0.603775
     81          1           0        0.909541    3.132572    0.110282
     82          1           0       -1.222741    8.018205    0.533555
     83          1           0       -0.678570    7.009896   -0.703759
     84          1           0       -0.311145    6.700819    1.146171
     85          1           0       -7.403387    4.804742   -1.335965
     86          1           0       -9.057493    3.153701    0.230638
     87          1           0       -6.915907    5.185964    1.605898
     88          1           0       -8.624501    5.228108    1.202039
     89          1           0       -7.423097    6.222888    0.335169
     90          1           0       -8.613427    2.351297   -2.583913
     91          1           0       -9.338747    3.934743   -2.235913
     92          1           0      -10.842195    1.724018   -2.468239
     93          1           0      -11.438517    3.213761   -1.856374
     94          1           0      -10.735764    1.908273   -0.782078
     95          1           0       -9.479517   -2.172626   -0.683197
     96          1           0       -9.322689   -2.642323    1.076069
     97          1           0       -8.849760   -3.771029   -0.153618
     98          1           0       -3.786897   -4.563038   -0.467168
     99          1           0       -2.138404   -7.297513    2.059169
    100          1           0       -3.123163   -6.757804    3.470180
    101          1           0       -1.854949   -5.723452    2.750953
    102          1           0        3.721519   -5.454301   -2.270521
    103          1           0        3.740733   -5.153280   -0.453774
    104          1           0        3.298443   -2.608076   -1.766849
    105          1           0        6.999641   -3.721950   -0.627085
    106          1           0        7.135992   -4.197733   -2.406469
    107          1           0        6.127519   -5.027730   -1.181916
    108          1           0        6.564201   -1.429475   -1.064809
    109          1           0        4.986149   -0.927424   -1.623060
    110          1           0        5.526348   -0.295072   -3.438508
    111          1           0        5.999092   -1.946101   -3.909731
    112          1           0        8.165727   -1.186609   -4.133090
    113          1           0        8.232215   -0.834164   -2.395651
    114          1           0        6.993852    1.381364   -3.176215
    115          1           0        7.058688    2.198574   -5.286714
    116          1           0        6.137438    0.597720   -5.395868
    117          1           0        7.763051    0.713001   -5.948776
    118          1           0        9.219746    2.125401   -4.565599
    119          1           0        9.829610    0.654880   -3.923462
    120          1           0        8.268104    2.529086   -2.048174
    121          1           0        9.674017    3.233431   -2.812486
    122          1           0       11.114647    2.280769   -1.411467
    123          1           0       10.516574    0.723148   -1.735682
    124          1           0        8.576052    1.909911   -0.076052
    125          1           0        9.791955    0.061117    1.432281
    126          1           0        9.779383   -0.636411   -0.154893
    127          1           0        8.190116   -0.028230    0.567170
    128          1           0       11.017414    3.057975    0.582858
    129          1           0       11.294682    1.652829    1.561981
    130          1           0        8.683208    2.488169    2.181569
    131          1           0        9.696894    3.951212    2.373503
    132          1           0       10.013156    3.201208    4.350975
    133          1           0       11.349695    2.342479    3.758464
    134          1           0        8.941111    0.632866    3.551279
    135          1           0        8.529071    0.499061    6.002496
    136          1           0        7.789601    1.894263    5.210549
    137          1           0        9.326145    2.025415    6.060895
    138          1           0       11.703801    0.399896    4.223117
    139          1           0       10.518222   -0.910679    4.279096
    140          1           0       10.832893   -0.019821    5.707145
 ---------------------------------------------------------------------

 SCF Done:  E(RZINDO/S) =  -474.539841990     A.U. after   19 cycles

 Excitation energies and oscillator strengths:

 Excited State   1:      Singlet-A      1.2847 eV  965.08 nm  f=0.5692  <S**2>=0.000
     175 ->178        -0.17588
     176 ->177         0.66743
 This state for optimization and/or second-order correction.
 Total Energy, E(CIS/TDA) =  -474.492630187
 Copying the excited state density for this state as the 1-particle RhoCI density.

 Excited State   2:      Singlet-A      1.9255 eV  643.89 nm  f=0.0790  <S**2>=0.000
     175 ->177         0.57185
     176 ->178         0.38134

 Excited State   3:      Singlet-A      2.8963 eV  428.08 nm  f=0.0045  <S**2>=0.000
     170 ->177        -0.15124
     170 ->178        -0.10466
     170 ->179        -0.16671
     170 ->180        -0.20635
     171 ->177         0.24749
     171 ->178         0.15368
     171 ->179         0.24950
     171 ->180         0.30999
     171 ->186         0.12134
     171 ->187         0.14429

 Excited State   4:      Singlet-A      3.0103 eV  411.86 nm  f=0.1417  <S**2>=0.000
     167 ->179         0.15156
     167 ->180        -0.11605
     168 ->177         0.22265
     168 ->179        -0.34063
     168 ->180         0.26106
     168 ->184         0.10799
     168 ->186        -0.11267
     169 ->179         0.10845
     170 ->177        -0.11267
     175 ->177        -0.12940
     176 ->178         0.21757

 Excited State   5:      Singlet-A      3.0305 eV  409.12 nm  f=0.7120  <S**2>=0.000
     168 ->179         0.15639
     175 ->177        -0.29210
     176 ->178         0.47711
     176 ->179         0.22360
     176 ->180         0.16807

 The electronic state is 1-A.
 Alpha  occ. eigenvalues --   -1.83773  -1.80605  -1.79563  -1.76671  -1.75288
 Alpha  occ. eigenvalues --   -1.70213  -1.66000  -1.62735  -1.59926  -1.59107
 Alpha  occ. eigenvalues --   -1.55830  -1.54156  -1.50165  -1.47116  -1.46458
 Alpha  occ. eigenvalues --   -1.43030  -1.42490  -1.40227  -1.39053  -1.38883
 Alpha  occ. eigenvalues --   -1.34773  -1.34118  -1.32506  -1.30148  -1.27733
 Alpha  occ. eigenvalues --   -1.27418  -1.25482  -1.23223  -1.20712  -1.17974
 Alpha  occ. eigenvalues --   -1.16109  -1.15877  -1.15558  -1.14121  -1.13968
 Alpha  occ. eigenvalues --   -1.11646  -1.10658  -1.10005  -1.05261  -1.04039
 Alpha  occ. eigenvalues --   -1.03872  -1.00801  -0.99306  -0.97450  -0.96616
 Alpha  occ. eigenvalues --   -0.96477  -0.94584  -0.94224  -0.93822  -0.92389
 Alpha  occ. eigenvalues --   -0.90896  -0.90340  -0.89493  -0.88162  -0.87991
 Alpha  occ. eigenvalues --   -0.85129  -0.84301  -0.83336  -0.81070  -0.80083
 Alpha  occ. eigenvalues --   -0.79985  -0.78635  -0.76976  -0.76650  -0.76027
 Alpha  occ. eigenvalues --   -0.75750  -0.75681  -0.74589  -0.73844  -0.73232
 Alpha  occ. eigenvalues --   -0.72863  -0.72328  -0.71818  -0.71395  -0.71038
 Alpha  occ. eigenvalues --   -0.70573  -0.70440  -0.69035  -0.68472  -0.68092
 Alpha  occ. eigenvalues --   -0.67642  -0.67404  -0.66721  -0.66261  -0.66106
 Alpha  occ. eigenvalues --   -0.65525  -0.65330  -0.65059  -0.63899  -0.63752
 Alpha  occ. eigenvalues --   -0.63120  -0.62977  -0.62303  -0.61810  -0.61683
 Alpha  occ. eigenvalues --   -0.61213  -0.60907  -0.60619  -0.60166  -0.59825
 Alpha  occ. eigenvalues --   -0.59375  -0.59162  -0.58878  -0.58485  -0.57760
 Alpha  occ. eigenvalues --   -0.57523  -0.57390  -0.57194  -0.56646  -0.56429
 Alpha  occ. eigenvalues --   -0.56311  -0.55681  -0.54917  -0.54713  -0.54345
 Alpha  occ. eigenvalues --   -0.54130  -0.53722  -0.53235  -0.53119  -0.52913
 Alpha  occ. eigenvalues --   -0.52323  -0.52173  -0.51744  -0.51449  -0.51351
 Alpha  occ. eigenvalues --   -0.51183  -0.50969  -0.50294  -0.50120  -0.49686
 Alpha  occ. eigenvalues --   -0.49659  -0.49298  -0.49052  -0.48924  -0.48719
 Alpha  occ. eigenvalues --   -0.48606  -0.48419  -0.48098  -0.47880  -0.47674
 Alpha  occ. eigenvalues --   -0.47342  -0.46807  -0.46537  -0.46469  -0.46262
 Alpha  occ. eigenvalues --   -0.46001  -0.45908  -0.45602  -0.45504  -0.45054
 Alpha  occ. eigenvalues --   -0.44769  -0.44438  -0.44314  -0.44261  -0.43817
 Alpha  occ. eigenvalues --   -0.43718  -0.43269  -0.42662  -0.42586  -0.41779
 Alpha  occ. eigenvalues --   -0.41480  -0.41254  -0.40366  -0.38796  -0.38477
 Alpha  occ. eigenvalues --   -0.37134  -0.36821  -0.35896  -0.34813  -0.33973
 Alpha  occ. eigenvalues --   -0.33852  -0.32668  -0.31878  -0.31235  -0.26253
 Alpha  occ. eigenvalues --   -0.21742
 Alpha virt. eigenvalues --   -0.08355  -0.01621  -0.00005   0.01262   0.02237
 Alpha virt. eigenvalues --    0.03050   0.03782   0.04093   0.04677   0.04776
 Alpha virt. eigenvalues --    0.06012   0.06748   0.07029   0.08193   0.08625

 Mulliken charges:
               1
     1  Mg   0.417239
     2  C   -0.039209
     3  C   -0.046153
     4  C   -0.097730
     5  C   -0.060867
     6  N   -0.273363
     7  C    0.089395
     8  C    0.009245
     9  C    0.005363
    10  C    0.141387
    11  C   -0.050974
    12  C   -0.007744
    13  C    0.006973
    14  C    0.480367
    15  O   -0.533841
    16  O   -0.278581
    17  N   -0.342324
    18  C    0.119364
    19  C    0.029907
    20  C   -0.039110
    21  C    0.167790
    22  C   -0.039382
    23  C    0.323151
    24  O   -0.495791
    25  C   -0.035906
    26  N   -0.294340
    27  C    0.187434
    28  C    0.010166
    29  C    0.001003
    30  C    0.111800
    31  C   -0.052367
    32  C   -0.021527
    33  C   -0.056554
    34  N   -0.344383
    35  C    0.083912
    36  C   -0.008203
    37  C   -0.030174
    38  C    0.103379
    39  C   -0.042107
    40  C    0.333423
    41  O   -0.549009
    42  C    0.060675
    43  C    0.508918
    44  O   -0.548628
    45  O   -0.262669
    46  C    0.079816
    47  C    0.114187
    48  C   -0.075509
    49  C   -0.018351
    50  C   -0.049787
    51  C   -0.022773
    52  C   -0.029293
    53  C   -0.035974
    54  C   -0.012190
    55  C   -0.053554
    56  C   -0.047232
    57  C   -0.040700
    58  C   -0.029561
    59  C   -0.020734
    60  C   -0.071007
    61  C   -0.036033
    62  C   -0.039529
    63  C   -0.027892
    64  C   -0.002089
    65  C   -0.057740
    66  C   -0.056398
    67  H    0.016866
    68  H    0.034489
    69  H    0.016541
    70  H    0.048406
    71  H    0.037756
    72  H    0.023769
    73  H    0.027712
    74  H    0.026717
    75  H    0.027320
    76  H    0.019067
    77  H    0.028753
    78  H    0.041242
    79  H    0.035478
    80  H    0.032761
    81  H    0.031273
    82  H    0.025740
    83  H    0.054935
    84  H    0.041621
    85  H    0.033621
    86  H    0.021420
    87  H    0.029088
    88  H    0.025271
    89  H    0.019401
    90  H    0.029466
    91  H    0.011381
    92  H    0.009643
    93  H    0.030245
    94  H    0.021670
    95  H    0.022597
    96  H    0.034508
    97  H    0.033866
    98  H    0.056398
    99  H    0.020790
   100  H    0.060141
   101  H    0.034314
   102  H    0.041500
   103  H    0.056285
   104  H    0.037287
   105  H    0.027275
   106  H    0.038794
   107  H    0.013689
   108  H    0.026600
   109  H    0.011445
   110  H    0.023673
   111  H    0.019331
   112  H    0.015722
   113  H    0.031365
   114  H    0.012015
   115  H    0.024822
   116  H    0.017128
   117  H    0.011895
   118  H    0.009438
   119  H    0.022841
   120  H    0.023218
   121  H    0.012846
   122  H    0.016266
   123  H    0.014159
   124  H    0.025282
   125  H    0.020229
   126  H    0.022801
   127  H    0.027764
   128  H    0.010279
   129  H    0.029053
   130  H    0.022377
   131  H    0.021295
   132  H    0.004921
   133  H    0.024503
   134  H    0.020862
   135  H    0.012890
   136  H    0.018535
   137  H    0.009353
   138  H    0.017380
   139  H    0.013795
   140  H    0.019207
 Sum of Mulliken charges =  -0.00000

 Dipole moment (field-independent basis, Debye):
    X=              9.5495    Y=              4.7840    Z=             -4.0163  Tot=             11.4110
 N-N= 4.421093122512D+03 E-N= 0.000000000000D+00  KE=-9.517146043350D+03
 Leave Link  601 at Fri Apr 29 09:56:13 2022, MaxMem=  6710886400 cpu:               0.7 elap:               0.0
 (Enter /sw/apps/gaussian-16.0/g16/l9999.exe)
 1\1\GINC-BP1-COMPUTE191\SP\RZINDO CIS\STO-3G\C55H74Mg1N4O6\OF15641\29-
 Apr-2022\0\\#p ZINDO=(nstates=5)\\step_201_chromophore_27 ZINDO\\0,1\M
 g,0,-4.577,24.223,27.259\C,0,-3.184,26.454,29.615\C,0,-5.215,22.017,29
 .869\C,0,-5.473,21.949,25.002\C,0,-3.563,26.315,24.665\N,0,-4.327,24.2
 58,29.467\C,0,-3.882,25.327,30.211\C,0,-3.923,25.058,31.723\C,0,-4.277
 ,23.545,31.793\C,0,-4.69,23.2,30.293\C,0,-3.07,22.568,32.263\C,0,-5.04
 4,25.966,32.352\C,0,-4.674,26.429,33.716\C,0,-5.004,25.462,34.781\O,0,

 Normal termination of Gaussian 16 at Fri Apr 29 09:56:13 2022.
