 Gaussian 16, Revision A.03,
 Gaussian 16:  ES64L-G16RevA.03 25-Dec-2016

 ------------------------------
 #p blyp/Def2SVP td=(nstates=5)
 ------------------------------

 ---------------------------------------------------
 step_1251_chromophore_26 TDDFT with blyp functional
 ---------------------------------------------------
 Symbolic Z-matrix:
 Charge =  0 Multiplicity = 1

                         Standard orientation:
 ---------------------------------------------------------------------
 Center     Atomic      Atomic             Coordinates (Angstroms)
 Number     Number       Type             X           Y           Z
 ---------------------------------------------------------------------
      1         12           0       -3.760889    1.325636    0.436569
      2          6           0       -4.964862   -1.922083   -0.124513
      3          6           0       -2.061593    0.090351    3.229672
      4          6           0       -2.516402    4.291649    0.825573
      5          6           0       -5.517750    2.297250   -2.448242
      6          7           0       -3.390548   -0.701399    1.298555
      7          6           0       -4.069538   -1.879038    0.928624
      8          6           0       -3.483290   -3.031037    1.760627
      9          6           0       -2.818795   -2.309640    2.940007
     10          6           0       -2.738638   -0.825552    2.499357
     11          6           0       -3.646303   -2.411737    4.233736
     12          6           0       -2.722047   -4.178094    1.078050
     13          6           0       -1.883889   -3.799745   -0.143585
     14          6           0       -0.566434   -4.544497   -0.532133
     15          8           0       -0.453362   -5.597907   -1.098806
     16          8           0        0.390389   -3.894213    0.139663
     17          7           0       -2.359000    2.036811    1.716822
     18          6           0       -1.861011    1.420121    2.871348
     19          6           0       -0.956745    2.353015    3.582067
     20          6           0       -0.977506    3.579385    2.902299
     21          6           0       -1.969809    3.319703    1.774526
     22          6           0       -0.164534    2.019557    4.862121
     23          6           0       -0.280236    4.930199    3.331128
     24          8           0        0.431262    4.906614    4.340719
     25          6           0       -0.186373    6.177739    2.433993
     26          7           0       -3.941604    2.982704   -0.646038
     27          6           0       -3.422563    4.142872   -0.214400
     28          6           0       -3.999035    5.359008   -1.040678
     29          6           0       -4.918636    4.626339   -2.098483
     30          6           0       -4.726746    3.212197   -1.775360
     31          6           0       -4.738284    6.470070   -0.279211
     32          6           0       -4.495175    4.868805   -3.552002
     33          6           0       -5.557365    5.428123   -4.445799
     34          7           0       -4.862286    0.431345   -1.022926
     35          6           0       -5.588452    0.948825   -2.062184
     36          6           0       -6.512878   -0.041627   -2.580805
     37          6           0       -6.210531   -1.222006   -1.884213
     38          6           0       -5.199134   -0.893631   -1.003701
     39          6           0       -7.538225    0.148020   -3.629777
     40          6           0       -6.515259   -2.676302   -1.800129
     41          8           0       -7.226712   -3.412398   -2.491668
     42          6           0       -5.724241   -3.174881   -0.564407
     43          6           0       -6.594621   -3.923929    0.415438
     44          8           0       -6.398422   -5.081734    0.702919
     45          8           0       -7.586139   -3.089866    0.980108
     46          6           0       -8.721136   -3.772011    1.678727
     47          6           0        1.734194   -4.465139    0.030864
     48          6           0        2.758868   -3.346532   -0.383396
     49          6           0        3.174661   -3.025962   -1.588594
     50          6           0        2.579754   -3.476252   -2.936626
     51          6           0        4.467830   -2.186052   -1.731755
     52          6           0        4.374321   -0.831729   -2.508359
     53          6           0        5.784842   -0.208214   -2.725969
     54          6           0        6.112683    0.897991   -1.699668
     55          6           0        6.065256    2.306623   -2.421747
     56          6           0        7.410974    0.591983   -0.908746
     57          6           0        7.151942    0.133596    0.555439
     58          6           0        7.994413   -1.036137    1.022799
     59          6           0        9.395959   -0.642447    1.518256
     60          6           0        9.628272   -1.323833    2.925685
     61          6           0       10.622747   -0.874160    0.554197
     62          6           0       11.735662    0.111807    0.698816
     63          6           0       12.313124    0.463190   -0.802259
     64          6           0       13.897569    0.370492   -0.891317
     65          6           0       14.476537    1.820406   -1.025018
     66          6           0       14.430961   -0.507259   -2.048681
     67          1           0       -1.645774   -0.263152    4.174965
     68          1           0       -2.140928    5.315065    0.897294
     69          1           0       -6.321864    2.594921   -3.124510
     70          1           0       -4.390472   -3.548409    2.075071
     71          1           0       -1.758630   -2.516711    3.087507
     72          1           0       -2.950017   -2.853715    4.945752
     73          1           0       -4.349729   -3.218868    4.033483
     74          1           0       -4.077330   -1.466716    4.564301
     75          1           0       -3.406919   -4.968363    0.770913
     76          1           0       -2.047238   -4.561151    1.843853
     77          1           0       -1.647110   -2.739061   -0.067897
     78          1           0       -2.627691   -3.759796   -0.938959
     79          1           0        0.274123    2.789506    5.497891
     80          1           0        0.638166    1.296247    4.713797
     81          1           0       -0.876568    1.550580    5.540274
     82          1           0       -0.850114    6.940650    2.839539
     83          1           0       -0.353790    6.113100    1.358955
     84          1           0        0.806482    6.504553    2.744085
     85          1           0       -3.178103    5.920972   -1.487306
     86          1           0       -5.976704    4.795299   -1.899271
     87          1           0       -5.317435    5.992932    0.511474
     88          1           0       -5.461494    7.005733   -0.895076
     89          1           0       -3.971280    7.113891    0.149997
     90          1           0       -4.047626    4.005052   -4.043414
     91          1           0       -3.607763    5.498206   -3.490526
     92          1           0       -5.381149    5.195133   -5.495836
     93          1           0       -5.451444    6.509852   -4.359710
     94          1           0       -6.506701    5.137446   -3.996963
     95          1           0       -8.499521   -0.280250   -3.344304
     96          1           0       -7.228277   -0.429698   -4.501019
     97          1           0       -7.595426    1.203847   -3.895136
     98          1           0       -4.975607   -3.917772   -0.837027
     99          1           0       -9.738103   -3.787352    1.285937
    100          1           0       -8.709143   -3.327386    2.673946
    101          1           0       -8.587043   -4.852974    1.723539
    102          1           0        1.762288   -5.389359   -0.545794
    103          1           0        1.946778   -4.718523    1.069691
    104          1           0        3.419549   -2.979704    0.401143
    105          1           0        3.325545   -3.557233   -3.727612
    106          1           0        1.701124   -2.932559   -3.282540
    107          1           0        2.143002   -4.472432   -2.873462
    108          1           0        5.216578   -2.819774   -2.206986
    109          1           0        4.714797   -1.900015   -0.709061
    110          1           0        3.721651   -0.187422   -1.920669
    111          1           0        3.921868   -1.076876   -3.470028
    112          1           0        5.730408    0.154353   -3.752553
    113          1           0        6.454077   -1.062812   -2.625494
    114          1           0        5.341610    0.890094   -0.928673
    115          1           0        7.038925    2.792716   -2.482524
    116          1           0        5.451720    2.923159   -1.764788
    117          1           0        5.473305    2.254079   -3.335605
    118          1           0        8.021840    1.474932   -0.723669
    119          1           0        8.087497   -0.127904   -1.368868
    120          1           0        6.096191   -0.129890    0.626700
    121          1           0        7.312957    1.033827    1.147604
    122          1           0        8.130217   -1.666831    0.143067
    123          1           0        7.358317   -1.583742    1.717476
    124          1           0        9.534991    0.415376    1.743834
    125          1           0        8.741642   -1.441737    3.547050
    126          1           0       10.384586   -0.738725    3.449261
    127          1           0        9.968003   -2.332665    2.690886
    128          1           0       10.324292   -0.817475   -0.492077
    129          1           0       11.073311   -1.862601    0.646670
    130          1           0       12.422140   -0.402875    1.372052
    131          1           0       11.393403    1.091636    1.034040
    132          1           0       11.946121    1.455263   -1.063626
    133          1           0       11.938020   -0.244000   -1.542754
    134          1           0       14.100200    0.075707    0.137314
    135          1           0       15.509216    1.680986   -1.344312
    136          1           0       14.425790    2.292816   -0.043717
    137          1           0       14.019452    2.387144   -1.835972
    138          1           0       15.314711   -1.019912   -1.669915
    139          1           0       14.837735    0.050530   -2.891689
    140          1           0       13.827760   -1.395708   -2.236757
 ---------------------------------------------------------------------

 SCF Done:  E(RB-LYP) =  -3007.34564007     A.U. after   20 cycles

 Excitation energies and oscillator strengths:

 Excited State   1:      Singlet-A      1.7885 eV  693.21 nm  f=0.3217  <S**2>=0.000
     245 -> 248        0.16125
     246 -> 247        0.69609
     246 <- 247       -0.15923
 This state for optimization and/or second-order correction.
 Total Energy, E(TD-HF/TD-DFT) =  -3007.27991227
 Copying the excited state density for this state as the 1-particle RhoCI density.

 Excited State   2:      Singlet-A      2.0507 eV  604.59 nm  f=0.0106  <S**2>=0.000
     244 -> 247        0.64668
     245 -> 247       -0.26303

 Excited State   3:      Singlet-A      2.1204 eV  584.73 nm  f=0.0438  <S**2>=0.000
     243 -> 247       -0.26387
     244 -> 247        0.27146
     245 -> 247        0.52945
     246 -> 248       -0.23319
     246 -> 249        0.10774

 Excited State   4:      Singlet-A      2.1584 eV  574.42 nm  f=0.0110  <S**2>=0.000
     243 -> 247        0.65432
     245 -> 247        0.21963
     246 -> 248       -0.10916

 Excited State   5:      Singlet-A      2.4814 eV  499.66 nm  f=0.0003  <S**2>=0.000
     241 -> 247        0.70065

 The electronic state is 1-A.
 Alpha  occ. eigenvalues --  -46.25534 -18.82275 -18.81912 -18.77940 -18.76360
 Alpha  occ. eigenvalues --  -18.76305 -18.76192 -14.03273 -14.03036 -14.01897
 Alpha  occ. eigenvalues --  -14.00729 -10.04852 -10.03552 -10.01264 -10.00276
 Alpha  occ. eigenvalues --   -9.97867  -9.97827  -9.97097  -9.96950  -9.96422
 Alpha  occ. eigenvalues --   -9.96292  -9.96124  -9.95969  -9.95217  -9.94401
 Alpha  occ. eigenvalues --   -9.94267  -9.94245  -9.94197  -9.93587  -9.93561
 Alpha  occ. eigenvalues --   -9.93538  -9.93503  -9.93394  -9.93203  -9.93091
 Alpha  occ. eigenvalues --   -9.93085  -9.92966  -9.92922  -9.92866  -9.92739
 Alpha  occ. eigenvalues --   -9.92518  -9.92373  -9.92371  -9.92262  -9.92180
 Alpha  occ. eigenvalues --   -9.92106  -9.92027  -9.92003  -9.91977  -9.91972
 Alpha  occ. eigenvalues --   -9.91959  -9.91793  -9.91637  -9.91383  -9.91298
 Alpha  occ. eigenvalues --   -9.91170  -9.91129  -9.91045  -9.91011  -9.90970
 Alpha  occ. eigenvalues --   -9.90775  -9.90732  -9.90663  -9.90637  -9.90566
 Alpha  occ. eigenvalues --   -9.90555  -2.90614  -1.71023  -1.70484  -1.70351
 Alpha  occ. eigenvalues --   -0.98705  -0.97053  -0.91632  -0.90933  -0.90462
 Alpha  occ. eigenvalues --   -0.90221  -0.86930  -0.86042  -0.85672  -0.84363
 Alpha  occ. eigenvalues --   -0.76311  -0.73886  -0.73280  -0.72711  -0.72480
 Alpha  occ. eigenvalues --   -0.71965  -0.71452  -0.71335  -0.70378  -0.70249
 Alpha  occ. eigenvalues --   -0.69458  -0.68930  -0.68299  -0.68033  -0.67269
 Alpha  occ. eigenvalues --   -0.66495  -0.65886  -0.65253  -0.65027  -0.64593
 Alpha  occ. eigenvalues --   -0.63789  -0.62890  -0.62162  -0.61676  -0.61443
 Alpha  occ. eigenvalues --   -0.60558  -0.60019  -0.59850  -0.59208  -0.58484
 Alpha  occ. eigenvalues --   -0.58286  -0.57789  -0.56909  -0.55483  -0.54629
 Alpha  occ. eigenvalues --   -0.54043  -0.53570  -0.52451  -0.52290  -0.52079
 Alpha  occ. eigenvalues --   -0.51068  -0.50959  -0.50582  -0.50109  -0.49575
 Alpha  occ. eigenvalues --   -0.49451  -0.49322  -0.49190  -0.48890  -0.46699
 Alpha  occ. eigenvalues --   -0.46207  -0.46007  -0.45698  -0.45117  -0.44381
 Alpha  occ. eigenvalues --   -0.43967  -0.43576  -0.43291  -0.42342  -0.42324
 Alpha  occ. eigenvalues --   -0.42041  -0.41697  -0.41633  -0.41085  -0.40966
 Alpha  occ. eigenvalues --   -0.40629  -0.40512  -0.40241  -0.40215  -0.39929
 Alpha  occ. eigenvalues --   -0.39829  -0.39698  -0.39680  -0.39497  -0.39244
 Alpha  occ. eigenvalues --   -0.39136  -0.39008  -0.38742  -0.38696  -0.38473
 Alpha  occ. eigenvalues --   -0.38156  -0.37824  -0.37584  -0.37400  -0.37151
 Alpha  occ. eigenvalues --   -0.37016  -0.36793  -0.36544  -0.36531  -0.36268
 Alpha  occ. eigenvalues --   -0.36212  -0.36115  -0.36022  -0.35890  -0.35860
 Alpha  occ. eigenvalues --   -0.35719  -0.35603  -0.35360  -0.35003  -0.34977
 Alpha  occ. eigenvalues --   -0.34564  -0.34514  -0.34245  -0.34172  -0.34076
 Alpha  occ. eigenvalues --   -0.33765  -0.33617  -0.33406  -0.33229  -0.33104
 Alpha  occ. eigenvalues --   -0.32943  -0.32759  -0.32669  -0.32368  -0.32119
 Alpha  occ. eigenvalues --   -0.31988  -0.31939  -0.31834  -0.31698  -0.31433
 Alpha  occ. eigenvalues --   -0.31425  -0.31218  -0.30946  -0.30782  -0.30568
 Alpha  occ. eigenvalues --   -0.30418  -0.30303  -0.30188  -0.29964  -0.29903
 Alpha  occ. eigenvalues --   -0.29704  -0.29598  -0.29574  -0.29294  -0.29089
 Alpha  occ. eigenvalues --   -0.28680  -0.28113  -0.28001  -0.27956  -0.27761
 Alpha  occ. eigenvalues --   -0.27120  -0.26953  -0.26935  -0.26666  -0.26572
 Alpha  occ. eigenvalues --   -0.26563  -0.26062  -0.25859  -0.25313  -0.25101
 Alpha  occ. eigenvalues --   -0.24983  -0.24633  -0.24206  -0.24140  -0.23670
 Alpha  occ. eigenvalues --   -0.23118  -0.23090  -0.22363  -0.22082  -0.21330
 Alpha  occ. eigenvalues --   -0.20747  -0.20623  -0.19455  -0.19112  -0.17843
 Alpha  occ. eigenvalues --   -0.15755
 Alpha virt. eigenvalues --   -0.11629  -0.07124  -0.06462  -0.05340  -0.03670
 Alpha virt. eigenvalues --   -0.02407  -0.02205  -0.01758  -0.01499  -0.00317
 Alpha virt. eigenvalues --    0.00827   0.01623   0.02347   0.02577   0.02943

 Mulliken charges:
               1
     1  Mg   0.711647
     2  C    0.009254
     3  C   -0.087338
     4  C   -0.046582
     5  C   -0.129415
     6  N   -0.232242
     7  C   -0.121713
     8  C    0.075267
     9  C   -0.033389
    10  C    0.048197
    11  C    0.149710
    12  C    0.132732
    13  C    0.095940
    14  C    0.083187
    15  O   -0.166153
    16  O   -0.251940
    17  N   -0.297917
    18  C    0.160661
    19  C   -0.124178
    20  C    0.014303
    21  C    0.117887
    22  C    0.156836
    23  C   -0.046847
    24  O   -0.174090
    25  C    0.128689
    26  N   -0.273075
    27  C    0.042231
    28  C    0.019580
    29  C    0.025600
    30  C    0.067789
    31  C    0.111762
    32  C    0.099264
    33  C    0.095269
    34  N   -0.266766
    35  C    0.122488
    36  C   -0.207656
    37  C    0.056350
    38  C    0.097220
    39  C    0.190901
    40  C   -0.018557
    41  O   -0.133927
    42  C    0.105925
    43  C    0.103427
    44  O   -0.144647
    45  O   -0.308699
    46  C    0.200709
    47  C    0.305133
    48  C   -0.072050
    49  C   -0.121173
    50  C    0.131737
    51  C    0.082897
    52  C    0.028379
    53  C    0.140829
    54  C   -0.059332
    55  C    0.116796
    56  C    0.090220
    57  C    0.017631
    58  C    0.151726
    59  C   -0.046765
    60  C    0.078317
    61  C    0.079670
    62  C    0.049466
    63  C    0.057118
    64  C   -0.083801
    65  C    0.083617
    66  C    0.125288
    67  H   -0.061575
    68  H   -0.093250
    69  H   -0.053059
    70  H   -0.031122
    71  H   -0.016142
    72  H   -0.012333
    73  H   -0.011862
    74  H    0.012184
    75  H    0.001851
    76  H   -0.030049
    77  H   -0.010734
    78  H   -0.028609
    79  H    0.008185
    80  H   -0.003515
    81  H   -0.014828
    82  H    0.001440
    83  H    0.020988
    84  H    0.007340
    85  H   -0.024353
    86  H   -0.017724
    87  H   -0.012865
    88  H   -0.000160
    89  H   -0.003305
    90  H   -0.021544
    91  H   -0.043842
    92  H   -0.003290
    93  H   -0.016409
    94  H   -0.003774
    95  H    0.008807
    96  H    0.007488
    97  H   -0.025042
    98  H   -0.002576
    99  H    0.021269
   100  H    0.019485
   101  H    0.015047
   102  H    0.018647
   103  H   -0.026831
   104  H   -0.042265
   105  H   -0.007466
   106  H    0.008879
   107  H   -0.015297
   108  H   -0.009180
   109  H   -0.030016
   110  H   -0.021525
   111  H   -0.033931
   112  H   -0.030576
   113  H   -0.037610
   114  H   -0.028175
   115  H   -0.004269
   116  H   -0.028459
   117  H   -0.016497
   118  H   -0.045686
   119  H   -0.024411
   120  H   -0.031795
   121  H   -0.029664
   122  H   -0.038209
   123  H   -0.038804
   124  H   -0.041251
   125  H   -0.011691
   126  H   -0.015635
   127  H   -0.019389
   128  H   -0.034421
   129  H   -0.038773
   130  H   -0.009960
   131  H   -0.022826
   132  H   -0.027706
   133  H   -0.028260
   134  H   -0.034406
   135  H   -0.026554
   136  H   -0.009563
   137  H   -0.009745
   138  H   -0.029922
   139  H   -0.004846
   140  H   -0.017431
 Sum of Mulliken charges =  -0.00000

 Dipole moment (field-independent basis, Debye):
    X=             -0.1450    Y=              5.5163    Z=              0.5851  Tot=              5.5491
 Quadrupole moment (field-independent basis, Debye-Ang):
   XX=           -385.9413   YY=           -419.8606   ZZ=           -406.8711
   XY=            -42.6696   XZ=            -20.6629   YZ=            -34.3546

 Normal termination of Gaussian 16 at Wed May  4 03:17:02 2022.
