 Gaussian 16, Revision A.03,
 Gaussian 16:  ES64L-G16RevA.03 25-Dec-2016

 -----------------------------------
 #p cam-b3lyp/Def2SVP td=(nstates=5)
 -----------------------------------

 --------------------------------------------------------
 step_1251_chromophore_26 TDDFT with cam-b3lyp functional
 --------------------------------------------------------
 Symbolic Z-matrix:
 Charge =  0 Multiplicity = 1

                         Standard orientation:
 ---------------------------------------------------------------------
 Center     Atomic      Atomic             Coordinates (Angstroms)
 Number     Number       Type             X           Y           Z
 ---------------------------------------------------------------------
      1         12           0       -3.760889    1.325636    0.436569
      2          6           0       -4.964862   -1.922083   -0.124513
      3          6           0       -2.061593    0.090351    3.229672
      4          6           0       -2.516402    4.291649    0.825573
      5          6           0       -5.517750    2.297250   -2.448242
      6          7           0       -3.390548   -0.701399    1.298555
      7          6           0       -4.069538   -1.879038    0.928624
      8          6           0       -3.483290   -3.031037    1.760627
      9          6           0       -2.818795   -2.309640    2.940007
     10          6           0       -2.738638   -0.825552    2.499357
     11          6           0       -3.646303   -2.411737    4.233736
     12          6           0       -2.722047   -4.178094    1.078050
     13          6           0       -1.883889   -3.799745   -0.143585
     14          6           0       -0.566434   -4.544497   -0.532133
     15          8           0       -0.453362   -5.597907   -1.098806
     16          8           0        0.390389   -3.894213    0.139663
     17          7           0       -2.359000    2.036811    1.716822
     18          6           0       -1.861011    1.420121    2.871348
     19          6           0       -0.956745    2.353015    3.582067
     20          6           0       -0.977506    3.579385    2.902299
     21          6           0       -1.969809    3.319703    1.774526
     22          6           0       -0.164534    2.019557    4.862121
     23          6           0       -0.280236    4.930199    3.331128
     24          8           0        0.431262    4.906614    4.340719
     25          6           0       -0.186373    6.177739    2.433993
     26          7           0       -3.941604    2.982704   -0.646038
     27          6           0       -3.422563    4.142872   -0.214400
     28          6           0       -3.999035    5.359008   -1.040678
     29          6           0       -4.918636    4.626339   -2.098483
     30          6           0       -4.726746    3.212197   -1.775360
     31          6           0       -4.738284    6.470070   -0.279211
     32          6           0       -4.495175    4.868805   -3.552002
     33          6           0       -5.557365    5.428123   -4.445799
     34          7           0       -4.862286    0.431345   -1.022926
     35          6           0       -5.588452    0.948825   -2.062184
     36          6           0       -6.512878   -0.041627   -2.580805
     37          6           0       -6.210531   -1.222006   -1.884213
     38          6           0       -5.199134   -0.893631   -1.003701
     39          6           0       -7.538225    0.148020   -3.629777
     40          6           0       -6.515259   -2.676302   -1.800129
     41          8           0       -7.226712   -3.412398   -2.491668
     42          6           0       -5.724241   -3.174881   -0.564407
     43          6           0       -6.594621   -3.923929    0.415438
     44          8           0       -6.398422   -5.081734    0.702919
     45          8           0       -7.586139   -3.089866    0.980108
     46          6           0       -8.721136   -3.772011    1.678727
     47          6           0        1.734194   -4.465139    0.030864
     48          6           0        2.758868   -3.346532   -0.383396
     49          6           0        3.174661   -3.025962   -1.588594
     50          6           0        2.579754   -3.476252   -2.936626
     51          6           0        4.467830   -2.186052   -1.731755
     52          6           0        4.374321   -0.831729   -2.508359
     53          6           0        5.784842   -0.208214   -2.725969
     54          6           0        6.112683    0.897991   -1.699668
     55          6           0        6.065256    2.306623   -2.421747
     56          6           0        7.410974    0.591983   -0.908746
     57          6           0        7.151942    0.133596    0.555439
     58          6           0        7.994413   -1.036137    1.022799
     59          6           0        9.395959   -0.642447    1.518256
     60          6           0        9.628272   -1.323833    2.925685
     61          6           0       10.622747   -0.874160    0.554197
     62          6           0       11.735662    0.111807    0.698816
     63          6           0       12.313124    0.463190   -0.802259
     64          6           0       13.897569    0.370492   -0.891317
     65          6           0       14.476537    1.820406   -1.025018
     66          6           0       14.430961   -0.507259   -2.048681
     67          1           0       -1.645774   -0.263152    4.174965
     68          1           0       -2.140928    5.315065    0.897294
     69          1           0       -6.321864    2.594921   -3.124510
     70          1           0       -4.390472   -3.548409    2.075071
     71          1           0       -1.758630   -2.516711    3.087507
     72          1           0       -2.950017   -2.853715    4.945752
     73          1           0       -4.349729   -3.218868    4.033483
     74          1           0       -4.077330   -1.466716    4.564301
     75          1           0       -3.406919   -4.968363    0.770913
     76          1           0       -2.047238   -4.561151    1.843853
     77          1           0       -1.647110   -2.739061   -0.067897
     78          1           0       -2.627691   -3.759796   -0.938959
     79          1           0        0.274123    2.789506    5.497891
     80          1           0        0.638166    1.296247    4.713797
     81          1           0       -0.876568    1.550580    5.540274
     82          1           0       -0.850114    6.940650    2.839539
     83          1           0       -0.353790    6.113100    1.358955
     84          1           0        0.806482    6.504553    2.744085
     85          1           0       -3.178103    5.920972   -1.487306
     86          1           0       -5.976704    4.795299   -1.899271
     87          1           0       -5.317435    5.992932    0.511474
     88          1           0       -5.461494    7.005733   -0.895076
     89          1           0       -3.971280    7.113891    0.149997
     90          1           0       -4.047626    4.005052   -4.043414
     91          1           0       -3.607763    5.498206   -3.490526
     92          1           0       -5.381149    5.195133   -5.495836
     93          1           0       -5.451444    6.509852   -4.359710
     94          1           0       -6.506701    5.137446   -3.996963
     95          1           0       -8.499521   -0.280250   -3.344304
     96          1           0       -7.228277   -0.429698   -4.501019
     97          1           0       -7.595426    1.203847   -3.895136
     98          1           0       -4.975607   -3.917772   -0.837027
     99          1           0       -9.738103   -3.787352    1.285937
    100          1           0       -8.709143   -3.327386    2.673946
    101          1           0       -8.587043   -4.852974    1.723539
    102          1           0        1.762288   -5.389359   -0.545794
    103          1           0        1.946778   -4.718523    1.069691
    104          1           0        3.419549   -2.979704    0.401143
    105          1           0        3.325545   -3.557233   -3.727612
    106          1           0        1.701124   -2.932559   -3.282540
    107          1           0        2.143002   -4.472432   -2.873462
    108          1           0        5.216578   -2.819774   -2.206986
    109          1           0        4.714797   -1.900015   -0.709061
    110          1           0        3.721651   -0.187422   -1.920669
    111          1           0        3.921868   -1.076876   -3.470028
    112          1           0        5.730408    0.154353   -3.752553
    113          1           0        6.454077   -1.062812   -2.625494
    114          1           0        5.341610    0.890094   -0.928673
    115          1           0        7.038925    2.792716   -2.482524
    116          1           0        5.451720    2.923159   -1.764788
    117          1           0        5.473305    2.254079   -3.335605
    118          1           0        8.021840    1.474932   -0.723669
    119          1           0        8.087497   -0.127904   -1.368868
    120          1           0        6.096191   -0.129890    0.626700
    121          1           0        7.312957    1.033827    1.147604
    122          1           0        8.130217   -1.666831    0.143067
    123          1           0        7.358317   -1.583742    1.717476
    124          1           0        9.534991    0.415376    1.743834
    125          1           0        8.741642   -1.441737    3.547050
    126          1           0       10.384586   -0.738725    3.449261
    127          1           0        9.968003   -2.332665    2.690886
    128          1           0       10.324292   -0.817475   -0.492077
    129          1           0       11.073311   -1.862601    0.646670
    130          1           0       12.422140   -0.402875    1.372052
    131          1           0       11.393403    1.091636    1.034040
    132          1           0       11.946121    1.455263   -1.063626
    133          1           0       11.938020   -0.244000   -1.542754
    134          1           0       14.100200    0.075707    0.137314
    135          1           0       15.509216    1.680986   -1.344312
    136          1           0       14.425790    2.292816   -0.043717
    137          1           0       14.019452    2.387144   -1.835972
    138          1           0       15.314711   -1.019912   -1.669915
    139          1           0       14.837735    0.050530   -2.891689
    140          1           0       13.827760   -1.395708   -2.236757
 ---------------------------------------------------------------------

 SCF Done:  E(RCAM-B3LYP) =  -3007.13809948     A.U. after   17 cycles

 Excitation energies and oscillator strengths:

 Excited State   1:      Singlet-A      1.6835 eV  736.45 nm  f=0.3855  <S**2>=0.000
     245 -> 248        0.16594
     246 -> 247        0.68952
     245 <- 248        0.10486
 This state for optimization and/or second-order correction.
 Total Energy, E(TD-HF/TD-DFT) =  -3007.07623040
 Copying the excited state density for this state as the 1-particle RhoCI density.

 Excited State   2:      Singlet-A      2.3542 eV  526.64 nm  f=0.0741  <S**2>=0.000
     245 -> 247        0.61298
     246 -> 248       -0.33868

 Excited State   3:      Singlet-A      3.5010 eV  354.14 nm  f=0.0058  <S**2>=0.000
     242 -> 247       -0.15846
     244 -> 247        0.66311
     246 -> 248        0.10942

 Excited State   4:      Singlet-A      3.5283 eV  351.40 nm  f=0.6565  <S**2>=0.000
     242 -> 247        0.13164
     245 -> 247        0.32649
     246 -> 248        0.59483
     245 <- 247       -0.10665

 Excited State   5:      Singlet-A      3.6643 eV  338.36 nm  f=0.0072  <S**2>=0.000
     241 -> 247        0.52325
     241 -> 249        0.32875
     241 -> 250        0.26762

 The electronic state is 1-A.
 Alpha  occ. eigenvalues --  -46.86973 -19.25135 -19.24716 -19.21097 -19.19804
 Alpha  occ. eigenvalues --  -19.19348 -19.19288 -14.42080 -14.41946 -14.40637
 Alpha  occ. eigenvalues --  -14.39000 -10.40342 -10.38760 -10.36827 -10.35563
 Alpha  occ. eigenvalues --  -10.32048 -10.31955 -10.31853 -10.31633 -10.30827
 Alpha  occ. eigenvalues --  -10.30706 -10.30546 -10.30469 -10.29283 -10.29150
 Alpha  occ. eigenvalues --  -10.28570 -10.28419 -10.28273 -10.28166 -10.27834
 Alpha  occ. eigenvalues --  -10.27499 -10.27373 -10.27346 -10.27209 -10.27175
 Alpha  occ. eigenvalues --  -10.27138 -10.27133 -10.27100 -10.26740 -10.26691
 Alpha  occ. eigenvalues --  -10.26289 -10.26030 -10.25997 -10.25967 -10.25923
 Alpha  occ. eigenvalues --  -10.25795 -10.25778 -10.25763 -10.25703 -10.25673
 Alpha  occ. eigenvalues --  -10.25598 -10.25584 -10.25536 -10.25058 -10.25006
 Alpha  occ. eigenvalues --  -10.24951 -10.24915 -10.24723 -10.24705 -10.24577
 Alpha  occ. eigenvalues --  -10.24434 -10.24344 -10.24342 -10.24276 -10.24238
 Alpha  occ. eigenvalues --  -10.24223  -3.15976  -1.90853  -1.90429  -1.90316
 Alpha  occ. eigenvalues --   -1.17169  -1.15601  -1.10285  -1.09253  -1.08338
 Alpha  occ. eigenvalues --   -1.08065  -1.04582  -1.03627  -1.03383  -1.01952
 Alpha  occ. eigenvalues --   -0.93392  -0.90542  -0.90136  -0.89491  -0.89251
 Alpha  occ. eigenvalues --   -0.88719  -0.88120  -0.87885  -0.86814  -0.86768
 Alpha  occ. eigenvalues --   -0.86188  -0.85351  -0.84427  -0.84297  -0.83472
 Alpha  occ. eigenvalues --   -0.82532  -0.82136  -0.81318  -0.80806  -0.80395
 Alpha  occ. eigenvalues --   -0.79554  -0.78351  -0.77811  -0.77368  -0.76886
 Alpha  occ. eigenvalues --   -0.75883  -0.75348  -0.75160  -0.74488  -0.73722
 Alpha  occ. eigenvalues --   -0.73341  -0.72757  -0.71800  -0.70316  -0.69106
 Alpha  occ. eigenvalues --   -0.68607  -0.68171  -0.67072  -0.66470  -0.66317
 Alpha  occ. eigenvalues --   -0.65108  -0.64939  -0.64771  -0.64261  -0.63556
 Alpha  occ. eigenvalues --   -0.63332  -0.63124  -0.62951  -0.62827  -0.60395
 Alpha  occ. eigenvalues --   -0.59766  -0.59538  -0.59229  -0.58519  -0.57794
 Alpha  occ. eigenvalues --   -0.57406  -0.56929  -0.56611  -0.55528  -0.55419
 Alpha  occ. eigenvalues --   -0.55300  -0.54622  -0.54574  -0.54257  -0.53765
 Alpha  occ. eigenvalues --   -0.53356  -0.53274  -0.53085  -0.53000  -0.52838
 Alpha  occ. eigenvalues --   -0.52551  -0.52463  -0.52183  -0.52061  -0.51779
 Alpha  occ. eigenvalues --   -0.51665  -0.51615  -0.51556  -0.51217  -0.50889
 Alpha  occ. eigenvalues --   -0.50434  -0.50187  -0.49902  -0.49691  -0.49515
 Alpha  occ. eigenvalues --   -0.49383  -0.49289  -0.49151  -0.49031  -0.48619
 Alpha  occ. eigenvalues --   -0.48352  -0.48311  -0.48210  -0.48028  -0.47865
 Alpha  occ. eigenvalues --   -0.47761  -0.47645  -0.47355  -0.47197  -0.46980
 Alpha  occ. eigenvalues --   -0.46579  -0.46429  -0.46175  -0.46117  -0.46001
 Alpha  occ. eigenvalues --   -0.45654  -0.45353  -0.45288  -0.44966  -0.44709
 Alpha  occ. eigenvalues --   -0.44595  -0.44485  -0.44272  -0.43934  -0.43809
 Alpha  occ. eigenvalues --   -0.43606  -0.43423  -0.43320  -0.43163  -0.42972
 Alpha  occ. eigenvalues --   -0.42853  -0.42585  -0.42496  -0.42093  -0.42073
 Alpha  occ. eigenvalues --   -0.41899  -0.41892  -0.41759  -0.41550  -0.41331
 Alpha  occ. eigenvalues --   -0.41039  -0.40959  -0.40736  -0.40314  -0.40175
 Alpha  occ. eigenvalues --   -0.39692  -0.39149  -0.39073  -0.39029  -0.38898
 Alpha  occ. eigenvalues --   -0.38131  -0.38020  -0.37766  -0.37482  -0.37348
 Alpha  occ. eigenvalues --   -0.37247  -0.36754  -0.36629  -0.36546  -0.36185
 Alpha  occ. eigenvalues --   -0.35860  -0.35481  -0.35361  -0.34606  -0.34228
 Alpha  occ. eigenvalues --   -0.34025  -0.33906  -0.33377  -0.31903  -0.31595
 Alpha  occ. eigenvalues --   -0.31145  -0.30934  -0.30880  -0.29737  -0.24773
 Alpha  occ. eigenvalues --   -0.20957
 Alpha virt. eigenvalues --   -0.08669  -0.01784   0.00071   0.01599   0.02653
 Alpha virt. eigenvalues --    0.04266   0.05260   0.05454   0.06230   0.06524
 Alpha virt. eigenvalues --    0.07528   0.08207   0.08740   0.08943   0.09315

 Mulliken charges:
               1
     1  Mg   0.850467
     2  C   -0.023109
     3  C   -0.094435
     4  C   -0.072375
     5  C   -0.124112
     6  N   -0.296538
     7  C   -0.077833
     8  C    0.023666
     9  C   -0.088135
    10  C    0.062409
    11  C    0.089492
    12  C    0.081108
    13  C    0.030816
    14  C    0.162365
    15  O   -0.208848
    16  O   -0.313863
    17  N   -0.384865
    18  C    0.163298
    19  C   -0.129128
    20  C   -0.046008
    21  C    0.149480
    22  C    0.101206
    23  C    0.031618
    24  O   -0.212994
    25  C    0.043385
    26  N   -0.354798
    27  C    0.065943
    28  C   -0.030546
    29  C   -0.043883
    30  C    0.088771
    31  C    0.059013
    32  C    0.042154
    33  C    0.033583
    34  N   -0.354991
    35  C    0.121059
    36  C   -0.209962
    37  C   -0.016848
    38  C    0.131038
    39  C    0.140449
    40  C    0.082715
    41  O   -0.172968
    42  C    0.026672
    43  C    0.195100
    44  O   -0.184533
    45  O   -0.371462
    46  C    0.165980
    47  C    0.268628
    48  C   -0.101974
    49  C   -0.134292
    50  C    0.068667
    51  C    0.031984
    52  C   -0.022194
    53  C    0.081887
    54  C   -0.116763
    55  C    0.059611
    56  C    0.040935
    57  C   -0.029649
    58  C    0.092744
    59  C   -0.104397
    60  C    0.025573
    61  C    0.029977
    62  C   -0.004463
    63  C    0.007014
    64  C   -0.141184
    65  C    0.026884
    66  C    0.057564
    67  H   -0.021997
    68  H   -0.061050
    69  H   -0.021682
    70  H    0.003578
    71  H    0.018435
    72  H    0.012566
    73  H    0.014448
    74  H    0.037167
    75  H    0.031465
    76  H    0.000760
    77  H    0.021850
    78  H    0.000562
    79  H    0.041878
    80  H    0.024660
    81  H    0.010021
    82  H    0.032425
    83  H    0.049349
    84  H    0.041953
    85  H    0.009164
    86  H    0.017712
    87  H    0.012063
    88  H    0.024345
    89  H    0.018094
    90  H    0.010778
    91  H   -0.014469
    92  H    0.021902
    93  H    0.006378
    94  H    0.015748
    95  H    0.033614
    96  H    0.032585
    97  H   -0.002391
    98  H    0.037959
    99  H    0.041541
   100  H    0.041001
   101  H    0.040310
   102  H    0.051903
   103  H    0.004319
   104  H   -0.009555
   105  H    0.017158
   106  H    0.034030
   107  H    0.010321
   108  H    0.017288
   109  H   -0.007601
   110  H    0.005783
   111  H   -0.005175
   112  H   -0.000002
   113  H   -0.009445
   114  H    0.002684
   115  H    0.019194
   116  H   -0.004109
   117  H    0.007605
   118  H   -0.016736
   119  H    0.000302
   120  H   -0.006815
   121  H   -0.001521
   122  H   -0.010446
   123  H   -0.007829
   124  H   -0.011127
   125  H    0.012280
   126  H    0.007624
   127  H    0.003091
   128  H   -0.008049
   129  H   -0.010157
   130  H    0.015724
   131  H    0.005248
   132  H    0.000238
   133  H   -0.001103
   134  H   -0.002576
   135  H   -0.002111
   136  H    0.013941
   137  H    0.012939
   138  H   -0.004085
   139  H    0.019868
   140  H    0.008070
 Sum of Mulliken charges =  -0.00000

 Dipole moment (field-independent basis, Debye):
    X=              0.2908    Y=              6.0188    Z=              1.2761  Tot=              6.1594
 Quadrupole moment (field-independent basis, Debye-Ang):
   XX=           -387.6085   YY=           -416.2559   ZZ=           -405.1870
   XY=            -42.8919   XZ=            -22.5413   YZ=            -34.2483

 Normal termination of Gaussian 16 at Wed May  4 02:03:12 2022.
