 Gaussian 16, Revision A.03,
 Gaussian 16:  ES64L-G16RevA.03 25-Dec-2016

 ---------------------------------
 #p PBE1PBE/Def2SVP td=(nstates=5)
 ---------------------------------

 ------------------------------------------------------
 step_1251_chromophore_26 TDDFT with PBE1PBE functional
 ------------------------------------------------------
 Symbolic Z-matrix:
 Charge =  0 Multiplicity = 1

                         Standard orientation:
 ---------------------------------------------------------------------
 Center     Atomic      Atomic             Coordinates (Angstroms)
 Number     Number       Type             X           Y           Z
 ---------------------------------------------------------------------
      1         12           0       -3.760889    1.325636    0.436569
      2          6           0       -4.964862   -1.922083   -0.124513
      3          6           0       -2.061593    0.090351    3.229672
      4          6           0       -2.516402    4.291649    0.825573
      5          6           0       -5.517750    2.297250   -2.448242
      6          7           0       -3.390548   -0.701399    1.298555
      7          6           0       -4.069538   -1.879038    0.928624
      8          6           0       -3.483290   -3.031037    1.760627
      9          6           0       -2.818795   -2.309640    2.940007
     10          6           0       -2.738638   -0.825552    2.499357
     11          6           0       -3.646303   -2.411737    4.233736
     12          6           0       -2.722047   -4.178094    1.078050
     13          6           0       -1.883889   -3.799745   -0.143585
     14          6           0       -0.566434   -4.544497   -0.532133
     15          8           0       -0.453362   -5.597907   -1.098806
     16          8           0        0.390389   -3.894213    0.139663
     17          7           0       -2.359000    2.036811    1.716822
     18          6           0       -1.861011    1.420121    2.871348
     19          6           0       -0.956745    2.353015    3.582067
     20          6           0       -0.977506    3.579385    2.902299
     21          6           0       -1.969809    3.319703    1.774526
     22          6           0       -0.164534    2.019557    4.862121
     23          6           0       -0.280236    4.930199    3.331128
     24          8           0        0.431262    4.906614    4.340719
     25          6           0       -0.186373    6.177739    2.433993
     26          7           0       -3.941604    2.982704   -0.646038
     27          6           0       -3.422563    4.142872   -0.214400
     28          6           0       -3.999035    5.359008   -1.040678
     29          6           0       -4.918636    4.626339   -2.098483
     30          6           0       -4.726746    3.212197   -1.775360
     31          6           0       -4.738284    6.470070   -0.279211
     32          6           0       -4.495175    4.868805   -3.552002
     33          6           0       -5.557365    5.428123   -4.445799
     34          7           0       -4.862286    0.431345   -1.022926
     35          6           0       -5.588452    0.948825   -2.062184
     36          6           0       -6.512878   -0.041627   -2.580805
     37          6           0       -6.210531   -1.222006   -1.884213
     38          6           0       -5.199134   -0.893631   -1.003701
     39          6           0       -7.538225    0.148020   -3.629777
     40          6           0       -6.515259   -2.676302   -1.800129
     41          8           0       -7.226712   -3.412398   -2.491668
     42          6           0       -5.724241   -3.174881   -0.564407
     43          6           0       -6.594621   -3.923929    0.415438
     44          8           0       -6.398422   -5.081734    0.702919
     45          8           0       -7.586139   -3.089866    0.980108
     46          6           0       -8.721136   -3.772011    1.678727
     47          6           0        1.734194   -4.465139    0.030864
     48          6           0        2.758868   -3.346532   -0.383396
     49          6           0        3.174661   -3.025962   -1.588594
     50          6           0        2.579754   -3.476252   -2.936626
     51          6           0        4.467830   -2.186052   -1.731755
     52          6           0        4.374321   -0.831729   -2.508359
     53          6           0        5.784842   -0.208214   -2.725969
     54          6           0        6.112683    0.897991   -1.699668
     55          6           0        6.065256    2.306623   -2.421747
     56          6           0        7.410974    0.591983   -0.908746
     57          6           0        7.151942    0.133596    0.555439
     58          6           0        7.994413   -1.036137    1.022799
     59          6           0        9.395959   -0.642447    1.518256
     60          6           0        9.628272   -1.323833    2.925685
     61          6           0       10.622747   -0.874160    0.554197
     62          6           0       11.735662    0.111807    0.698816
     63          6           0       12.313124    0.463190   -0.802259
     64          6           0       13.897569    0.370492   -0.891317
     65          6           0       14.476537    1.820406   -1.025018
     66          6           0       14.430961   -0.507259   -2.048681
     67          1           0       -1.645774   -0.263152    4.174965
     68          1           0       -2.140928    5.315065    0.897294
     69          1           0       -6.321864    2.594921   -3.124510
     70          1           0       -4.390472   -3.548409    2.075071
     71          1           0       -1.758630   -2.516711    3.087507
     72          1           0       -2.950017   -2.853715    4.945752
     73          1           0       -4.349729   -3.218868    4.033483
     74          1           0       -4.077330   -1.466716    4.564301
     75          1           0       -3.406919   -4.968363    0.770913
     76          1           0       -2.047238   -4.561151    1.843853
     77          1           0       -1.647110   -2.739061   -0.067897
     78          1           0       -2.627691   -3.759796   -0.938959
     79          1           0        0.274123    2.789506    5.497891
     80          1           0        0.638166    1.296247    4.713797
     81          1           0       -0.876568    1.550580    5.540274
     82          1           0       -0.850114    6.940650    2.839539
     83          1           0       -0.353790    6.113100    1.358955
     84          1           0        0.806482    6.504553    2.744085
     85          1           0       -3.178103    5.920972   -1.487306
     86          1           0       -5.976704    4.795299   -1.899271
     87          1           0       -5.317435    5.992932    0.511474
     88          1           0       -5.461494    7.005733   -0.895076
     89          1           0       -3.971280    7.113891    0.149997
     90          1           0       -4.047626    4.005052   -4.043414
     91          1           0       -3.607763    5.498206   -3.490526
     92          1           0       -5.381149    5.195133   -5.495836
     93          1           0       -5.451444    6.509852   -4.359710
     94          1           0       -6.506701    5.137446   -3.996963
     95          1           0       -8.499521   -0.280250   -3.344304
     96          1           0       -7.228277   -0.429698   -4.501019
     97          1           0       -7.595426    1.203847   -3.895136
     98          1           0       -4.975607   -3.917772   -0.837027
     99          1           0       -9.738103   -3.787352    1.285937
    100          1           0       -8.709143   -3.327386    2.673946
    101          1           0       -8.587043   -4.852974    1.723539
    102          1           0        1.762288   -5.389359   -0.545794
    103          1           0        1.946778   -4.718523    1.069691
    104          1           0        3.419549   -2.979704    0.401143
    105          1           0        3.325545   -3.557233   -3.727612
    106          1           0        1.701124   -2.932559   -3.282540
    107          1           0        2.143002   -4.472432   -2.873462
    108          1           0        5.216578   -2.819774   -2.206986
    109          1           0        4.714797   -1.900015   -0.709061
    110          1           0        3.721651   -0.187422   -1.920669
    111          1           0        3.921868   -1.076876   -3.470028
    112          1           0        5.730408    0.154353   -3.752553
    113          1           0        6.454077   -1.062812   -2.625494
    114          1           0        5.341610    0.890094   -0.928673
    115          1           0        7.038925    2.792716   -2.482524
    116          1           0        5.451720    2.923159   -1.764788
    117          1           0        5.473305    2.254079   -3.335605
    118          1           0        8.021840    1.474932   -0.723669
    119          1           0        8.087497   -0.127904   -1.368868
    120          1           0        6.096191   -0.129890    0.626700
    121          1           0        7.312957    1.033827    1.147604
    122          1           0        8.130217   -1.666831    0.143067
    123          1           0        7.358317   -1.583742    1.717476
    124          1           0        9.534991    0.415376    1.743834
    125          1           0        8.741642   -1.441737    3.547050
    126          1           0       10.384586   -0.738725    3.449261
    127          1           0        9.968003   -2.332665    2.690886
    128          1           0       10.324292   -0.817475   -0.492077
    129          1           0       11.073311   -1.862601    0.646670
    130          1           0       12.422140   -0.402875    1.372052
    131          1           0       11.393403    1.091636    1.034040
    132          1           0       11.946121    1.455263   -1.063626
    133          1           0       11.938020   -0.244000   -1.542754
    134          1           0       14.100200    0.075707    0.137314
    135          1           0       15.509216    1.680986   -1.344312
    136          1           0       14.425790    2.292816   -0.043717
    137          1           0       14.019452    2.387144   -1.835972
    138          1           0       15.314711   -1.019912   -1.669915
    139          1           0       14.837735    0.050530   -2.891689
    140          1           0       13.827760   -1.395708   -2.236757
 ---------------------------------------------------------------------

 SCF Done:  E(RPBE1PBE) =  -3005.32549954     A.U. after   15 cycles

 Excitation energies and oscillator strengths:

 Excited State   1:      Singlet-A      1.8329 eV  676.45 nm  f=0.3775  <S**2>=0.000
     245 -> 248        0.15828
     246 -> 247        0.69757
     246 <- 247       -0.11621
 This state for optimization and/or second-order correction.
 Total Energy, E(TD-HF/TD-DFT) =  -3005.25814320
 Copying the excited state density for this state as the 1-particle RhoCI density.

 Excited State   2:      Singlet-A      2.3508 eV  527.42 nm  f=0.0769  <S**2>=0.000
     245 -> 247        0.62710
     246 -> 248       -0.31121

 Excited State   3:      Singlet-A      3.1274 eV  396.44 nm  f=0.0007  <S**2>=0.000
     243 -> 247       -0.23855
     244 -> 247        0.64344

 Excited State   4:      Singlet-A      3.1760 eV  390.38 nm  f=0.0030  <S**2>=0.000
     242 -> 247       -0.12656
     243 -> 247        0.60354
     243 -> 249        0.16535
     243 -> 250        0.10056
     244 -> 247        0.25487

 Excited State   5:      Singlet-A      3.2672 eV  379.49 nm  f=0.0492  <S**2>=0.000
     240 -> 247        0.57692
     240 -> 248        0.11211
     240 -> 249       -0.16381
     240 -> 250        0.12467
     245 -> 247       -0.10532
     246 -> 248       -0.25916
     246 -> 249        0.11032

 The electronic state is 1-A.
 Alpha  occ. eigenvalues --  -46.90383 -19.25829 -19.25416 -19.21368 -19.19870
 Alpha  occ. eigenvalues --  -19.19677 -19.19562 -14.41587 -14.41525 -14.40143
 Alpha  occ. eigenvalues --  -14.38778 -10.37418 -10.35762 -10.33854 -10.32824
 Alpha  occ. eigenvalues --  -10.29478 -10.29348 -10.29201 -10.29103 -10.28636
 Alpha  occ. eigenvalues --  -10.28358 -10.28311 -10.28133 -10.27075 -10.26695
 Alpha  occ. eigenvalues --  -10.26244 -10.26238 -10.26048 -10.25813 -10.25581
 Alpha  occ. eigenvalues --  -10.25351 -10.25252 -10.25152 -10.25125 -10.24846
 Alpha  occ. eigenvalues --  -10.24838 -10.24486 -10.24373 -10.24351 -10.24139
 Alpha  occ. eigenvalues --  -10.24111 -10.23627 -10.23486 -10.23477 -10.23445
 Alpha  occ. eigenvalues --  -10.23415 -10.23399 -10.23315 -10.23281 -10.23256
 Alpha  occ. eigenvalues --  -10.23150 -10.23085 -10.22960 -10.22808 -10.22592
 Alpha  occ. eigenvalues --  -10.22567 -10.22565 -10.22267 -10.22114 -10.21959
 Alpha  occ. eigenvalues --  -10.21957 -10.21882 -10.21778 -10.21733 -10.21730
 Alpha  occ. eigenvalues --  -10.21655  -3.12952  -1.85772  -1.85327  -1.85216
 Alpha  occ. eigenvalues --   -1.12000  -1.10384  -1.04865  -1.04085  -1.03215
 Alpha  occ. eigenvalues --   -1.02950  -0.99247  -0.98311  -0.97960  -0.96523
 Alpha  occ. eigenvalues --   -0.87839  -0.84920  -0.84227  -0.83669  -0.83398
 Alpha  occ. eigenvalues --   -0.82992  -0.82229  -0.82217  -0.81206  -0.80893
 Alpha  occ. eigenvalues --   -0.80391  -0.79542  -0.78734  -0.78464  -0.77739
 Alpha  occ. eigenvalues --   -0.76756  -0.76241  -0.75520  -0.75169  -0.74657
 Alpha  occ. eigenvalues --   -0.73704  -0.72720  -0.72050  -0.71529  -0.71208
 Alpha  occ. eigenvalues --   -0.70082  -0.69470  -0.69435  -0.68617  -0.67860
 Alpha  occ. eigenvalues --   -0.67705  -0.67170  -0.66226  -0.64618  -0.63511
 Alpha  occ. eigenvalues --   -0.63099  -0.62370  -0.61423  -0.60785  -0.60703
 Alpha  occ. eigenvalues --   -0.59649  -0.59545  -0.59184  -0.58471  -0.57746
 Alpha  occ. eigenvalues --   -0.57651  -0.57489  -0.57402  -0.56991  -0.54919
 Alpha  occ. eigenvalues --   -0.54351  -0.53940  -0.53785  -0.53174  -0.52340
 Alpha  occ. eigenvalues --   -0.51791  -0.51464  -0.51134  -0.50044  -0.49922
 Alpha  occ. eigenvalues --   -0.49810  -0.49141  -0.49103  -0.48917  -0.48184
 Alpha  occ. eigenvalues --   -0.47970  -0.47798  -0.47682  -0.47495  -0.47288
 Alpha  occ. eigenvalues --   -0.47188  -0.46984  -0.46693  -0.46534  -0.46397
 Alpha  occ. eigenvalues --   -0.46241  -0.46081  -0.45881  -0.45798  -0.45368
 Alpha  occ. eigenvalues --   -0.45027  -0.44741  -0.44555  -0.44246  -0.44009
 Alpha  occ. eigenvalues --   -0.43958  -0.43884  -0.43801  -0.43599  -0.43138
 Alpha  occ. eigenvalues --   -0.43007  -0.42884  -0.42751  -0.42705  -0.42514
 Alpha  occ. eigenvalues --   -0.42310  -0.42195  -0.42141  -0.41845  -0.41632
 Alpha  occ. eigenvalues --   -0.41233  -0.41018  -0.40816  -0.40805  -0.40715
 Alpha  occ. eigenvalues --   -0.40420  -0.40161  -0.39856  -0.39748  -0.39387
 Alpha  occ. eigenvalues --   -0.39304  -0.39250  -0.38954  -0.38672  -0.38539
 Alpha  occ. eigenvalues --   -0.38497  -0.38330  -0.38148  -0.37822  -0.37808
 Alpha  occ. eigenvalues --   -0.37595  -0.37429  -0.37275  -0.36907  -0.36815
 Alpha  occ. eigenvalues --   -0.36707  -0.36680  -0.36632  -0.36301  -0.36156
 Alpha  occ. eigenvalues --   -0.35825  -0.35801  -0.35516  -0.35332  -0.34929
 Alpha  occ. eigenvalues --   -0.34461  -0.34030  -0.33961  -0.33906  -0.33731
 Alpha  occ. eigenvalues --   -0.33131  -0.32850  -0.32564  -0.32307  -0.32279
 Alpha  occ. eigenvalues --   -0.32109  -0.31588  -0.31545  -0.31365  -0.31079
 Alpha  occ. eigenvalues --   -0.30902  -0.30420  -0.30245  -0.29541  -0.29514
 Alpha  occ. eigenvalues --   -0.29019  -0.28929  -0.28727  -0.27145  -0.26532
 Alpha  occ. eigenvalues --   -0.26411  -0.26125  -0.26086  -0.25523  -0.21616
 Alpha  occ. eigenvalues --   -0.18622
 Alpha virt. eigenvalues --   -0.11177  -0.05344  -0.04167  -0.02803  -0.00572
 Alpha virt. eigenvalues --   -0.00025   0.00821   0.01156   0.01610   0.02636
 Alpha virt. eigenvalues --    0.03639   0.04477   0.05213   0.05475   0.05935

 Mulliken charges:
               1
     1  Mg   1.010211
     2  C   -0.052921
     3  C   -0.078497
     4  C   -0.069779
     5  C   -0.098321
     6  N   -0.399462
     7  C    0.007754
     8  C   -0.042855
     9  C   -0.173109
    10  C    0.099439
    11  C    0.034307
    12  C    0.024538
    13  C   -0.049930
    14  C    0.230469
    15  O   -0.245096
    16  O   -0.342029
    17  N   -0.499228
    18  C    0.172810
    19  C   -0.155348
    20  C   -0.080079
    21  C    0.170501
    22  C    0.045589
    23  C    0.079544
    24  O   -0.246410
    25  C   -0.033570
    26  N   -0.466907
    27  C    0.097783
    28  C   -0.098042
    29  C   -0.135694
    30  C    0.121857
    31  C   -0.000355
    32  C   -0.008741
    33  C   -0.042502
    34  N   -0.479978
    35  C    0.137993
    36  C   -0.227510
    37  C   -0.059836
    38  C    0.179188
    39  C    0.085656
    40  C    0.179104
    41  O   -0.219485
    42  C   -0.082038
    43  C    0.284066
    44  O   -0.221539
    45  O   -0.399839
    46  C    0.112648
    47  C    0.225298
    48  C   -0.121670
    49  C   -0.164040
    50  C    0.009835
    51  C   -0.041120
    52  C   -0.084339
    53  C    0.025813
    54  C   -0.203081
    55  C   -0.001220
    56  C   -0.006630
    57  C   -0.093496
    58  C    0.030968
    59  C   -0.186754
    60  C   -0.034842
    61  C   -0.024811
    62  C   -0.067624
    63  C   -0.040860
    64  C   -0.232266
    65  C   -0.036374
    66  C   -0.008356
    67  H    0.007060
    68  H   -0.021665
    69  H    0.011406
    70  H    0.049249
    71  H    0.054475
    72  H    0.040581
    73  H    0.041940
    74  H    0.063903
    75  H    0.062236
    76  H    0.035692
    77  H    0.058089
    78  H    0.037438
    79  H    0.067591
    80  H    0.051549
    81  H    0.036856
    82  H    0.060059
    83  H    0.071477
    84  H    0.068922
    85  H    0.044838
    86  H    0.054259
    87  H    0.041045
    88  H    0.051792
    89  H    0.045271
    90  H    0.043136
    91  H    0.019407
    92  H    0.049770
    93  H    0.036122
    94  H    0.042214
    95  H    0.062129
    96  H    0.062000
    97  H    0.026171
    98  H    0.078162
    99  H    0.062590
   100  H    0.062909
   101  H    0.060399
   102  H    0.076255
   103  H    0.032661
   104  H    0.018993
   105  H    0.042889
   106  H    0.061125
   107  H    0.038136
   108  H    0.049708
   109  H    0.030282
   110  H    0.038290
   111  H    0.028631
   112  H    0.031999
   113  H    0.023425
   114  H    0.040532
   115  H    0.045660
   116  H    0.024606
   117  H    0.034694
   118  H    0.016643
   119  H    0.031417
   120  H    0.025525
   121  H    0.031949
   122  H    0.023623
   123  H    0.023578
   124  H    0.027463
   125  H    0.039668
   126  H    0.035576
   127  H    0.031282
   128  H    0.027043
   129  H    0.022570
   130  H    0.045967
   131  H    0.037135
   132  H    0.031853
   133  H    0.030036
   134  H    0.036238
   135  H    0.026956
   136  H    0.042290
   137  H    0.040349
   138  H    0.025129
   139  H    0.046498
   140  H    0.035466
 Sum of Mulliken charges =  -0.00000

 Dipole moment (field-independent basis, Debye):
    X=             -0.0060    Y=              5.9587    Z=              0.9314  Tot=              6.0311
 Quadrupole moment (field-independent basis, Debye-Ang):
   XX=           -382.0198   YY=           -412.8673   ZZ=           -401.7946
   XY=            -43.4853   XZ=            -20.8329   YZ=            -35.9237

 Normal termination of Gaussian 16 at Wed May  4 02:26:49 2022.
