 Gaussian 16, Revision A.03,
 Gaussian 16:  ES64L-G16RevA.03 25-Dec-2016

 --------------------------------
 #p wB97XD/Def2SVP td=(nstates=5)
 --------------------------------

 -----------------------------------------------------
 step_1251_chromophore_26 TDDFT with wB97XD functional
 -----------------------------------------------------
 Symbolic Z-matrix:
 Charge =  0 Multiplicity = 1

                         Standard orientation:
 ---------------------------------------------------------------------
 Center     Atomic      Atomic             Coordinates (Angstroms)
 Number     Number       Type             X           Y           Z
 ---------------------------------------------------------------------
      1         12           0       -3.760889    1.325636    0.436569
      2          6           0       -4.964862   -1.922083   -0.124513
      3          6           0       -2.061593    0.090351    3.229672
      4          6           0       -2.516402    4.291649    0.825573
      5          6           0       -5.517750    2.297250   -2.448242
      6          7           0       -3.390548   -0.701399    1.298555
      7          6           0       -4.069538   -1.879038    0.928624
      8          6           0       -3.483290   -3.031037    1.760627
      9          6           0       -2.818795   -2.309640    2.940007
     10          6           0       -2.738638   -0.825552    2.499357
     11          6           0       -3.646303   -2.411737    4.233736
     12          6           0       -2.722047   -4.178094    1.078050
     13          6           0       -1.883889   -3.799745   -0.143585
     14          6           0       -0.566434   -4.544497   -0.532133
     15          8           0       -0.453362   -5.597907   -1.098806
     16          8           0        0.390389   -3.894213    0.139663
     17          7           0       -2.359000    2.036811    1.716822
     18          6           0       -1.861011    1.420121    2.871348
     19          6           0       -0.956745    2.353015    3.582067
     20          6           0       -0.977506    3.579385    2.902299
     21          6           0       -1.969809    3.319703    1.774526
     22          6           0       -0.164534    2.019557    4.862121
     23          6           0       -0.280236    4.930199    3.331128
     24          8           0        0.431262    4.906614    4.340719
     25          6           0       -0.186373    6.177739    2.433993
     26          7           0       -3.941604    2.982704   -0.646038
     27          6           0       -3.422563    4.142872   -0.214400
     28          6           0       -3.999035    5.359008   -1.040678
     29          6           0       -4.918636    4.626339   -2.098483
     30          6           0       -4.726746    3.212197   -1.775360
     31          6           0       -4.738284    6.470070   -0.279211
     32          6           0       -4.495175    4.868805   -3.552002
     33          6           0       -5.557365    5.428123   -4.445799
     34          7           0       -4.862286    0.431345   -1.022926
     35          6           0       -5.588452    0.948825   -2.062184
     36          6           0       -6.512878   -0.041627   -2.580805
     37          6           0       -6.210531   -1.222006   -1.884213
     38          6           0       -5.199134   -0.893631   -1.003701
     39          6           0       -7.538225    0.148020   -3.629777
     40          6           0       -6.515259   -2.676302   -1.800129
     41          8           0       -7.226712   -3.412398   -2.491668
     42          6           0       -5.724241   -3.174881   -0.564407
     43          6           0       -6.594621   -3.923929    0.415438
     44          8           0       -6.398422   -5.081734    0.702919
     45          8           0       -7.586139   -3.089866    0.980108
     46          6           0       -8.721136   -3.772011    1.678727
     47          6           0        1.734194   -4.465139    0.030864
     48          6           0        2.758868   -3.346532   -0.383396
     49          6           0        3.174661   -3.025962   -1.588594
     50          6           0        2.579754   -3.476252   -2.936626
     51          6           0        4.467830   -2.186052   -1.731755
     52          6           0        4.374321   -0.831729   -2.508359
     53          6           0        5.784842   -0.208214   -2.725969
     54          6           0        6.112683    0.897991   -1.699668
     55          6           0        6.065256    2.306623   -2.421747
     56          6           0        7.410974    0.591983   -0.908746
     57          6           0        7.151942    0.133596    0.555439
     58          6           0        7.994413   -1.036137    1.022799
     59          6           0        9.395959   -0.642447    1.518256
     60          6           0        9.628272   -1.323833    2.925685
     61          6           0       10.622747   -0.874160    0.554197
     62          6           0       11.735662    0.111807    0.698816
     63          6           0       12.313124    0.463190   -0.802259
     64          6           0       13.897569    0.370492   -0.891317
     65          6           0       14.476537    1.820406   -1.025018
     66          6           0       14.430961   -0.507259   -2.048681
     67          1           0       -1.645774   -0.263152    4.174965
     68          1           0       -2.140928    5.315065    0.897294
     69          1           0       -6.321864    2.594921   -3.124510
     70          1           0       -4.390472   -3.548409    2.075071
     71          1           0       -1.758630   -2.516711    3.087507
     72          1           0       -2.950017   -2.853715    4.945752
     73          1           0       -4.349729   -3.218868    4.033483
     74          1           0       -4.077330   -1.466716    4.564301
     75          1           0       -3.406919   -4.968363    0.770913
     76          1           0       -2.047238   -4.561151    1.843853
     77          1           0       -1.647110   -2.739061   -0.067897
     78          1           0       -2.627691   -3.759796   -0.938959
     79          1           0        0.274123    2.789506    5.497891
     80          1           0        0.638166    1.296247    4.713797
     81          1           0       -0.876568    1.550580    5.540274
     82          1           0       -0.850114    6.940650    2.839539
     83          1           0       -0.353790    6.113100    1.358955
     84          1           0        0.806482    6.504553    2.744085
     85          1           0       -3.178103    5.920972   -1.487306
     86          1           0       -5.976704    4.795299   -1.899271
     87          1           0       -5.317435    5.992932    0.511474
     88          1           0       -5.461494    7.005733   -0.895076
     89          1           0       -3.971280    7.113891    0.149997
     90          1           0       -4.047626    4.005052   -4.043414
     91          1           0       -3.607763    5.498206   -3.490526
     92          1           0       -5.381149    5.195133   -5.495836
     93          1           0       -5.451444    6.509852   -4.359710
     94          1           0       -6.506701    5.137446   -3.996963
     95          1           0       -8.499521   -0.280250   -3.344304
     96          1           0       -7.228277   -0.429698   -4.501019
     97          1           0       -7.595426    1.203847   -3.895136
     98          1           0       -4.975607   -3.917772   -0.837027
     99          1           0       -9.738103   -3.787352    1.285937
    100          1           0       -8.709143   -3.327386    2.673946
    101          1           0       -8.587043   -4.852974    1.723539
    102          1           0        1.762288   -5.389359   -0.545794
    103          1           0        1.946778   -4.718523    1.069691
    104          1           0        3.419549   -2.979704    0.401143
    105          1           0        3.325545   -3.557233   -3.727612
    106          1           0        1.701124   -2.932559   -3.282540
    107          1           0        2.143002   -4.472432   -2.873462
    108          1           0        5.216578   -2.819774   -2.206986
    109          1           0        4.714797   -1.900015   -0.709061
    110          1           0        3.721651   -0.187422   -1.920669
    111          1           0        3.921868   -1.076876   -3.470028
    112          1           0        5.730408    0.154353   -3.752553
    113          1           0        6.454077   -1.062812   -2.625494
    114          1           0        5.341610    0.890094   -0.928673
    115          1           0        7.038925    2.792716   -2.482524
    116          1           0        5.451720    2.923159   -1.764788
    117          1           0        5.473305    2.254079   -3.335605
    118          1           0        8.021840    1.474932   -0.723669
    119          1           0        8.087497   -0.127904   -1.368868
    120          1           0        6.096191   -0.129890    0.626700
    121          1           0        7.312957    1.033827    1.147604
    122          1           0        8.130217   -1.666831    0.143067
    123          1           0        7.358317   -1.583742    1.717476
    124          1           0        9.534991    0.415376    1.743834
    125          1           0        8.741642   -1.441737    3.547050
    126          1           0       10.384586   -0.738725    3.449261
    127          1           0        9.968003   -2.332665    2.690886
    128          1           0       10.324292   -0.817475   -0.492077
    129          1           0       11.073311   -1.862601    0.646670
    130          1           0       12.422140   -0.402875    1.372052
    131          1           0       11.393403    1.091636    1.034040
    132          1           0       11.946121    1.455263   -1.063626
    133          1           0       11.938020   -0.244000   -1.542754
    134          1           0       14.100200    0.075707    0.137314
    135          1           0       15.509216    1.680986   -1.344312
    136          1           0       14.425790    2.292816   -0.043717
    137          1           0       14.019452    2.387144   -1.835972
    138          1           0       15.314711   -1.019912   -1.669915
    139          1           0       14.837735    0.050530   -2.891689
    140          1           0       13.827760   -1.395708   -2.236757
 ---------------------------------------------------------------------

 SCF Done:  E(RwB97XD) =  -3007.83485906     A.U. after   19 cycles

 Excitation energies and oscillator strengths:

 Excited State   1:      Singlet-A      1.6318 eV  759.80 nm  f=0.3839  <S**2>=0.000
     245 -> 248        0.17081
     246 -> 247        0.68701
     245 <- 248        0.11314
 This state for optimization and/or second-order correction.
 Total Energy, E(TD-HF/TD-DFT) =  -3007.77489159
 Copying the excited state density for this state as the 1-particle RhoCI density.

 Excited State   2:      Singlet-A      2.3044 eV  538.04 nm  f=0.0725  <S**2>=0.000
     245 -> 247        0.61129
     246 -> 248       -0.33970

 Excited State   3:      Singlet-A      3.5317 eV  351.06 nm  f=0.2081  <S**2>=0.000
     244 -> 247        0.54311
     245 -> 247        0.17796
     246 -> 248        0.37748

 Excited State   4:      Singlet-A      3.5510 eV  349.15 nm  f=0.4653  <S**2>=0.000
     241 -> 247        0.24894
     244 -> 247       -0.36031
     245 -> 247        0.27019
     246 -> 248        0.46531

 Excited State   5:      Singlet-A      3.7023 eV  334.88 nm  f=0.0019  <S**2>=0.000
     239 -> 247       -0.17004
     239 -> 249        0.12475
     241 -> 247       -0.14484
     242 -> 247        0.44853
     242 -> 249        0.31106
     242 -> 250        0.26709

 The electronic state is 1-A.
 Alpha  occ. eigenvalues --  -46.93344 -19.30366 -19.29955 -19.26031 -19.24879
 Alpha  occ. eigenvalues --  -19.24391 -19.24228 -14.46725 -14.46532 -14.45277
 Alpha  occ. eigenvalues --  -14.43599 -10.44215 -10.42555 -10.40872 -10.39578
 Alpha  occ. eigenvalues --  -10.36172 -10.35854 -10.35694 -10.35585 -10.34943
 Alpha  occ. eigenvalues --  -10.34702 -10.34584 -10.34430 -10.33506 -10.33101
 Alpha  occ. eigenvalues --  -10.32614 -10.32468 -10.32441 -10.32097 -10.31936
 Alpha  occ. eigenvalues --  -10.31549 -10.31415 -10.31363 -10.31213 -10.31200
 Alpha  occ. eigenvalues --  -10.31196 -10.31173 -10.31055 -10.30690 -10.30549
 Alpha  occ. eigenvalues --  -10.30257 -10.30012 -10.29887 -10.29841 -10.29821
 Alpha  occ. eigenvalues --  -10.29773 -10.29719 -10.29638 -10.29614 -10.29579
 Alpha  occ. eigenvalues --  -10.29462 -10.29461 -10.29415 -10.28970 -10.28924
 Alpha  occ. eigenvalues --  -10.28919 -10.28894 -10.28635 -10.28542 -10.28402
 Alpha  occ. eigenvalues --  -10.28347 -10.28259 -10.28165 -10.28158 -10.28118
 Alpha  occ. eigenvalues --  -10.28108  -3.19725  -1.93304  -1.92856  -1.92746
 Alpha  occ. eigenvalues --   -1.19357  -1.17753  -1.12549  -1.11474  -1.10536
 Alpha  occ. eigenvalues --   -1.10279  -1.06574  -1.05678  -1.05393  -1.03970
 Alpha  occ. eigenvalues --   -0.95356  -0.92399  -0.91911  -0.91307  -0.91064
 Alpha  occ. eigenvalues --   -0.90677  -0.89896  -0.89785  -0.88716  -0.88571
 Alpha  occ. eigenvalues --   -0.88168  -0.87226  -0.86275  -0.86122  -0.85400
 Alpha  occ. eigenvalues --   -0.84402  -0.84047  -0.83222  -0.82762  -0.82278
 Alpha  occ. eigenvalues --   -0.81380  -0.80255  -0.79751  -0.79274  -0.78798
 Alpha  occ. eigenvalues --   -0.77736  -0.77136  -0.77108  -0.76309  -0.75547
 Alpha  occ. eigenvalues --   -0.75264  -0.74704  -0.73769  -0.72241  -0.70990
 Alpha  occ. eigenvalues --   -0.70598  -0.70032  -0.69111  -0.68348  -0.68225
 Alpha  occ. eigenvalues --   -0.67106  -0.66954  -0.66752  -0.66114  -0.65375
 Alpha  occ. eigenvalues --   -0.65149  -0.65075  -0.64917  -0.64647  -0.62406
 Alpha  occ. eigenvalues --   -0.61734  -0.61449  -0.61216  -0.60496  -0.59781
 Alpha  occ. eigenvalues --   -0.59307  -0.58852  -0.58607  -0.57469  -0.57342
 Alpha  occ. eigenvalues --   -0.57247  -0.56542  -0.56486  -0.56213  -0.55632
 Alpha  occ. eigenvalues --   -0.55274  -0.55180  -0.55045  -0.54874  -0.54706
 Alpha  occ. eigenvalues --   -0.54475  -0.54357  -0.54060  -0.53940  -0.53686
 Alpha  occ. eigenvalues --   -0.53595  -0.53546  -0.53451  -0.53137  -0.52753
 Alpha  occ. eigenvalues --   -0.52342  -0.52102  -0.51837  -0.51599  -0.51472
 Alpha  occ. eigenvalues --   -0.51379  -0.51239  -0.51055  -0.50932  -0.50480
 Alpha  occ. eigenvalues --   -0.50230  -0.50186  -0.50062  -0.49918  -0.49751
 Alpha  occ. eigenvalues --   -0.49618  -0.49515  -0.49264  -0.49152  -0.48929
 Alpha  occ. eigenvalues --   -0.48515  -0.48304  -0.48132  -0.48004  -0.47929
 Alpha  occ. eigenvalues --   -0.47584  -0.47268  -0.47119  -0.46914  -0.46578
 Alpha  occ. eigenvalues --   -0.46487  -0.46416  -0.46132  -0.45813  -0.45715
 Alpha  occ. eigenvalues --   -0.45532  -0.45308  -0.45214  -0.45014  -0.44953
 Alpha  occ. eigenvalues --   -0.44782  -0.44473  -0.44396  -0.44103  -0.43968
 Alpha  occ. eigenvalues --   -0.43875  -0.43843  -0.43670  -0.43419  -0.43249
 Alpha  occ. eigenvalues --   -0.42907  -0.42853  -0.42602  -0.42204  -0.42024
 Alpha  occ. eigenvalues --   -0.41543  -0.41049  -0.40994  -0.40951  -0.40779
 Alpha  occ. eigenvalues --   -0.40035  -0.39902  -0.39609  -0.39343  -0.39305
 Alpha  occ. eigenvalues --   -0.39183  -0.38645  -0.38590  -0.38398  -0.38102
 Alpha  occ. eigenvalues --   -0.37777  -0.37363  -0.37291  -0.36436  -0.36264
 Alpha  occ. eigenvalues --   -0.35879  -0.35838  -0.35574  -0.33897  -0.33801
 Alpha  occ. eigenvalues --   -0.33167  -0.33093  -0.32884  -0.31870  -0.26707
 Alpha  occ. eigenvalues --   -0.22760
 Alpha virt. eigenvalues --   -0.06998   0.00140   0.02124   0.03700   0.05709
 Alpha virt. eigenvalues --    0.06400   0.07509   0.07842   0.08502   0.09234
 Alpha virt. eigenvalues --    0.10120   0.11170   0.11911   0.12121   0.12655

 Mulliken charges:
               1
     1  Mg   0.995733
     2  C   -0.044637
     3  C   -0.099864
     4  C   -0.085184
     5  C   -0.124265
     6  N   -0.363553
     7  C   -0.035560
     8  C   -0.009640
     9  C   -0.145428
    10  C    0.087014
    11  C    0.042239
    12  C    0.033596
    13  C   -0.023830
    14  C    0.221329
    15  O   -0.242316
    16  O   -0.341780
    17  N   -0.467855
    18  C    0.171998
    19  C   -0.146242
    20  C   -0.080051
    21  C    0.172545
    22  C    0.056428
    23  C    0.076433
    24  O   -0.241564
    25  C   -0.022806
    26  N   -0.435562
    27  C    0.088905
    28  C   -0.076308
    29  C   -0.105323
    30  C    0.116948
    31  C    0.010681
    32  C    0.002206
    33  C   -0.024506
    34  N   -0.442943
    35  C    0.132446
    36  C   -0.227087
    37  C   -0.055669
    38  C    0.161743
    39  C    0.097646
    40  C    0.159195
    41  O   -0.210097
    42  C   -0.040022
    43  C    0.260259
    44  O   -0.216032
    45  O   -0.400152
    46  C    0.129435
    47  C    0.237742
    48  C   -0.125890
    49  C   -0.158788
    50  C    0.019282
    51  C   -0.010076
    52  C   -0.066811
    53  C    0.041793
    54  C   -0.171498
    55  C    0.011972
    56  C    0.006096
    57  C   -0.072993
    58  C    0.050816
    59  C   -0.158986
    60  C   -0.020656
    61  C   -0.005360
    62  C   -0.052432
    63  C   -0.028031
    64  C   -0.202480
    65  C   -0.022451
    66  C    0.004312
    67  H    0.004039
    68  H   -0.036691
    69  H    0.001123
    70  H    0.029202
    71  H    0.044745
    72  H    0.035228
    73  H    0.037030
    74  H    0.058509
    75  H    0.056656
    76  H    0.027186
    77  H    0.045938
    78  H    0.026329
    79  H    0.066257
    80  H    0.048231
    81  H    0.030916
    82  H    0.057382
    83  H    0.070073
    84  H    0.067210
    85  H    0.034742
    86  H    0.042315
    87  H    0.034104
    88  H    0.046796
    89  H    0.039770
    90  H    0.034857
    91  H    0.010046
    92  H    0.045365
    93  H    0.028585
    94  H    0.034693
    95  H    0.056452
    96  H    0.055597
    97  H    0.019530
    98  H    0.066830
    99  H    0.058536
   100  H    0.058928
   101  H    0.056072
   102  H    0.072488
   103  H    0.029317
   104  H    0.015919
   105  H    0.038486
   106  H    0.056604
   107  H    0.032543
   108  H    0.040978
   109  H    0.011984
   110  H    0.029435
   111  H    0.019646
   112  H    0.024698
   113  H    0.011626
   114  H    0.023517
   115  H    0.040584
   116  H    0.018367
   117  H    0.028448
   118  H    0.007451
   119  H    0.018428
   120  H    0.014500
   121  H    0.023368
   122  H    0.011695
   123  H    0.016983
   124  H    0.011142
   125  H    0.033875
   126  H    0.029865
   127  H    0.023389
   128  H    0.010920
   129  H    0.014267
   130  H    0.037785
   131  H    0.028648
   132  H    0.023995
   133  H    0.019251
   134  H    0.023318
   135  H    0.019756
   136  H    0.036708
   137  H    0.033629
   138  H    0.018253
   139  H    0.041439
   140  H    0.030047
 Sum of Mulliken charges =  -0.00000

 Dipole moment (field-independent basis, Debye):
    X=              0.3654    Y=              6.1765    Z=              1.4280  Tot=              6.3500
 Quadrupole moment (field-independent basis, Debye-Ang):
   XX=           -383.7971   YY=           -412.0508   ZZ=           -401.0338
   XY=            -43.0225   XZ=            -22.4891   YZ=            -34.7367

 Normal termination of Gaussian 16 at Wed May  4 03:03:19 2022.
