 Gaussian 16, Revision A.03,
 Gaussian 16:  ES64L-G16RevA.03 25-Dec-2016

 --------------------
 #p ZINDO=(nstates=5)
 --------------------

 ------------------------------
 step_1251_chromophore_26 ZINDO
 ------------------------------
 Symbolic Z-matrix:
 Charge =  0 Multiplicity = 1

                         Standard orientation:
 ---------------------------------------------------------------------
 Center     Atomic      Atomic             Coordinates (Angstroms)
 Number     Number       Type             X           Y           Z
 ---------------------------------------------------------------------
      1         12           0       -3.760889    1.325636    0.436569
      2          6           0       -4.964862   -1.922083   -0.124513
      3          6           0       -2.061593    0.090351    3.229672
      4          6           0       -2.516402    4.291649    0.825573
      5          6           0       -5.517750    2.297250   -2.448242
      6          7           0       -3.390548   -0.701399    1.298555
      7          6           0       -4.069538   -1.879038    0.928624
      8          6           0       -3.483290   -3.031037    1.760627
      9          6           0       -2.818795   -2.309640    2.940007
     10          6           0       -2.738638   -0.825552    2.499357
     11          6           0       -3.646303   -2.411737    4.233736
     12          6           0       -2.722047   -4.178094    1.078050
     13          6           0       -1.883889   -3.799745   -0.143585
     14          6           0       -0.566434   -4.544497   -0.532133
     15          8           0       -0.453362   -5.597907   -1.098806
     16          8           0        0.390389   -3.894213    0.139663
     17          7           0       -2.359000    2.036811    1.716822
     18          6           0       -1.861011    1.420121    2.871348
     19          6           0       -0.956745    2.353015    3.582067
     20          6           0       -0.977506    3.579385    2.902299
     21          6           0       -1.969809    3.319703    1.774526
     22          6           0       -0.164534    2.019557    4.862121
     23          6           0       -0.280236    4.930199    3.331128
     24          8           0        0.431262    4.906614    4.340719
     25          6           0       -0.186373    6.177739    2.433993
     26          7           0       -3.941604    2.982704   -0.646038
     27          6           0       -3.422563    4.142872   -0.214400
     28          6           0       -3.999035    5.359008   -1.040678
     29          6           0       -4.918636    4.626339   -2.098483
     30          6           0       -4.726746    3.212197   -1.775360
     31          6           0       -4.738284    6.470070   -0.279211
     32          6           0       -4.495175    4.868805   -3.552002
     33          6           0       -5.557365    5.428123   -4.445799
     34          7           0       -4.862286    0.431345   -1.022926
     35          6           0       -5.588452    0.948825   -2.062184
     36          6           0       -6.512878   -0.041627   -2.580805
     37          6           0       -6.210531   -1.222006   -1.884213
     38          6           0       -5.199134   -0.893631   -1.003701
     39          6           0       -7.538225    0.148020   -3.629777
     40          6           0       -6.515259   -2.676302   -1.800129
     41          8           0       -7.226712   -3.412398   -2.491668
     42          6           0       -5.724241   -3.174881   -0.564407
     43          6           0       -6.594621   -3.923929    0.415438
     44          8           0       -6.398422   -5.081734    0.702919
     45          8           0       -7.586139   -3.089866    0.980108
     46          6           0       -8.721136   -3.772011    1.678727
     47          6           0        1.734194   -4.465139    0.030864
     48          6           0        2.758868   -3.346532   -0.383396
     49          6           0        3.174661   -3.025962   -1.588594
     50          6           0        2.579754   -3.476252   -2.936626
     51          6           0        4.467830   -2.186052   -1.731755
     52          6           0        4.374321   -0.831729   -2.508359
     53          6           0        5.784842   -0.208214   -2.725969
     54          6           0        6.112683    0.897991   -1.699668
     55          6           0        6.065256    2.306623   -2.421747
     56          6           0        7.410974    0.591983   -0.908746
     57          6           0        7.151942    0.133596    0.555439
     58          6           0        7.994413   -1.036137    1.022799
     59          6           0        9.395959   -0.642447    1.518256
     60          6           0        9.628272   -1.323833    2.925685
     61          6           0       10.622747   -0.874160    0.554197
     62          6           0       11.735662    0.111807    0.698816
     63          6           0       12.313124    0.463190   -0.802259
     64          6           0       13.897569    0.370492   -0.891317
     65          6           0       14.476537    1.820406   -1.025018
     66          6           0       14.430961   -0.507259   -2.048681
     67          1           0       -1.645774   -0.263152    4.174965
     68          1           0       -2.140928    5.315065    0.897294
     69          1           0       -6.321864    2.594921   -3.124510
     70          1           0       -4.390472   -3.548409    2.075071
     71          1           0       -1.758630   -2.516711    3.087507
     72          1           0       -2.950017   -2.853715    4.945752
     73          1           0       -4.349729   -3.218868    4.033483
     74          1           0       -4.077330   -1.466716    4.564301
     75          1           0       -3.406919   -4.968363    0.770913
     76          1           0       -2.047238   -4.561151    1.843853
     77          1           0       -1.647110   -2.739061   -0.067897
     78          1           0       -2.627691   -3.759796   -0.938959
     79          1           0        0.274123    2.789506    5.497891
     80          1           0        0.638166    1.296247    4.713797
     81          1           0       -0.876568    1.550580    5.540274
     82          1           0       -0.850114    6.940650    2.839539
     83          1           0       -0.353790    6.113100    1.358955
     84          1           0        0.806482    6.504553    2.744085
     85          1           0       -3.178103    5.920972   -1.487306
     86          1           0       -5.976704    4.795299   -1.899271
     87          1           0       -5.317435    5.992932    0.511474
     88          1           0       -5.461494    7.005733   -0.895076
     89          1           0       -3.971280    7.113891    0.149997
     90          1           0       -4.047626    4.005052   -4.043414
     91          1           0       -3.607763    5.498206   -3.490526
     92          1           0       -5.381149    5.195133   -5.495836
     93          1           0       -5.451444    6.509852   -4.359710
     94          1           0       -6.506701    5.137446   -3.996963
     95          1           0       -8.499521   -0.280250   -3.344304
     96          1           0       -7.228277   -0.429698   -4.501019
     97          1           0       -7.595426    1.203847   -3.895136
     98          1           0       -4.975607   -3.917772   -0.837027
     99          1           0       -9.738103   -3.787352    1.285937
    100          1           0       -8.709143   -3.327386    2.673946
    101          1           0       -8.587043   -4.852974    1.723539
    102          1           0        1.762288   -5.389359   -0.545794
    103          1           0        1.946778   -4.718523    1.069691
    104          1           0        3.419549   -2.979704    0.401143
    105          1           0        3.325545   -3.557233   -3.727612
    106          1           0        1.701124   -2.932559   -3.282540
    107          1           0        2.143002   -4.472432   -2.873462
    108          1           0        5.216578   -2.819774   -2.206986
    109          1           0        4.714797   -1.900015   -0.709061
    110          1           0        3.721651   -0.187422   -1.920669
    111          1           0        3.921868   -1.076876   -3.470028
    112          1           0        5.730408    0.154353   -3.752553
    113          1           0        6.454077   -1.062812   -2.625494
    114          1           0        5.341610    0.890094   -0.928673
    115          1           0        7.038925    2.792716   -2.482524
    116          1           0        5.451720    2.923159   -1.764788
    117          1           0        5.473305    2.254079   -3.335605
    118          1           0        8.021840    1.474932   -0.723669
    119          1           0        8.087497   -0.127904   -1.368868
    120          1           0        6.096191   -0.129890    0.626700
    121          1           0        7.312957    1.033827    1.147604
    122          1           0        8.130217   -1.666831    0.143067
    123          1           0        7.358317   -1.583742    1.717476
    124          1           0        9.534991    0.415376    1.743834
    125          1           0        8.741642   -1.441737    3.547050
    126          1           0       10.384586   -0.738725    3.449261
    127          1           0        9.968003   -2.332665    2.690886
    128          1           0       10.324292   -0.817475   -0.492077
    129          1           0       11.073311   -1.862601    0.646670
    130          1           0       12.422140   -0.402875    1.372052
    131          1           0       11.393403    1.091636    1.034040
    132          1           0       11.946121    1.455263   -1.063626
    133          1           0       11.938020   -0.244000   -1.542754
    134          1           0       14.100200    0.075707    0.137314
    135          1           0       15.509216    1.680986   -1.344312
    136          1           0       14.425790    2.292816   -0.043717
    137          1           0       14.019452    2.387144   -1.835972
    138          1           0       15.314711   -1.019912   -1.669915
    139          1           0       14.837735    0.050530   -2.891689
    140          1           0       13.827760   -1.395708   -2.236757
 ---------------------------------------------------------------------

 SCF Done:  E(RZINDO/S) =  -474.219010275     A.U. after   19 cycles

 Excitation energies and oscillator strengths:

 Excited State   1:      Singlet-A      1.2433 eV  997.25 nm  f=0.5903  <S**2>=0.000
     175 ->178        -0.16983
     176 ->177         0.66846
 This state for optimization and/or second-order correction.
 Total Energy, E(CIS/TDA) =  -474.173321464
 Copying the excited state density for this state as the 1-particle RhoCI density.

 Excited State   2:      Singlet-A      1.9782 eV  626.77 nm  f=0.0060  <S**2>=0.000
     175 ->177         0.49270
     176 ->178         0.47796

 Excited State   3:      Singlet-A      2.9619 eV  418.60 nm  f=0.0094  <S**2>=0.000
     167 ->177         0.14168
     167 ->179        -0.25944
     167 ->180         0.15951
     167 ->185        -0.10446
     168 ->177         0.23073
     168 ->178        -0.14893
     168 ->179        -0.39323
     168 ->180         0.23801
     168 ->185        -0.15901
     168 ->188         0.10718

 Excited State   4:      Singlet-A      2.9746 eV  416.81 nm  f=0.0625  <S**2>=0.000
     176 ->179         0.59642
     176 ->180         0.26692
     176 ->181         0.11129
     176 ->182        -0.11381

 Excited State   5:      Singlet-A      3.0239 eV  410.02 nm  f=1.0560  <S**2>=0.000
     175 ->177        -0.43680
     176 ->178         0.48438
     176 ->179         0.11557

 The electronic state is 1-A.
 Alpha  occ. eigenvalues --   -1.85606  -1.82105  -1.80985  -1.74472  -1.71136
 Alpha  occ. eigenvalues --   -1.69378  -1.64974  -1.59637  -1.59021  -1.57008
 Alpha  occ. eigenvalues --   -1.53601  -1.50868  -1.49679  -1.47907  -1.47249
 Alpha  occ. eigenvalues --   -1.46483  -1.45052  -1.40634  -1.39805  -1.38970
 Alpha  occ. eigenvalues --   -1.36898  -1.34593  -1.32895  -1.31753  -1.29247
 Alpha  occ. eigenvalues --   -1.27754  -1.26221  -1.22638  -1.20684  -1.18288
 Alpha  occ. eigenvalues --   -1.16643  -1.15203  -1.14914  -1.13260  -1.12665
 Alpha  occ. eigenvalues --   -1.12100  -1.10629  -1.09855  -1.06056  -1.04689
 Alpha  occ. eigenvalues --   -1.03000  -1.01219  -1.00397  -0.98345  -0.97581
 Alpha  occ. eigenvalues --   -0.97029  -0.94306  -0.93340  -0.92108  -0.91766
 Alpha  occ. eigenvalues --   -0.91025  -0.90615  -0.89056  -0.88310  -0.87498
 Alpha  occ. eigenvalues --   -0.85499  -0.84322  -0.83534  -0.82394  -0.80499
 Alpha  occ. eigenvalues --   -0.79861  -0.78329  -0.77950  -0.77525  -0.76544
 Alpha  occ. eigenvalues --   -0.76332  -0.76003  -0.74345  -0.73391  -0.72842
 Alpha  occ. eigenvalues --   -0.72773  -0.72091  -0.71576  -0.70938  -0.70316
 Alpha  occ. eigenvalues --   -0.69987  -0.69436  -0.69131  -0.68432  -0.67932
 Alpha  occ. eigenvalues --   -0.67471  -0.66356  -0.66000  -0.65212  -0.64848
 Alpha  occ. eigenvalues --   -0.64610  -0.64336  -0.63787  -0.63625  -0.63329
 Alpha  occ. eigenvalues --   -0.63252  -0.62764  -0.62423  -0.62099  -0.61906
 Alpha  occ. eigenvalues --   -0.61747  -0.61340  -0.61161  -0.60631  -0.60371
 Alpha  occ. eigenvalues --   -0.59807  -0.58931  -0.58754  -0.58590  -0.57793
 Alpha  occ. eigenvalues --   -0.57737  -0.57481  -0.57162  -0.57079  -0.56396
 Alpha  occ. eigenvalues --   -0.56115  -0.55600  -0.55399  -0.55213  -0.54561
 Alpha  occ. eigenvalues --   -0.54270  -0.54253  -0.53605  -0.53383  -0.53313
 Alpha  occ. eigenvalues --   -0.53288  -0.53081  -0.52262  -0.51910  -0.51474
 Alpha  occ. eigenvalues --   -0.51319  -0.51046  -0.50955  -0.50752  -0.50621
 Alpha  occ. eigenvalues --   -0.50222  -0.50052  -0.49720  -0.49419  -0.49186
 Alpha  occ. eigenvalues --   -0.48709  -0.48461  -0.48268  -0.48040  -0.47585
 Alpha  occ. eigenvalues --   -0.47399  -0.47254  -0.46980  -0.46586  -0.46527
 Alpha  occ. eigenvalues --   -0.46164  -0.45446  -0.45406  -0.45188  -0.45140
 Alpha  occ. eigenvalues --   -0.45057  -0.44721  -0.44559  -0.44503  -0.44410
 Alpha  occ. eigenvalues --   -0.43735  -0.43554  -0.42664  -0.42287  -0.42152
 Alpha  occ. eigenvalues --   -0.41657  -0.41457  -0.41235  -0.39245  -0.38822
 Alpha  occ. eigenvalues --   -0.38627  -0.37155  -0.36577  -0.35317  -0.35089
 Alpha  occ. eigenvalues --   -0.34677  -0.33693  -0.33005  -0.32203  -0.27496
 Alpha  occ. eigenvalues --   -0.21715
 Alpha virt. eigenvalues --   -0.08543  -0.02302  -0.00823   0.00804   0.02144
 Alpha virt. eigenvalues --    0.02287   0.02439   0.02662   0.04288   0.04977
 Alpha virt. eigenvalues --    0.05583   0.05876   0.07036   0.07713   0.07790

 Mulliken charges:
               1
     1  Mg   0.427526
     2  C   -0.019057
     3  C   -0.056280
     4  C   -0.114571
     5  C   -0.083389
     6  N   -0.298364
     7  C    0.080285
     8  C    0.008248
     9  C    0.001501
    10  C    0.150784
    11  C   -0.053465
    12  C   -0.006559
    13  C   -0.005705
    14  C    0.473551
    15  O   -0.502062
    16  O   -0.259090
    17  N   -0.308701
    18  C    0.116002
    19  C    0.053343
    20  C   -0.053552
    21  C    0.152651
    22  C   -0.040116
    23  C    0.329595
    24  O   -0.511368
    25  C   -0.033886
    26  N   -0.278226
    27  C    0.159511
    28  C   -0.005707
    29  C    0.002973
    30  C    0.115422
    31  C   -0.049971
    32  C   -0.025126
    33  C   -0.056334
    34  N   -0.327668
    35  C    0.087661
    36  C    0.003728
    37  C   -0.055894
    38  C    0.097752
    39  C   -0.038646
    40  C    0.332045
    41  O   -0.515489
    42  C    0.050682
    43  C    0.490850
    44  O   -0.499610
    45  O   -0.278990
    46  C    0.067618
    47  C    0.097133
    48  C   -0.092799
    49  C    0.010824
    50  C   -0.048201
    51  C   -0.031217
    52  C   -0.040207
    53  C   -0.036852
    54  C   -0.010059
    55  C   -0.063229
    56  C   -0.041137
    57  C   -0.039680
    58  C   -0.024353
    59  C   -0.017067
    60  C   -0.064237
    61  C   -0.033967
    62  C   -0.043080
    63  C   -0.053789
    64  C   -0.023731
    65  C   -0.061212
    66  C   -0.058292
    67  H    0.033386
    68  H    0.018239
    69  H    0.034931
    70  H    0.024869
    71  H    0.034880
    72  H    0.016843
    73  H    0.028185
    74  H    0.037792
    75  H    0.037175
    76  H    0.020438
    77  H    0.026053
    78  H    0.029210
    79  H    0.047726
    80  H    0.031122
    81  H    0.016934
    82  H    0.040481
    83  H    0.043174
    84  H    0.045893
    85  H    0.028868
    86  H    0.040128
    87  H    0.018278
    88  H    0.026097
    89  H    0.020419
    90  H    0.020891
    91  H    0.010099
    92  H    0.027561
    93  H    0.012312
    94  H    0.028324
    95  H    0.036058
    96  H    0.032501
    97  H    0.020368
    98  H    0.057623
    99  H    0.049874
   100  H    0.032609
   101  H    0.045053
   102  H    0.066116
   103  H    0.026152
   104  H    0.027225
   105  H    0.023420
   106  H    0.034805
   107  H    0.020015
   108  H    0.032595
   109  H    0.018703
   110  H    0.023901
   111  H    0.016586
   112  H    0.022089
   113  H    0.022282
   114  H    0.024779
   115  H    0.030477
   116  H    0.008051
   117  H    0.025865
   118  H    0.011730
   119  H    0.022725
   120  H    0.012645
   121  H    0.017545
   122  H    0.015246
   123  H    0.021313
   124  H    0.020261
   125  H    0.021458
   126  H    0.017283
   127  H    0.016446
   128  H    0.014507
   129  H    0.016236
   130  H    0.030876
   131  H    0.024497
   132  H    0.021333
   133  H    0.019526
   134  H    0.029707
   135  H    0.010002
   136  H    0.021842
   137  H    0.023903
   138  H    0.004228
   139  H    0.035086
   140  H    0.025403
 Sum of Mulliken charges =  -0.00000

 Dipole moment (field-independent basis, Debye):
    X=              0.9012    Y=              8.6615    Z=              2.9992  Tot=              9.2102
 N-N= 4.458925994463D+03 E-N= 0.000000000000D+00  KE=-9.591771810147D+03
 Leave Link  601 at Wed May  4 03:17:10 2022, MaxMem=  6710886400 cpu:               0.9 elap:               0.1
 (Enter /sw/apps/gaussian-16.0/g16/l9999.exe)
 1\1\GINC-BP1-COMPUTE128\SP\RZINDO CIS\STO-3G\C55H74Mg1N4O6\OF15641\04-
 May-2022\0\\#p ZINDO=(nstates=5)\\step_1251_chromophore_26 ZINDO\\0,1\
 Mg,0,-8.722,18.447,42.451\C,0,-5.276,17.869,42.772\C,0,-7.988,21.816,4
 1.88\C,0,-11.892,18.92,41.977\C,0,-9.182,15.005,42.993\N,0,-6.854,19.6
 33,42.146\C,0,-5.548,19.176,42.411\C,0,-4.578,20.31,42.042\C,0,-5.474,
 21.555,42.05\C,0,-6.921,20.999,42.037\C,0,-5.272,22.417,43.309\C,0,-3.
 574,20.135,40.892\C,0,-4.052,19.308,39.698\C,0,-3.567,19.57,38.236\O,0

 Normal termination of Gaussian 16 at Wed May  4 03:17:10 2022.
