 Gaussian 16, Revision A.03,
 Gaussian 16:  ES64L-G16RevA.03 25-Dec-2016

 ------------------------------
 #p blyp/Def2SVP td=(nstates=5)
 ------------------------------

 ---------------------------------------------------
 step_1501_chromophore_19 TDDFT with blyp functional
 ---------------------------------------------------
 Symbolic Z-matrix:
 Charge =  0 Multiplicity = 1

                         Standard orientation:
 ---------------------------------------------------------------------
 Center     Atomic      Atomic             Coordinates (Angstroms)
 Number     Number       Type             X           Y           Z
 ---------------------------------------------------------------------
      1         12           0       -5.800903    0.396873   -0.125899
      2          6           0       -3.610061   -2.283747   -0.545744
      3          6           0       -3.032344    2.365157    0.749069
      4          6           0       -7.908522    2.928829    0.395958
      5          6           0       -8.494083   -1.831532   -0.315582
      6          7           0       -3.602139    0.071574    0.236028
      7          6           0       -2.914342   -1.099977   -0.145546
      8          6           0       -1.372123   -0.935439    0.016546
      9          6           0       -1.228206    0.539694    0.656625
     10          6           0       -2.690190    1.080225    0.551682
     11          6           0       -0.633041    0.430225    2.169011
     12          6           0       -0.644639   -0.946160   -1.429757
     13          6           0        0.642834   -1.635443   -1.516348
     14          6           0        1.421768   -1.623166   -0.171425
     15          8           0        1.451800   -2.410490    0.723875
     16          8           0        2.162278   -0.475797   -0.083565
     17          7           0       -5.527928    2.370670    0.295280
     18          6           0       -4.348833    3.026048    0.571369
     19          6           0       -4.618613    4.416734    0.637683
     20          6           0       -6.040972    4.576567    0.494948
     21          6           0       -6.559265    3.273880    0.406157
     22          6           0       -3.515531    5.482340    0.841415
     23          6           0       -6.797665    5.914809    0.562942
     24          8           0       -8.046483    5.929030    0.542525
     25          6           0       -6.018409    7.178258    0.620370
     26          7           0       -7.854890    0.484948    0.140734
     27          6           0       -8.516517    1.660834    0.274063
     28          6           0      -10.052536    1.547570    0.252938
     29          6           0      -10.202268   -0.006864   -0.033187
     30          6           0       -8.746615   -0.516145   -0.022188
     31          6           0      -10.837154    1.899847    1.540039
     32          6           0      -10.822317   -0.223891   -1.461387
     33          6           0      -10.031953    0.338071   -2.708476
     34          7           0       -6.083379   -1.704147   -0.408713
     35          6           0       -7.224883   -2.477441   -0.472109
     36          6           0       -6.886412   -3.813344   -0.719520
     37          6           0       -5.484500   -3.786861   -0.772256
     38          6           0       -5.009180   -2.507616   -0.545430
     39          6           0       -7.831493   -5.015495   -0.821822
     40          6           0       -4.372447   -4.628667   -0.862623
     41          8           0       -4.319725   -5.825203   -1.066463
     42          6           0       -3.053813   -3.717302   -0.771976
     43          6           0       -2.161394   -4.182437    0.361532
     44          8           0       -2.372555   -3.854747    1.573162
     45          8           0       -1.106234   -4.871272   -0.165592
     46          6           0       -0.157697   -5.427631    0.771575
     47          6           0        3.190536   -0.344005    0.970144
     48          6           0        4.561436   -0.495864    0.361727
     49          6           0        5.807066   -0.540081    1.002194
     50          6           0        6.043537   -0.387076    2.460953
     51          6           0        7.067270   -0.740727    0.167134
     52          6           0        7.921560    0.476845   -0.086526
     53          6           0        7.989394    0.874234   -1.522625
     54          6           0        9.156134    1.954207   -1.690925
     55          6           0        8.537141    3.186345   -2.330604
     56          6           0       10.382808    1.336439   -2.549866
     57          6           0       11.611880    2.360019   -2.502536
     58          6           0       13.000839    1.662026   -2.619387
     59          6           0       13.823005    1.536346   -1.333284
     60          6           0       15.294260    1.781630   -1.509335
     61          6           0       13.614596    0.147590   -0.619408
     62          6           0       13.446452    0.126153    0.972352
     63          6           0       12.035975   -0.251253    1.393215
     64          6           0       11.990111   -1.415595    2.407203
     65          6           0       10.609556   -2.074042    2.500458
     66          6           0       12.408065   -0.943914    3.816798
     67          1           0       -2.173710    3.036456    0.812993
     68          1           0       -8.736386    3.597244    0.640177
     69          1           0       -9.191329   -2.642120   -0.539160
     70          1           0       -1.033304   -1.697593    0.718799
     71          1           0       -0.526341    1.130545    0.067963
     72          1           0        0.176128   -0.298429    2.225270
     73          1           0       -1.496608    0.306501    2.822597
     74          1           0       -0.246054    1.431995    2.353945
     75          1           0       -0.620056    0.048368   -1.874465
     76          1           0       -1.339722   -1.498305   -2.061915
     77          1           0        1.367803   -1.094603   -2.124662
     78          1           0        0.551638   -2.700633   -1.730560
     79          1           0       -3.499009    6.344702    0.174041
     80          1           0       -2.549276    4.985599    0.752401
     81          1           0       -3.513818    5.898390    1.849151
     82          1           0       -5.463629    7.409306    1.530156
     83          1           0       -6.666725    8.004896    0.330232
     84          1           0       -5.448797    7.224348   -0.306952
     85          1           0      -10.318885    2.102685   -0.647100
     86          1           0      -10.752147   -0.494334    0.772129
     87          1           0      -11.776640    1.362559    1.667204
     88          1           0      -11.118502    2.890784    1.182060
     89          1           0      -10.301323    1.973290    2.485707
     90          1           0      -11.717885    0.393847   -1.526310
     91          1           0      -11.055256   -1.236790   -1.789790
     92          1           0       -9.065870    0.749236   -2.416014
     93          1           0      -10.422350    1.227395   -3.203792
     94          1           0       -9.805754   -0.481317   -3.390888
     95          1           0       -7.462339   -5.755285   -1.532471
     96          1           0       -8.813372   -4.691963   -1.165095
     97          1           0       -7.922929   -5.315877    0.222296
     98          1           0       -2.467707   -3.834361   -1.683764
     99          1           0        0.827989   -4.962517    0.805923
    100          1           0        0.061718   -6.448699    0.460616
    101          1           0       -0.461963   -5.473328    1.817057
    102          1           0        3.197355   -1.107710    1.747714
    103          1           0        3.002910    0.653010    1.368039
    104          1           0        4.422067   -0.472411   -0.719451
    105          1           0        6.292511   -1.294762    3.011574
    106          1           0        5.171909   -0.050876    3.021145
    107          1           0        6.862706    0.262737    2.768007
    108          1           0        6.672304   -1.090134   -0.787205
    109          1           0        7.673867   -1.526633    0.616963
    110          1           0        8.888696    0.227138    0.348211
    111          1           0        7.436623    1.285714    0.459511
    112          1           0        7.020071    1.226890   -1.874568
    113          1           0        8.185417    0.050927   -2.210236
    114          1           0        9.525761    2.300367   -0.726517
    115          1           0        9.257103    3.994203   -2.466840
    116          1           0        7.696895    3.486656   -1.704109
    117          1           0        8.111157    2.975133   -3.311801
    118          1           0       10.078758    1.301289   -3.596392
    119          1           0       10.590861    0.365321   -2.100318
    120          1           0       11.520473    2.945575   -1.587393
    121          1           0       11.458966    2.948440   -3.407496
    122          1           0       13.448297    2.339034   -3.346856
    123          1           0       12.986802    0.716840   -3.162834
    124          1           0       13.549566    2.255034   -0.561581
    125          1           0       15.720486    0.780664   -1.570179
    126          1           0       15.797749    2.329327   -0.712152
    127          1           0       15.471261    2.363367   -2.413600
    128          1           0       14.440743   -0.544604   -0.785539
    129          1           0       12.816883   -0.449081   -1.062790
    130          1           0       13.764162    1.059104    1.438146
    131          1           0       14.154754   -0.550041    1.451395
    132          1           0       11.370555   -0.377774    0.539014
    133          1           0       11.601252    0.595598    1.924221
    134          1           0       12.688010   -2.203546    2.123051
    135          1           0       10.233470   -1.995653    3.520907
    136          1           0       10.681411   -3.112214    2.174850
    137          1           0       10.010494   -1.493557    1.799405
    138          1           0       13.036160   -1.708078    4.275295
    139          1           0       11.617712   -0.669889    4.516078
    140          1           0       13.033538   -0.058583    3.705111
 ---------------------------------------------------------------------

 SCF Done:  E(RB-LYP) =  -3007.36490562     A.U. after   21 cycles

 Excitation energies and oscillator strengths:

 Excited State   1:      Singlet-A      1.7017 eV  728.61 nm  f=0.0050  <S**2>=0.000
     244 -> 247        0.67082
     245 -> 247        0.21335
 This state for optimization and/or second-order correction.
 Total Energy, E(TD-HF/TD-DFT) =  -3007.30237099
 Copying the excited state density for this state as the 1-particle RhoCI density.

 Excited State   2:      Singlet-A      1.8050 eV  686.88 nm  f=0.1426  <S**2>=0.000
     243 -> 247        0.54120
     245 -> 248        0.10316
     246 -> 247       -0.44404
     246 <- 247        0.10084

 Excited State   3:      Singlet-A      1.8351 eV  675.63 nm  f=0.1914  <S**2>=0.000
     243 -> 247        0.44706
     245 -> 248       -0.13209
     246 -> 247        0.53207
     246 <- 247       -0.12499

 Excited State   4:      Singlet-A      1.9901 eV  623.02 nm  f=0.0953  <S**2>=0.000
     240 -> 247        0.11244
     244 -> 247       -0.20795
     245 -> 247        0.61948
     246 -> 248        0.19078

 Excited State   5:      Singlet-A      2.1825 eV  568.07 nm  f=0.0000  <S**2>=0.000
     242 -> 247        0.70623

 The electronic state is 1-A.
 Alpha  occ. eigenvalues --  -46.26434 -18.82856 -18.82142 -18.77612 -18.75923
 Alpha  occ. eigenvalues --  -18.75376 -18.74866 -14.03185 -14.03181 -14.00837
 Alpha  occ. eigenvalues --  -13.99779 -10.04365 -10.03729  -9.99960  -9.98502
 Alpha  occ. eigenvalues --   -9.98292  -9.97208  -9.96270  -9.96169  -9.96155
 Alpha  occ. eigenvalues --   -9.96115  -9.95797  -9.95209  -9.94633  -9.94290
 Alpha  occ. eigenvalues --   -9.94208  -9.93937  -9.93925  -9.93906  -9.93887
 Alpha  occ. eigenvalues --   -9.93885  -9.93613  -9.93604  -9.93502  -9.93491
 Alpha  occ. eigenvalues --   -9.93199  -9.92921  -9.92908  -9.92799  -9.92673
 Alpha  occ. eigenvalues --   -9.92659  -9.92544  -9.92396  -9.92346  -9.92234
 Alpha  occ. eigenvalues --   -9.92161  -9.92008  -9.92001  -9.91999  -9.91933
 Alpha  occ. eigenvalues --   -9.91924  -9.91765  -9.91714  -9.91707  -9.91480
 Alpha  occ. eigenvalues --   -9.91418  -9.91406  -9.91363  -9.91358  -9.91233
 Alpha  occ. eigenvalues --   -9.91089  -9.90932  -9.90863  -9.90761  -9.90431
 Alpha  occ. eigenvalues --   -9.90023  -2.91117  -1.71540  -1.71014  -1.70815
 Alpha  occ. eigenvalues --   -0.99142  -0.97035  -0.90979  -0.90862  -0.90015
 Alpha  occ. eigenvalues --   -0.87629  -0.86605  -0.85711  -0.85286  -0.83368
 Alpha  occ. eigenvalues --   -0.74640  -0.73885  -0.73128  -0.72961  -0.71960
 Alpha  occ. eigenvalues --   -0.71855  -0.71531  -0.71159  -0.70332  -0.69789
 Alpha  occ. eigenvalues --   -0.69465  -0.68834  -0.68015  -0.67148  -0.67013
 Alpha  occ. eigenvalues --   -0.66566  -0.65782  -0.65633  -0.65327  -0.64677
 Alpha  occ. eigenvalues --   -0.64255  -0.62519  -0.61790  -0.61455  -0.60622
 Alpha  occ. eigenvalues --   -0.60287  -0.60051  -0.59742  -0.59341  -0.59094
 Alpha  occ. eigenvalues --   -0.58419  -0.57886  -0.56390  -0.55568  -0.54900
 Alpha  occ. eigenvalues --   -0.53830  -0.53698  -0.52448  -0.52251  -0.51342
 Alpha  occ. eigenvalues --   -0.51241  -0.50822  -0.50594  -0.50111  -0.49716
 Alpha  occ. eigenvalues --   -0.49539  -0.49325  -0.49135  -0.48161  -0.47411
 Alpha  occ. eigenvalues --   -0.46852  -0.45698  -0.45484  -0.44759  -0.43919
 Alpha  occ. eigenvalues --   -0.43137  -0.43039  -0.42776  -0.42457  -0.42340
 Alpha  occ. eigenvalues --   -0.42282  -0.41916  -0.41661  -0.41497  -0.41224
 Alpha  occ. eigenvalues --   -0.40915  -0.40495  -0.40315  -0.40180  -0.40018
 Alpha  occ. eigenvalues --   -0.39877  -0.39686  -0.39420  -0.39296  -0.39233
 Alpha  occ. eigenvalues --   -0.38929  -0.38628  -0.38453  -0.38200  -0.37833
 Alpha  occ. eigenvalues --   -0.37703  -0.37639  -0.37457  -0.37267  -0.37062
 Alpha  occ. eigenvalues --   -0.36988  -0.36910  -0.36631  -0.36509  -0.36391
 Alpha  occ. eigenvalues --   -0.36201  -0.35963  -0.35819  -0.35739  -0.35514
 Alpha  occ. eigenvalues --   -0.35140  -0.35002  -0.34793  -0.34758  -0.34576
 Alpha  occ. eigenvalues --   -0.34418  -0.34161  -0.34092  -0.33894  -0.33818
 Alpha  occ. eigenvalues --   -0.33550  -0.33450  -0.33322  -0.33083  -0.32946
 Alpha  occ. eigenvalues --   -0.32905  -0.32772  -0.32582  -0.32480  -0.32316
 Alpha  occ. eigenvalues --   -0.32104  -0.31772  -0.31526  -0.31334  -0.31257
 Alpha  occ. eigenvalues --   -0.31176  -0.31038  -0.30794  -0.30646  -0.30501
 Alpha  occ. eigenvalues --   -0.30329  -0.30172  -0.29982  -0.29871  -0.29705
 Alpha  occ. eigenvalues --   -0.29534  -0.29480  -0.29397  -0.29241  -0.28980
 Alpha  occ. eigenvalues --   -0.28897  -0.28625  -0.27828  -0.27692  -0.27456
 Alpha  occ. eigenvalues --   -0.27357  -0.27068  -0.26946  -0.26698  -0.26582
 Alpha  occ. eigenvalues --   -0.26084  -0.25882  -0.25866  -0.25600  -0.25456
 Alpha  occ. eigenvalues --   -0.25301  -0.25143  -0.24232  -0.23588  -0.23582
 Alpha  occ. eigenvalues --   -0.23256  -0.22533  -0.22048  -0.20761  -0.20308
 Alpha  occ. eigenvalues --   -0.19973  -0.19929  -0.18499  -0.18113  -0.17197
 Alpha  occ. eigenvalues --   -0.16087
 Alpha virt. eigenvalues --   -0.11909  -0.06566  -0.05576  -0.04129  -0.03233
 Alpha virt. eigenvalues --   -0.02915  -0.02770  -0.02005  -0.01177   0.00323
 Alpha virt. eigenvalues --    0.01714   0.01845   0.02100   0.02694   0.02953

 Mulliken charges:
               1
     1  Mg   0.693316
     2  C    0.038581
     3  C   -0.038813
     4  C   -0.039099
     5  C   -0.042590
     6  N   -0.242492
     7  C   -0.029432
     8  C   -0.038597
     9  C   -0.011704
    10  C    0.037824
    11  C    0.100376
    12  C    0.103169
    13  C    0.208760
    14  C    0.025017
    15  O   -0.159395
    16  O   -0.294567
    17  N   -0.307784
    18  C    0.113689
    19  C   -0.130563
    20  C    0.043545
    21  C    0.162955
    22  C    0.167878
    23  C   -0.074825
    24  O   -0.181904
    25  C    0.160048
    26  N   -0.216323
    27  C   -0.066450
    28  C    0.016305
    29  C    0.060947
    30  C    0.086744
    31  C    0.131198
    32  C    0.072344
    33  C    0.024078
    34  N   -0.251429
    35  C    0.004707
    36  C   -0.161372
    37  C    0.147564
    38  C    0.046107
    39  C    0.183108
    40  C   -0.093222
    41  O   -0.127360
    42  C    0.022135
    43  C    0.149930
    44  O   -0.233303
    45  O   -0.244393
    46  C    0.205447
    47  C    0.296007
    48  C   -0.143369
    49  C   -0.115887
    50  C    0.128537
    51  C    0.142633
    52  C    0.078942
    53  C    0.098826
    54  C   -0.078999
    55  C    0.086139
    56  C    0.075072
    57  C    0.050216
    58  C    0.128451
    59  C   -0.022061
    60  C    0.116422
    61  C    0.078117
    62  C    0.077020
    63  C    0.082617
    64  C   -0.137205
    65  C    0.136431
    66  C    0.098005
    67  H   -0.061818
    68  H   -0.050561
    69  H   -0.079755
    70  H    0.028786
    71  H   -0.021619
    72  H    0.029664
    73  H    0.008263
    74  H   -0.018631
    75  H   -0.016188
    76  H   -0.023046
    77  H   -0.007734
    78  H    0.002130
    79  H   -0.004614
    80  H   -0.028434
    81  H   -0.004929
    82  H    0.028687
    83  H   -0.027077
    84  H   -0.003247
    85  H   -0.010740
    86  H   -0.025084
    87  H   -0.002151
    88  H   -0.000536
    89  H    0.012205
    90  H   -0.020564
    91  H   -0.010490
    92  H   -0.014440
    93  H   -0.005003
    94  H   -0.000951
    95  H    0.018836
    96  H   -0.014844
    97  H    0.018219
    98  H   -0.006775
    99  H    0.018063
   100  H    0.000481
   101  H    0.016152
   102  H    0.022599
   103  H    0.009718
   104  H   -0.023371
   105  H   -0.005239
   106  H   -0.025313
   107  H   -0.005362
   108  H   -0.040595
   109  H   -0.021697
   110  H   -0.018104
   111  H   -0.026491
   112  H   -0.039488
   113  H   -0.041993
   114  H   -0.028987
   115  H   -0.017056
   116  H   -0.016080
   117  H   -0.023005
   118  H   -0.026551
   119  H   -0.014049
   120  H   -0.018048
   121  H   -0.022181
   122  H   -0.049872
   123  H   -0.032652
   124  H   -0.041180
   125  H   -0.023601
   126  H   -0.016247
   127  H   -0.023890
   128  H   -0.043129
   129  H   -0.039317
   130  H   -0.033568
   131  H   -0.036282
   132  H   -0.014966
   133  H   -0.039108
   134  H   -0.034019
   135  H   -0.017138
   136  H   -0.012359
   137  H   -0.024222
   138  H   -0.016369
   139  H   -0.011621
   140  H   -0.027500
 Sum of Mulliken charges =  -0.00000

 Dipole moment (field-independent basis, Debye):
    X=              4.0255    Y=              3.7147    Z=             -1.3401  Tot=              5.6391
 Quadrupole moment (field-independent basis, Debye-Ang):
   XX=           -372.0346   YY=           -430.8050   ZZ=           -402.2041
   XY=              3.9744   XZ=             12.5998   YZ=              0.3879

 Normal termination of Gaussian 16 at Wed May  4 08:29:11 2022.
