 Gaussian 16, Revision A.03,
 Gaussian 16:  ES64L-G16RevA.03 25-Dec-2016

 -----------------------------------
 #p cam-b3lyp/Def2SVP td=(nstates=5)
 -----------------------------------

 --------------------------------------------------------
 step_1501_chromophore_19 TDDFT with cam-b3lyp functional
 --------------------------------------------------------
 Symbolic Z-matrix:
 Charge =  0 Multiplicity = 1

                         Standard orientation:
 ---------------------------------------------------------------------
 Center     Atomic      Atomic             Coordinates (Angstroms)
 Number     Number       Type             X           Y           Z
 ---------------------------------------------------------------------
      1         12           0       -5.800903    0.396873   -0.125899
      2          6           0       -3.610061   -2.283747   -0.545744
      3          6           0       -3.032344    2.365157    0.749069
      4          6           0       -7.908522    2.928829    0.395958
      5          6           0       -8.494083   -1.831532   -0.315582
      6          7           0       -3.602139    0.071574    0.236028
      7          6           0       -2.914342   -1.099977   -0.145546
      8          6           0       -1.372123   -0.935439    0.016546
      9          6           0       -1.228206    0.539694    0.656625
     10          6           0       -2.690190    1.080225    0.551682
     11          6           0       -0.633041    0.430225    2.169011
     12          6           0       -0.644639   -0.946160   -1.429757
     13          6           0        0.642834   -1.635443   -1.516348
     14          6           0        1.421768   -1.623166   -0.171425
     15          8           0        1.451800   -2.410490    0.723875
     16          8           0        2.162278   -0.475797   -0.083565
     17          7           0       -5.527928    2.370670    0.295280
     18          6           0       -4.348833    3.026048    0.571369
     19          6           0       -4.618613    4.416734    0.637683
     20          6           0       -6.040972    4.576567    0.494948
     21          6           0       -6.559265    3.273880    0.406157
     22          6           0       -3.515531    5.482340    0.841415
     23          6           0       -6.797665    5.914809    0.562942
     24          8           0       -8.046483    5.929030    0.542525
     25          6           0       -6.018409    7.178258    0.620370
     26          7           0       -7.854890    0.484948    0.140734
     27          6           0       -8.516517    1.660834    0.274063
     28          6           0      -10.052536    1.547570    0.252938
     29          6           0      -10.202268   -0.006864   -0.033187
     30          6           0       -8.746615   -0.516145   -0.022188
     31          6           0      -10.837154    1.899847    1.540039
     32          6           0      -10.822317   -0.223891   -1.461387
     33          6           0      -10.031953    0.338071   -2.708476
     34          7           0       -6.083379   -1.704147   -0.408713
     35          6           0       -7.224883   -2.477441   -0.472109
     36          6           0       -6.886412   -3.813344   -0.719520
     37          6           0       -5.484500   -3.786861   -0.772256
     38          6           0       -5.009180   -2.507616   -0.545430
     39          6           0       -7.831493   -5.015495   -0.821822
     40          6           0       -4.372447   -4.628667   -0.862623
     41          8           0       -4.319725   -5.825203   -1.066463
     42          6           0       -3.053813   -3.717302   -0.771976
     43          6           0       -2.161394   -4.182437    0.361532
     44          8           0       -2.372555   -3.854747    1.573162
     45          8           0       -1.106234   -4.871272   -0.165592
     46          6           0       -0.157697   -5.427631    0.771575
     47          6           0        3.190536   -0.344005    0.970144
     48          6           0        4.561436   -0.495864    0.361727
     49          6           0        5.807066   -0.540081    1.002194
     50          6           0        6.043537   -0.387076    2.460953
     51          6           0        7.067270   -0.740727    0.167134
     52          6           0        7.921560    0.476845   -0.086526
     53          6           0        7.989394    0.874234   -1.522625
     54          6           0        9.156134    1.954207   -1.690925
     55          6           0        8.537141    3.186345   -2.330604
     56          6           0       10.382808    1.336439   -2.549866
     57          6           0       11.611880    2.360019   -2.502536
     58          6           0       13.000839    1.662026   -2.619387
     59          6           0       13.823005    1.536346   -1.333284
     60          6           0       15.294260    1.781630   -1.509335
     61          6           0       13.614596    0.147590   -0.619408
     62          6           0       13.446452    0.126153    0.972352
     63          6           0       12.035975   -0.251253    1.393215
     64          6           0       11.990111   -1.415595    2.407203
     65          6           0       10.609556   -2.074042    2.500458
     66          6           0       12.408065   -0.943914    3.816798
     67          1           0       -2.173710    3.036456    0.812993
     68          1           0       -8.736386    3.597244    0.640177
     69          1           0       -9.191329   -2.642120   -0.539160
     70          1           0       -1.033304   -1.697593    0.718799
     71          1           0       -0.526341    1.130545    0.067963
     72          1           0        0.176128   -0.298429    2.225270
     73          1           0       -1.496608    0.306501    2.822597
     74          1           0       -0.246054    1.431995    2.353945
     75          1           0       -0.620056    0.048368   -1.874465
     76          1           0       -1.339722   -1.498305   -2.061915
     77          1           0        1.367803   -1.094603   -2.124662
     78          1           0        0.551638   -2.700633   -1.730560
     79          1           0       -3.499009    6.344702    0.174041
     80          1           0       -2.549276    4.985599    0.752401
     81          1           0       -3.513818    5.898390    1.849151
     82          1           0       -5.463629    7.409306    1.530156
     83          1           0       -6.666725    8.004896    0.330232
     84          1           0       -5.448797    7.224348   -0.306952
     85          1           0      -10.318885    2.102685   -0.647100
     86          1           0      -10.752147   -0.494334    0.772129
     87          1           0      -11.776640    1.362559    1.667204
     88          1           0      -11.118502    2.890784    1.182060
     89          1           0      -10.301323    1.973290    2.485707
     90          1           0      -11.717885    0.393847   -1.526310
     91          1           0      -11.055256   -1.236790   -1.789790
     92          1           0       -9.065870    0.749236   -2.416014
     93          1           0      -10.422350    1.227395   -3.203792
     94          1           0       -9.805754   -0.481317   -3.390888
     95          1           0       -7.462339   -5.755285   -1.532471
     96          1           0       -8.813372   -4.691963   -1.165095
     97          1           0       -7.922929   -5.315877    0.222296
     98          1           0       -2.467707   -3.834361   -1.683764
     99          1           0        0.827989   -4.962517    0.805923
    100          1           0        0.061718   -6.448699    0.460616
    101          1           0       -0.461963   -5.473328    1.817057
    102          1           0        3.197355   -1.107710    1.747714
    103          1           0        3.002910    0.653010    1.368039
    104          1           0        4.422067   -0.472411   -0.719451
    105          1           0        6.292511   -1.294762    3.011574
    106          1           0        5.171909   -0.050876    3.021145
    107          1           0        6.862706    0.262737    2.768007
    108          1           0        6.672304   -1.090134   -0.787205
    109          1           0        7.673867   -1.526633    0.616963
    110          1           0        8.888696    0.227138    0.348211
    111          1           0        7.436623    1.285714    0.459511
    112          1           0        7.020071    1.226890   -1.874568
    113          1           0        8.185417    0.050927   -2.210236
    114          1           0        9.525761    2.300367   -0.726517
    115          1           0        9.257103    3.994203   -2.466840
    116          1           0        7.696895    3.486656   -1.704109
    117          1           0        8.111157    2.975133   -3.311801
    118          1           0       10.078758    1.301289   -3.596392
    119          1           0       10.590861    0.365321   -2.100318
    120          1           0       11.520473    2.945575   -1.587393
    121          1           0       11.458966    2.948440   -3.407496
    122          1           0       13.448297    2.339034   -3.346856
    123          1           0       12.986802    0.716840   -3.162834
    124          1           0       13.549566    2.255034   -0.561581
    125          1           0       15.720486    0.780664   -1.570179
    126          1           0       15.797749    2.329327   -0.712152
    127          1           0       15.471261    2.363367   -2.413600
    128          1           0       14.440743   -0.544604   -0.785539
    129          1           0       12.816883   -0.449081   -1.062790
    130          1           0       13.764162    1.059104    1.438146
    131          1           0       14.154754   -0.550041    1.451395
    132          1           0       11.370555   -0.377774    0.539014
    133          1           0       11.601252    0.595598    1.924221
    134          1           0       12.688010   -2.203546    2.123051
    135          1           0       10.233470   -1.995653    3.520907
    136          1           0       10.681411   -3.112214    2.174850
    137          1           0       10.010494   -1.493557    1.799405
    138          1           0       13.036160   -1.708078    4.275295
    139          1           0       11.617712   -0.669889    4.516078
    140          1           0       13.033538   -0.058583    3.705111
 ---------------------------------------------------------------------

 SCF Done:  E(RCAM-B3LYP) =  -3007.15377020     A.U. after   17 cycles

 Excitation energies and oscillator strengths:

 Excited State   1:      Singlet-A      1.6882 eV  734.43 nm  f=0.4127  <S**2>=0.000
     245 -> 248        0.16420
     246 -> 247        0.68844
     245 <- 248        0.10377
 This state for optimization and/or second-order correction.
 Total Energy, E(TD-HF/TD-DFT) =  -3007.09173074
 Copying the excited state density for this state as the 1-particle RhoCI density.

 Excited State   2:      Singlet-A      2.1386 eV  579.75 nm  f=0.1833  <S**2>=0.000
     245 -> 247        0.66475
     246 -> 248       -0.21638

 Excited State   3:      Singlet-A      3.0989 eV  400.09 nm  f=0.0026  <S**2>=0.000
     242 -> 247       -0.12661
     244 -> 247        0.68115

 Excited State   4:      Singlet-A      3.2413 eV  382.52 nm  f=0.0222  <S**2>=0.000
     241 -> 247        0.15221
     242 -> 247        0.65481
     246 -> 248        0.10225

 Excited State   5:      Singlet-A      3.2849 eV  377.44 nm  f=0.0051  <S**2>=0.000
     241 -> 247        0.61031
     241 -> 249        0.22078
     241 -> 250       -0.15403
     242 -> 247       -0.17021

 The electronic state is 1-A.
 Alpha  occ. eigenvalues --  -46.87924 -19.25856 -19.24956 -19.20565 -19.19009
 Alpha  occ. eigenvalues --  -19.18669 -19.17951 -14.42178 -14.42002 -14.39274
 Alpha  occ. eigenvalues --  -14.38095 -10.39557 -10.39358 -10.35264 -10.33777
 Alpha  occ. eigenvalues --  -10.32323 -10.31912 -10.30657 -10.30564 -10.30485
 Alpha  occ. eigenvalues --  -10.30219 -10.30134 -10.29513 -10.28805 -10.28391
 Alpha  occ. eigenvalues --  -10.28357 -10.28214 -10.28106 -10.28088 -10.27971
 Alpha  occ. eigenvalues --  -10.27922 -10.27919 -10.27892 -10.27668 -10.27564
 Alpha  occ. eigenvalues --  -10.27519 -10.26851 -10.26814 -10.26712 -10.26659
 Alpha  occ. eigenvalues --  -10.26592 -10.26438 -10.26358 -10.26183 -10.26150
 Alpha  occ. eigenvalues --  -10.26098 -10.26011 -10.25957 -10.25942 -10.25656
 Alpha  occ. eigenvalues --  -10.25602 -10.25480 -10.25467 -10.25333 -10.25153
 Alpha  occ. eigenvalues --  -10.25114 -10.25109 -10.24996 -10.24972 -10.24911
 Alpha  occ. eigenvalues --  -10.24728 -10.24523 -10.24444 -10.24354 -10.23984
 Alpha  occ. eigenvalues --  -10.23975  -3.16513  -1.91413  -1.90984  -1.90804
 Alpha  occ. eigenvalues --   -1.17631  -1.15498  -1.09341  -1.08673  -1.08428
 Alpha  occ. eigenvalues --   -1.05599  -1.04363  -1.03322  -1.02848  -1.00864
 Alpha  occ. eigenvalues --   -0.91736  -0.90762  -0.89910  -0.89730  -0.88638
 Alpha  occ. eigenvalues --   -0.88500  -0.88238  -0.87757  -0.86878  -0.86365
 Alpha  occ. eigenvalues --   -0.86048  -0.85105  -0.84288  -0.83316  -0.83138
 Alpha  occ. eigenvalues --   -0.82640  -0.81913  -0.81589  -0.81233  -0.80489
 Alpha  occ. eigenvalues --   -0.80076  -0.78231  -0.77354  -0.76930  -0.75981
 Alpha  occ. eigenvalues --   -0.75642  -0.75338  -0.75142  -0.74601  -0.74325
 Alpha  occ. eigenvalues --   -0.73467  -0.72902  -0.71263  -0.70357  -0.69527
 Alpha  occ. eigenvalues --   -0.68427  -0.68315  -0.66845  -0.66677  -0.65511
 Alpha  occ. eigenvalues --   -0.65355  -0.64844  -0.64705  -0.64064  -0.63658
 Alpha  occ. eigenvalues --   -0.63422  -0.63240  -0.63002  -0.61867  -0.60959
 Alpha  occ. eigenvalues --   -0.60489  -0.59294  -0.59002  -0.58086  -0.57320
 Alpha  occ. eigenvalues --   -0.56739  -0.56381  -0.56095  -0.55730  -0.55614
 Alpha  occ. eigenvalues --   -0.55257  -0.54681  -0.54552  -0.54366  -0.54318
 Alpha  occ. eigenvalues --   -0.53674  -0.53596  -0.53068  -0.52967  -0.52911
 Alpha  occ. eigenvalues --   -0.52485  -0.52353  -0.52217  -0.51937  -0.51694
 Alpha  occ. eigenvalues --   -0.51402  -0.51107  -0.50980  -0.50652  -0.50339
 Alpha  occ. eigenvalues --   -0.50063  -0.49958  -0.49764  -0.49475  -0.49467
 Alpha  occ. eigenvalues --   -0.49248  -0.49053  -0.48854  -0.48723  -0.48627
 Alpha  occ. eigenvalues --   -0.48521  -0.48490  -0.48102  -0.47984  -0.47747
 Alpha  occ. eigenvalues --   -0.47410  -0.47128  -0.46920  -0.46650  -0.46435
 Alpha  occ. eigenvalues --   -0.46345  -0.46260  -0.45896  -0.45642  -0.45580
 Alpha  occ. eigenvalues --   -0.45327  -0.45158  -0.44905  -0.44841  -0.44682
 Alpha  occ. eigenvalues --   -0.44476  -0.44437  -0.44420  -0.44084  -0.43930
 Alpha  occ. eigenvalues --   -0.43634  -0.43433  -0.43159  -0.42882  -0.42742
 Alpha  occ. eigenvalues --   -0.42556  -0.42553  -0.42317  -0.42121  -0.41972
 Alpha  occ. eigenvalues --   -0.41712  -0.41604  -0.41508  -0.41391  -0.41301
 Alpha  occ. eigenvalues --   -0.40896  -0.40817  -0.40718  -0.40288  -0.40245
 Alpha  occ. eigenvalues --   -0.39988  -0.39633  -0.38817  -0.38708  -0.38299
 Alpha  occ. eigenvalues --   -0.38149  -0.38056  -0.37733  -0.37721  -0.37317
 Alpha  occ. eigenvalues --   -0.37120  -0.36688  -0.36672  -0.36465  -0.36210
 Alpha  occ. eigenvalues --   -0.36146  -0.35732  -0.35587  -0.34261  -0.34231
 Alpha  occ. eigenvalues --   -0.33851  -0.33258  -0.32800  -0.31394  -0.30910
 Alpha  occ. eigenvalues --   -0.29998  -0.29640  -0.29353  -0.29239  -0.23875
 Alpha  occ. eigenvalues --   -0.21572
 Alpha virt. eigenvalues --   -0.09336  -0.01076   0.00953   0.02866   0.02999
 Alpha virt. eigenvalues --    0.04083   0.04729   0.05090   0.05991   0.07272
 Alpha virt. eigenvalues --    0.07991   0.08148   0.08780   0.09209   0.09393

 Mulliken charges:
               1
     1  Mg   0.825548
     2  C    0.012375
     3  C   -0.049677
     4  C   -0.046253
     5  C   -0.044206
     6  N   -0.311004
     7  C    0.017250
     8  C   -0.096449
     9  C   -0.054041
    10  C    0.051261
    11  C    0.052328
    12  C    0.052759
    13  C    0.140324
    14  C    0.098946
    15  O   -0.200655
    16  O   -0.358387
    17  N   -0.396874
    18  C    0.122374
    19  C   -0.145545
    20  C   -0.021041
    21  C    0.177137
    22  C    0.114247
    23  C    0.010088
    24  O   -0.222747
    25  C    0.067734
    26  N   -0.286522
    27  C   -0.044674
    28  C   -0.041592
    29  C    0.007636
    30  C    0.097496
    31  C    0.070206
    32  C    0.017103
    33  C   -0.035546
    34  N   -0.341245
    35  C    0.012257
    36  C   -0.159612
    37  C    0.061475
    38  C    0.083685
    39  C    0.136662
    40  C    0.001208
    41  O   -0.167882
    42  C   -0.045304
    43  C    0.235210
    44  O   -0.270775
    45  O   -0.307624
    46  C    0.167045
    47  C    0.263765
    48  C   -0.159658
    49  C   -0.140676
    50  C    0.066171
    51  C    0.085956
    52  C    0.028589
    53  C    0.044707
    54  C   -0.134733
    55  C    0.031913
    56  C    0.031429
    57  C   -0.001699
    58  C    0.070273
    59  C   -0.083675
    60  C    0.059714
    61  C    0.025441
    62  C    0.023699
    63  C    0.029881
    64  C   -0.191450
    65  C    0.083781
    66  C    0.037603
    67  H   -0.030017
    68  H   -0.009475
    69  H   -0.042731
    70  H    0.061503
    71  H    0.011788
    72  H    0.047824
    73  H    0.033384
    74  H    0.004212
    75  H    0.015580
    76  H    0.008339
    77  H    0.027191
    78  H    0.032948
    79  H    0.021235
    80  H   -0.000830
    81  H    0.021750
    82  H    0.057300
    83  H    0.010671
    84  H    0.026505
    85  H    0.023707
    86  H    0.010861
    87  H    0.023013
    88  H    0.022570
    89  H    0.038146
    90  H    0.008136
    91  H    0.017298
    92  H    0.006083
    93  H    0.019012
    94  H    0.023431
    95  H    0.045775
    96  H    0.008332
    97  H    0.044837
    98  H    0.034799
    99  H    0.039724
   100  H    0.023480
   101  H    0.043125
   102  H    0.052281
   103  H    0.035824
   104  H    0.008578
   105  H    0.020843
   106  H   -0.000009
   107  H    0.019077
   108  H   -0.008818
   109  H    0.006430
   110  H    0.002753
   111  H    0.001208
   112  H   -0.009789
   113  H   -0.011765
   114  H    0.000543
   115  H    0.006967
   116  H    0.007836
   117  H    0.000043
   118  H    0.000224
   119  H    0.007962
   120  H    0.007740
   121  H    0.005417
   122  H   -0.018199
   123  H   -0.003568
   124  H   -0.008993
   125  H   -0.000573
   126  H    0.008393
   127  H    0.001360
   128  H   -0.013064
   129  H   -0.011303
   130  H   -0.006316
   131  H   -0.006676
   132  H    0.006722
   133  H   -0.010350
   134  H   -0.002267
   135  H    0.006428
   136  H    0.011979
   137  H   -0.008996
   138  H    0.008850
   139  H    0.012264
   140  H   -0.004278
 Sum of Mulliken charges =  -0.00000

 Dipole moment (field-independent basis, Debye):
    X=              4.0477    Y=              4.1927    Z=             -1.4364  Tot=              6.0022
 Quadrupole moment (field-independent basis, Debye-Ang):
   XX=           -370.6541   YY=           -426.6661   ZZ=           -401.8641
   XY=              1.8546   XZ=             13.3697   YZ=              0.7878

 Normal termination of Gaussian 16 at Wed May  4 07:31:25 2022.
