 Gaussian 16, Revision A.03,
 Gaussian 16:  ES64L-G16RevA.03 25-Dec-2016

 ---------------------------------
 #p PBE1PBE/Def2SVP td=(nstates=5)
 ---------------------------------

 ------------------------------------------------------
 step_1501_chromophore_19 TDDFT with PBE1PBE functional
 ------------------------------------------------------
 Symbolic Z-matrix:
 Charge =  0 Multiplicity = 1

                         Standard orientation:
 ---------------------------------------------------------------------
 Center     Atomic      Atomic             Coordinates (Angstroms)
 Number     Number       Type             X           Y           Z
 ---------------------------------------------------------------------
      1         12           0       -5.800903    0.396873   -0.125899
      2          6           0       -3.610061   -2.283747   -0.545744
      3          6           0       -3.032344    2.365157    0.749069
      4          6           0       -7.908522    2.928829    0.395958
      5          6           0       -8.494083   -1.831532   -0.315582
      6          7           0       -3.602139    0.071574    0.236028
      7          6           0       -2.914342   -1.099977   -0.145546
      8          6           0       -1.372123   -0.935439    0.016546
      9          6           0       -1.228206    0.539694    0.656625
     10          6           0       -2.690190    1.080225    0.551682
     11          6           0       -0.633041    0.430225    2.169011
     12          6           0       -0.644639   -0.946160   -1.429757
     13          6           0        0.642834   -1.635443   -1.516348
     14          6           0        1.421768   -1.623166   -0.171425
     15          8           0        1.451800   -2.410490    0.723875
     16          8           0        2.162278   -0.475797   -0.083565
     17          7           0       -5.527928    2.370670    0.295280
     18          6           0       -4.348833    3.026048    0.571369
     19          6           0       -4.618613    4.416734    0.637683
     20          6           0       -6.040972    4.576567    0.494948
     21          6           0       -6.559265    3.273880    0.406157
     22          6           0       -3.515531    5.482340    0.841415
     23          6           0       -6.797665    5.914809    0.562942
     24          8           0       -8.046483    5.929030    0.542525
     25          6           0       -6.018409    7.178258    0.620370
     26          7           0       -7.854890    0.484948    0.140734
     27          6           0       -8.516517    1.660834    0.274063
     28          6           0      -10.052536    1.547570    0.252938
     29          6           0      -10.202268   -0.006864   -0.033187
     30          6           0       -8.746615   -0.516145   -0.022188
     31          6           0      -10.837154    1.899847    1.540039
     32          6           0      -10.822317   -0.223891   -1.461387
     33          6           0      -10.031953    0.338071   -2.708476
     34          7           0       -6.083379   -1.704147   -0.408713
     35          6           0       -7.224883   -2.477441   -0.472109
     36          6           0       -6.886412   -3.813344   -0.719520
     37          6           0       -5.484500   -3.786861   -0.772256
     38          6           0       -5.009180   -2.507616   -0.545430
     39          6           0       -7.831493   -5.015495   -0.821822
     40          6           0       -4.372447   -4.628667   -0.862623
     41          8           0       -4.319725   -5.825203   -1.066463
     42          6           0       -3.053813   -3.717302   -0.771976
     43          6           0       -2.161394   -4.182437    0.361532
     44          8           0       -2.372555   -3.854747    1.573162
     45          8           0       -1.106234   -4.871272   -0.165592
     46          6           0       -0.157697   -5.427631    0.771575
     47          6           0        3.190536   -0.344005    0.970144
     48          6           0        4.561436   -0.495864    0.361727
     49          6           0        5.807066   -0.540081    1.002194
     50          6           0        6.043537   -0.387076    2.460953
     51          6           0        7.067270   -0.740727    0.167134
     52          6           0        7.921560    0.476845   -0.086526
     53          6           0        7.989394    0.874234   -1.522625
     54          6           0        9.156134    1.954207   -1.690925
     55          6           0        8.537141    3.186345   -2.330604
     56          6           0       10.382808    1.336439   -2.549866
     57          6           0       11.611880    2.360019   -2.502536
     58          6           0       13.000839    1.662026   -2.619387
     59          6           0       13.823005    1.536346   -1.333284
     60          6           0       15.294260    1.781630   -1.509335
     61          6           0       13.614596    0.147590   -0.619408
     62          6           0       13.446452    0.126153    0.972352
     63          6           0       12.035975   -0.251253    1.393215
     64          6           0       11.990111   -1.415595    2.407203
     65          6           0       10.609556   -2.074042    2.500458
     66          6           0       12.408065   -0.943914    3.816798
     67          1           0       -2.173710    3.036456    0.812993
     68          1           0       -8.736386    3.597244    0.640177
     69          1           0       -9.191329   -2.642120   -0.539160
     70          1           0       -1.033304   -1.697593    0.718799
     71          1           0       -0.526341    1.130545    0.067963
     72          1           0        0.176128   -0.298429    2.225270
     73          1           0       -1.496608    0.306501    2.822597
     74          1           0       -0.246054    1.431995    2.353945
     75          1           0       -0.620056    0.048368   -1.874465
     76          1           0       -1.339722   -1.498305   -2.061915
     77          1           0        1.367803   -1.094603   -2.124662
     78          1           0        0.551638   -2.700633   -1.730560
     79          1           0       -3.499009    6.344702    0.174041
     80          1           0       -2.549276    4.985599    0.752401
     81          1           0       -3.513818    5.898390    1.849151
     82          1           0       -5.463629    7.409306    1.530156
     83          1           0       -6.666725    8.004896    0.330232
     84          1           0       -5.448797    7.224348   -0.306952
     85          1           0      -10.318885    2.102685   -0.647100
     86          1           0      -10.752147   -0.494334    0.772129
     87          1           0      -11.776640    1.362559    1.667204
     88          1           0      -11.118502    2.890784    1.182060
     89          1           0      -10.301323    1.973290    2.485707
     90          1           0      -11.717885    0.393847   -1.526310
     91          1           0      -11.055256   -1.236790   -1.789790
     92          1           0       -9.065870    0.749236   -2.416014
     93          1           0      -10.422350    1.227395   -3.203792
     94          1           0       -9.805754   -0.481317   -3.390888
     95          1           0       -7.462339   -5.755285   -1.532471
     96          1           0       -8.813372   -4.691963   -1.165095
     97          1           0       -7.922929   -5.315877    0.222296
     98          1           0       -2.467707   -3.834361   -1.683764
     99          1           0        0.827989   -4.962517    0.805923
    100          1           0        0.061718   -6.448699    0.460616
    101          1           0       -0.461963   -5.473328    1.817057
    102          1           0        3.197355   -1.107710    1.747714
    103          1           0        3.002910    0.653010    1.368039
    104          1           0        4.422067   -0.472411   -0.719451
    105          1           0        6.292511   -1.294762    3.011574
    106          1           0        5.171909   -0.050876    3.021145
    107          1           0        6.862706    0.262737    2.768007
    108          1           0        6.672304   -1.090134   -0.787205
    109          1           0        7.673867   -1.526633    0.616963
    110          1           0        8.888696    0.227138    0.348211
    111          1           0        7.436623    1.285714    0.459511
    112          1           0        7.020071    1.226890   -1.874568
    113          1           0        8.185417    0.050927   -2.210236
    114          1           0        9.525761    2.300367   -0.726517
    115          1           0        9.257103    3.994203   -2.466840
    116          1           0        7.696895    3.486656   -1.704109
    117          1           0        8.111157    2.975133   -3.311801
    118          1           0       10.078758    1.301289   -3.596392
    119          1           0       10.590861    0.365321   -2.100318
    120          1           0       11.520473    2.945575   -1.587393
    121          1           0       11.458966    2.948440   -3.407496
    122          1           0       13.448297    2.339034   -3.346856
    123          1           0       12.986802    0.716840   -3.162834
    124          1           0       13.549566    2.255034   -0.561581
    125          1           0       15.720486    0.780664   -1.570179
    126          1           0       15.797749    2.329327   -0.712152
    127          1           0       15.471261    2.363367   -2.413600
    128          1           0       14.440743   -0.544604   -0.785539
    129          1           0       12.816883   -0.449081   -1.062790
    130          1           0       13.764162    1.059104    1.438146
    131          1           0       14.154754   -0.550041    1.451395
    132          1           0       11.370555   -0.377774    0.539014
    133          1           0       11.601252    0.595598    1.924221
    134          1           0       12.688010   -2.203546    2.123051
    135          1           0       10.233470   -1.995653    3.520907
    136          1           0       10.681411   -3.112214    2.174850
    137          1           0       10.010494   -1.493557    1.799405
    138          1           0       13.036160   -1.708078    4.275295
    139          1           0       11.617712   -0.669889    4.516078
    140          1           0       13.033538   -0.058583    3.705111
 ---------------------------------------------------------------------

 SCF Done:  E(RPBE1PBE) =  -3005.34230595     A.U. after   15 cycles

 Excitation energies and oscillator strengths:

 Excited State   1:      Singlet-A      1.8561 eV  667.99 nm  f=0.3963  <S**2>=0.000
     245 -> 248       -0.15671
     246 -> 247        0.69630
     246 <- 247       -0.11778
 This state for optimization and/or second-order correction.
 Total Energy, E(TD-HF/TD-DFT) =  -3005.27409632
 Copying the excited state density for this state as the 1-particle RhoCI density.

 Excited State   2:      Singlet-A      2.1615 eV  573.59 nm  f=0.1591  <S**2>=0.000
     245 -> 247        0.66815
     246 -> 248        0.19947

 Excited State   3:      Singlet-A      2.7193 eV  455.95 nm  f=0.0013  <S**2>=0.000
     242 -> 247        0.37689
     243 -> 247        0.57361

 Excited State   4:      Singlet-A      2.8204 eV  439.60 nm  f=0.0028  <S**2>=0.000
     241 -> 247        0.14227
     242 -> 247        0.57790
     243 -> 247       -0.36897

 Excited State   5:      Singlet-A      2.9238 eV  424.04 nm  f=0.0252  <S**2>=0.000
     240 -> 247        0.15698
     241 -> 247        0.66071

 The electronic state is 1-A.
 Alpha  occ. eigenvalues --  -46.91332 -19.26496 -19.25650 -19.20792 -19.19276
 Alpha  occ. eigenvalues --  -19.18870 -19.18208 -14.41613 -14.41601 -14.38956
 Alpha  occ. eigenvalues --  -14.37785 -10.36612 -10.36376 -10.32385 -10.30910
 Alpha  occ. eigenvalues --  -10.29737 -10.29661 -10.28384 -10.28283 -10.28208
 Alpha  occ. eigenvalues --  -10.27861 -10.27454 -10.27175 -10.26523 -10.26253
 Alpha  occ. eigenvalues --  -10.26213 -10.26013 -10.25853 -10.25756 -10.25741
 Alpha  occ. eigenvalues --  -10.25719 -10.25568 -10.25402 -10.25343 -10.25308
 Alpha  occ. eigenvalues --  -10.25130 -10.24518 -10.24321 -10.24312 -10.24281
 Alpha  occ. eigenvalues --  -10.24144 -10.24063 -10.23858 -10.23710 -10.23694
 Alpha  occ. eigenvalues --  -10.23557 -10.23507 -10.23438 -10.23370 -10.23342
 Alpha  occ. eigenvalues --  -10.23271 -10.23057 -10.23040 -10.22763 -10.22735
 Alpha  occ. eigenvalues --  -10.22715 -10.22653 -10.22572 -10.22496 -10.22479
 Alpha  occ. eigenvalues --  -10.22282 -10.21923 -10.21840 -10.21731 -10.21699
 Alpha  occ. eigenvalues --  -10.21356  -3.13501  -1.86343  -1.85892  -1.85715
 Alpha  occ. eigenvalues --   -1.12429  -1.10281  -1.04109  -1.03541  -1.03113
 Alpha  occ. eigenvalues --   -1.00362  -0.98953  -0.98011  -0.97527  -0.95457
 Alpha  occ. eigenvalues --   -0.86101  -0.84882  -0.84061  -0.83841  -0.82753
 Alpha  occ. eigenvalues --   -0.82742  -0.82559  -0.81882  -0.81232  -0.80655
 Alpha  occ. eigenvalues --   -0.80349  -0.79325  -0.78502  -0.77604  -0.77378
 Alpha  occ. eigenvalues --   -0.76832  -0.76083  -0.75791  -0.75520  -0.74661
 Alpha  occ. eigenvalues --   -0.74412  -0.72556  -0.71607  -0.71227  -0.70167
 Alpha  occ. eigenvalues --   -0.69730  -0.69684  -0.69448  -0.68752  -0.68491
 Alpha  occ. eigenvalues --   -0.67858  -0.67259  -0.65688  -0.64642  -0.63851
 Alpha  occ. eigenvalues --   -0.62856  -0.62561  -0.61272  -0.60958  -0.59869
 Alpha  occ. eigenvalues --   -0.59674  -0.59359  -0.59209  -0.58616  -0.57840
 Alpha  occ. eigenvalues --   -0.57703  -0.57438  -0.57290  -0.56455  -0.55320
 Alpha  occ. eigenvalues --   -0.55039  -0.53818  -0.53526  -0.52762  -0.51928
 Alpha  occ. eigenvalues --   -0.51138  -0.50914  -0.50604  -0.50202  -0.50169
 Alpha  occ. eigenvalues --   -0.49750  -0.49120  -0.49004  -0.48925  -0.48713
 Alpha  occ. eigenvalues --   -0.48219  -0.48094  -0.47535  -0.47466  -0.47264
 Alpha  occ. eigenvalues --   -0.47107  -0.46833  -0.46707  -0.46616  -0.46179
 Alpha  occ. eigenvalues --   -0.45924  -0.45623  -0.45544  -0.45232  -0.44930
 Alpha  occ. eigenvalues --   -0.44706  -0.44507  -0.44304  -0.44077  -0.44039
 Alpha  occ. eigenvalues --   -0.43839  -0.43612  -0.43472  -0.43360  -0.43216
 Alpha  occ. eigenvalues --   -0.43152  -0.43095  -0.42747  -0.42612  -0.42308
 Alpha  occ. eigenvalues --   -0.41990  -0.41815  -0.41590  -0.41342  -0.41148
 Alpha  occ. eigenvalues --   -0.41029  -0.40946  -0.40538  -0.40397  -0.40299
 Alpha  occ. eigenvalues --   -0.40098  -0.39806  -0.39581  -0.39565  -0.39408
 Alpha  occ. eigenvalues --   -0.39211  -0.39168  -0.39108  -0.38793  -0.38701
 Alpha  occ. eigenvalues --   -0.38389  -0.38177  -0.37933  -0.37674  -0.37513
 Alpha  occ. eigenvalues --   -0.37355  -0.37257  -0.37139  -0.36950  -0.36775
 Alpha  occ. eigenvalues --   -0.36511  -0.36373  -0.36350  -0.36151  -0.36108
 Alpha  occ. eigenvalues --   -0.35743  -0.35622  -0.35613  -0.35190  -0.35056
 Alpha  occ. eigenvalues --   -0.34765  -0.34386  -0.33640  -0.33612  -0.33095
 Alpha  occ. eigenvalues --   -0.33023  -0.32917  -0.32719  -0.32540  -0.32132
 Alpha  occ. eigenvalues --   -0.32116  -0.31756  -0.31603  -0.31356  -0.31288
 Alpha  occ. eigenvalues --   -0.31047  -0.30593  -0.30547  -0.29428  -0.29166
 Alpha  occ. eigenvalues --   -0.28900  -0.28580  -0.27875  -0.26999  -0.25694
 Alpha  occ. eigenvalues --   -0.25243  -0.24939  -0.24859  -0.24698  -0.20851
 Alpha  occ. eigenvalues --   -0.19131
 Alpha virt. eigenvalues --   -0.11652  -0.04725  -0.03282  -0.01538  -0.00313
 Alpha virt. eigenvalues --    0.00024   0.00305   0.00554   0.01626   0.03340
 Alpha virt. eigenvalues --    0.04660   0.04719   0.04866   0.05683   0.05934

 Mulliken charges:
               1
     1  Mg   0.975665
     2  C    0.011542
     3  C   -0.043441
     4  C   -0.032234
     5  C   -0.036741
     6  N   -0.405489
     7  C    0.080891
     8  C   -0.170551
     9  C   -0.119195
    10  C    0.082547
    11  C   -0.009201
    12  C    0.005854
    13  C    0.061173
    14  C    0.169495
    15  O   -0.237096
    16  O   -0.389212
    17  N   -0.515262
    18  C    0.150578
    19  C   -0.176679
    20  C   -0.063961
    21  C    0.194346
    22  C    0.054755
    23  C    0.061302
    24  O   -0.259222
    25  C   -0.005575
    26  N   -0.396212
    27  C   -0.002993
    28  C   -0.121799
    29  C   -0.069755
    30  C    0.131688
    31  C    0.013364
    32  C   -0.044395
    33  C   -0.107391
    34  N   -0.465967
    35  C    0.044214
    36  C   -0.179511
    37  C   -0.000406
    38  C    0.137417
    39  C    0.083932
    40  C    0.098327
    41  O   -0.214344
    42  C   -0.149432
    43  C    0.319458
    44  O   -0.301975
    45  O   -0.341312
    46  C    0.114047
    47  C    0.220848
    48  C   -0.167677
    49  C   -0.191422
    50  C    0.010969
    51  C    0.024167
    52  C   -0.049905
    53  C   -0.006417
    54  C   -0.220812
    55  C   -0.027639
    56  C   -0.022531
    57  C   -0.065823
    58  C    0.015741
    59  C   -0.174380
    60  C    0.002804
    61  C   -0.023914
    62  C   -0.032919
    63  C   -0.038017
    64  C   -0.278987
    65  C    0.013789
    66  C   -0.023338
    67  H    0.002191
    68  H    0.022800
    69  H   -0.008737
    70  H    0.100189
    71  H    0.046681
    72  H    0.076447
    73  H    0.061346
    74  H    0.032550
    75  H    0.045954
    76  H    0.043705
    77  H    0.059769
    78  H    0.065612
    79  H    0.048126
    80  H    0.028376
    81  H    0.050503
    82  H    0.082271
    83  H    0.038698
    84  H    0.053647
    85  H    0.060598
    86  H    0.046578
    87  H    0.050809
    88  H    0.049846
    89  H    0.064830
    90  H    0.043195
    91  H    0.049019
    92  H    0.038628
    93  H    0.045671
    94  H    0.051325
    95  H    0.071955
    96  H    0.034817
    97  H    0.073141
    98  H    0.071131
    99  H    0.062514
   100  H    0.045982
   101  H    0.063743
   102  H    0.078101
   103  H    0.061664
   104  H    0.037458
   105  H    0.047972
   106  H    0.027193
   107  H    0.045320
   108  H    0.024662
   109  H    0.041227
   110  H    0.043929
   111  H    0.036072
   112  H    0.022267
   113  H    0.020084
   114  H    0.037080
   115  H    0.034823
   116  H    0.037043
   117  H    0.028165
   118  H    0.033055
   119  H    0.041693
   120  H    0.038903
   121  H    0.037874
   122  H    0.014774
   123  H    0.028056
   124  H    0.029857
   125  H    0.026483
   126  H    0.035567
   127  H    0.028717
   128  H    0.019177
   129  H    0.020776
   130  H    0.024606
   131  H    0.025311
   132  H    0.042547
   133  H    0.024315
   134  H    0.035461
   135  H    0.033321
   136  H    0.039690
   137  H    0.026689
   138  H    0.037007
   139  H    0.038827
   140  H    0.024546
 Sum of Mulliken charges =  -0.00000

 Dipole moment (field-independent basis, Debye):
    X=              4.0938    Y=              4.1800    Z=             -1.4270  Tot=              6.0223
 Quadrupole moment (field-independent basis, Debye-Ang):
   XX=           -365.3308   YY=           -424.0717   ZZ=           -399.1301
   XY=              2.5341   XZ=             13.7081   YZ=              0.8018

 Normal termination of Gaussian 16 at Wed May  4 07:50:54 2022.
