 Gaussian 16, Revision A.03,
 Gaussian 16:  ES64L-G16RevA.03 25-Dec-2016

 --------------------------------
 #p wB97XD/Def2SVP td=(nstates=5)
 --------------------------------

 -----------------------------------------------------
 step_1501_chromophore_19 TDDFT with wB97XD functional
 -----------------------------------------------------
 Symbolic Z-matrix:
 Charge =  0 Multiplicity = 1

                         Standard orientation:
 ---------------------------------------------------------------------
 Center     Atomic      Atomic             Coordinates (Angstroms)
 Number     Number       Type             X           Y           Z
 ---------------------------------------------------------------------
      1         12           0       -5.800903    0.396873   -0.125899
      2          6           0       -3.610061   -2.283747   -0.545744
      3          6           0       -3.032344    2.365157    0.749069
      4          6           0       -7.908522    2.928829    0.395958
      5          6           0       -8.494083   -1.831532   -0.315582
      6          7           0       -3.602139    0.071574    0.236028
      7          6           0       -2.914342   -1.099977   -0.145546
      8          6           0       -1.372123   -0.935439    0.016546
      9          6           0       -1.228206    0.539694    0.656625
     10          6           0       -2.690190    1.080225    0.551682
     11          6           0       -0.633041    0.430225    2.169011
     12          6           0       -0.644639   -0.946160   -1.429757
     13          6           0        0.642834   -1.635443   -1.516348
     14          6           0        1.421768   -1.623166   -0.171425
     15          8           0        1.451800   -2.410490    0.723875
     16          8           0        2.162278   -0.475797   -0.083565
     17          7           0       -5.527928    2.370670    0.295280
     18          6           0       -4.348833    3.026048    0.571369
     19          6           0       -4.618613    4.416734    0.637683
     20          6           0       -6.040972    4.576567    0.494948
     21          6           0       -6.559265    3.273880    0.406157
     22          6           0       -3.515531    5.482340    0.841415
     23          6           0       -6.797665    5.914809    0.562942
     24          8           0       -8.046483    5.929030    0.542525
     25          6           0       -6.018409    7.178258    0.620370
     26          7           0       -7.854890    0.484948    0.140734
     27          6           0       -8.516517    1.660834    0.274063
     28          6           0      -10.052536    1.547570    0.252938
     29          6           0      -10.202268   -0.006864   -0.033187
     30          6           0       -8.746615   -0.516145   -0.022188
     31          6           0      -10.837154    1.899847    1.540039
     32          6           0      -10.822317   -0.223891   -1.461387
     33          6           0      -10.031953    0.338071   -2.708476
     34          7           0       -6.083379   -1.704147   -0.408713
     35          6           0       -7.224883   -2.477441   -0.472109
     36          6           0       -6.886412   -3.813344   -0.719520
     37          6           0       -5.484500   -3.786861   -0.772256
     38          6           0       -5.009180   -2.507616   -0.545430
     39          6           0       -7.831493   -5.015495   -0.821822
     40          6           0       -4.372447   -4.628667   -0.862623
     41          8           0       -4.319725   -5.825203   -1.066463
     42          6           0       -3.053813   -3.717302   -0.771976
     43          6           0       -2.161394   -4.182437    0.361532
     44          8           0       -2.372555   -3.854747    1.573162
     45          8           0       -1.106234   -4.871272   -0.165592
     46          6           0       -0.157697   -5.427631    0.771575
     47          6           0        3.190536   -0.344005    0.970144
     48          6           0        4.561436   -0.495864    0.361727
     49          6           0        5.807066   -0.540081    1.002194
     50          6           0        6.043537   -0.387076    2.460953
     51          6           0        7.067270   -0.740727    0.167134
     52          6           0        7.921560    0.476845   -0.086526
     53          6           0        7.989394    0.874234   -1.522625
     54          6           0        9.156134    1.954207   -1.690925
     55          6           0        8.537141    3.186345   -2.330604
     56          6           0       10.382808    1.336439   -2.549866
     57          6           0       11.611880    2.360019   -2.502536
     58          6           0       13.000839    1.662026   -2.619387
     59          6           0       13.823005    1.536346   -1.333284
     60          6           0       15.294260    1.781630   -1.509335
     61          6           0       13.614596    0.147590   -0.619408
     62          6           0       13.446452    0.126153    0.972352
     63          6           0       12.035975   -0.251253    1.393215
     64          6           0       11.990111   -1.415595    2.407203
     65          6           0       10.609556   -2.074042    2.500458
     66          6           0       12.408065   -0.943914    3.816798
     67          1           0       -2.173710    3.036456    0.812993
     68          1           0       -8.736386    3.597244    0.640177
     69          1           0       -9.191329   -2.642120   -0.539160
     70          1           0       -1.033304   -1.697593    0.718799
     71          1           0       -0.526341    1.130545    0.067963
     72          1           0        0.176128   -0.298429    2.225270
     73          1           0       -1.496608    0.306501    2.822597
     74          1           0       -0.246054    1.431995    2.353945
     75          1           0       -0.620056    0.048368   -1.874465
     76          1           0       -1.339722   -1.498305   -2.061915
     77          1           0        1.367803   -1.094603   -2.124662
     78          1           0        0.551638   -2.700633   -1.730560
     79          1           0       -3.499009    6.344702    0.174041
     80          1           0       -2.549276    4.985599    0.752401
     81          1           0       -3.513818    5.898390    1.849151
     82          1           0       -5.463629    7.409306    1.530156
     83          1           0       -6.666725    8.004896    0.330232
     84          1           0       -5.448797    7.224348   -0.306952
     85          1           0      -10.318885    2.102685   -0.647100
     86          1           0      -10.752147   -0.494334    0.772129
     87          1           0      -11.776640    1.362559    1.667204
     88          1           0      -11.118502    2.890784    1.182060
     89          1           0      -10.301323    1.973290    2.485707
     90          1           0      -11.717885    0.393847   -1.526310
     91          1           0      -11.055256   -1.236790   -1.789790
     92          1           0       -9.065870    0.749236   -2.416014
     93          1           0      -10.422350    1.227395   -3.203792
     94          1           0       -9.805754   -0.481317   -3.390888
     95          1           0       -7.462339   -5.755285   -1.532471
     96          1           0       -8.813372   -4.691963   -1.165095
     97          1           0       -7.922929   -5.315877    0.222296
     98          1           0       -2.467707   -3.834361   -1.683764
     99          1           0        0.827989   -4.962517    0.805923
    100          1           0        0.061718   -6.448699    0.460616
    101          1           0       -0.461963   -5.473328    1.817057
    102          1           0        3.197355   -1.107710    1.747714
    103          1           0        3.002910    0.653010    1.368039
    104          1           0        4.422067   -0.472411   -0.719451
    105          1           0        6.292511   -1.294762    3.011574
    106          1           0        5.171909   -0.050876    3.021145
    107          1           0        6.862706    0.262737    2.768007
    108          1           0        6.672304   -1.090134   -0.787205
    109          1           0        7.673867   -1.526633    0.616963
    110          1           0        8.888696    0.227138    0.348211
    111          1           0        7.436623    1.285714    0.459511
    112          1           0        7.020071    1.226890   -1.874568
    113          1           0        8.185417    0.050927   -2.210236
    114          1           0        9.525761    2.300367   -0.726517
    115          1           0        9.257103    3.994203   -2.466840
    116          1           0        7.696895    3.486656   -1.704109
    117          1           0        8.111157    2.975133   -3.311801
    118          1           0       10.078758    1.301289   -3.596392
    119          1           0       10.590861    0.365321   -2.100318
    120          1           0       11.520473    2.945575   -1.587393
    121          1           0       11.458966    2.948440   -3.407496
    122          1           0       13.448297    2.339034   -3.346856
    123          1           0       12.986802    0.716840   -3.162834
    124          1           0       13.549566    2.255034   -0.561581
    125          1           0       15.720486    0.780664   -1.570179
    126          1           0       15.797749    2.329327   -0.712152
    127          1           0       15.471261    2.363367   -2.413600
    128          1           0       14.440743   -0.544604   -0.785539
    129          1           0       12.816883   -0.449081   -1.062790
    130          1           0       13.764162    1.059104    1.438146
    131          1           0       14.154754   -0.550041    1.451395
    132          1           0       11.370555   -0.377774    0.539014
    133          1           0       11.601252    0.595598    1.924221
    134          1           0       12.688010   -2.203546    2.123051
    135          1           0       10.233470   -1.995653    3.520907
    136          1           0       10.681411   -3.112214    2.174850
    137          1           0       10.010494   -1.493557    1.799405
    138          1           0       13.036160   -1.708078    4.275295
    139          1           0       11.617712   -0.669889    4.516078
    140          1           0       13.033538   -0.058583    3.705111
 ---------------------------------------------------------------------

 SCF Done:  E(RwB97XD) =  -3007.85536599     A.U. after   19 cycles

 Excitation energies and oscillator strengths:

 Excited State   1:      Singlet-A      1.6271 eV  761.99 nm  f=0.4116  <S**2>=0.000
     245 -> 248        0.17013
     246 -> 247        0.68641
     245 <- 248        0.11309
 This state for optimization and/or second-order correction.
 Total Energy, E(TD-HF/TD-DFT) =  -3007.79557116
 Copying the excited state density for this state as the 1-particle RhoCI density.

 Excited State   2:      Singlet-A      2.0819 eV  595.54 nm  f=0.1785  <S**2>=0.000
     245 -> 247        0.66274
     246 -> 248       -0.21998

 Excited State   3:      Singlet-A      3.1165 eV  397.83 nm  f=0.0024  <S**2>=0.000
     242 -> 247       -0.12199
     243 -> 247        0.67597

 Excited State   4:      Singlet-A      3.2701 eV  379.15 nm  f=0.0222  <S**2>=0.000
     242 -> 247        0.66131
     243 -> 247        0.10097
     246 -> 248        0.11923

 Excited State   5:      Singlet-A      3.3274 eV  372.62 nm  f=0.0045  <S**2>=0.000
     241 -> 247        0.61492
     241 -> 249        0.23988
     241 -> 250       -0.17469

 The electronic state is 1-A.
 Alpha  occ. eigenvalues --  -46.94268 -19.31062 -19.30161 -19.25431 -19.23980
 Alpha  occ. eigenvalues --  -19.23705 -19.23010 -14.46791 -14.46618 -14.43906
 Alpha  occ. eigenvalues --  -14.42696 -10.43337 -10.43220 -10.39241 -10.37780
 Alpha  occ. eigenvalues --  -10.36201 -10.35977 -10.34670 -10.34590 -10.34493
 Alpha  occ. eigenvalues --  -10.34185 -10.33955 -10.33530 -10.32819 -10.32490
 Alpha  occ. eigenvalues --  -10.32427 -10.32253 -10.32208 -10.32117 -10.32111
 Alpha  occ. eigenvalues --  -10.31971 -10.31970 -10.31813 -10.31759 -10.31624
 Alpha  occ. eigenvalues --  -10.31474 -10.30846 -10.30801 -10.30667 -10.30649
 Alpha  occ. eigenvalues --  -10.30621 -10.30438 -10.30338 -10.30211 -10.30006
 Alpha  occ. eigenvalues --  -10.29967 -10.29957 -10.29881 -10.29807 -10.29626
 Alpha  occ. eigenvalues --  -10.29535 -10.29415 -10.29411 -10.29174 -10.29076
 Alpha  occ. eigenvalues --  -10.29072 -10.29034 -10.28937 -10.28887 -10.28848
 Alpha  occ. eigenvalues --  -10.28636 -10.28342 -10.28248 -10.28179 -10.28011
 Alpha  occ. eigenvalues --  -10.27789  -3.20292  -1.93882  -1.93434  -1.93253
 Alpha  occ. eigenvalues --   -1.19755  -1.17684  -1.11582  -1.10840  -1.10636
 Alpha  occ. eigenvalues --   -1.07770  -1.06371  -1.05375  -1.04897  -1.02864
 Alpha  occ. eigenvalues --   -0.93720  -0.92558  -0.91717  -0.91498  -0.90405
 Alpha  occ. eigenvalues --   -0.90356  -0.90180  -0.89547  -0.88823  -0.88310
 Alpha  occ. eigenvalues --   -0.88003  -0.86959  -0.86146  -0.85239  -0.85018
 Alpha  occ. eigenvalues --   -0.84481  -0.83820  -0.83450  -0.83161  -0.82318
 Alpha  occ. eigenvalues --   -0.82028  -0.80194  -0.79249  -0.78842  -0.77829
 Alpha  occ. eigenvalues --   -0.77423  -0.77275  -0.77078  -0.76428  -0.76150
 Alpha  occ. eigenvalues --   -0.75423  -0.74846  -0.73234  -0.72260  -0.71439
 Alpha  occ. eigenvalues --   -0.70394  -0.70204  -0.68829  -0.68573  -0.67408
 Alpha  occ. eigenvalues --   -0.67265  -0.66807  -0.66706  -0.66057  -0.65473
 Alpha  occ. eigenvalues --   -0.65285  -0.65067  -0.64884  -0.63854  -0.62842
 Alpha  occ. eigenvalues --   -0.62481  -0.61259  -0.60971  -0.60097  -0.59320
 Alpha  occ. eigenvalues --   -0.58677  -0.58322  -0.58012  -0.57662  -0.57590
 Alpha  occ. eigenvalues --   -0.57157  -0.56560  -0.56455  -0.56325  -0.56168
 Alpha  occ. eigenvalues --   -0.55601  -0.55492  -0.54939  -0.54883  -0.54826
 Alpha  occ. eigenvalues --   -0.54398  -0.54224  -0.54108  -0.53864  -0.53555
 Alpha  occ. eigenvalues --   -0.53290  -0.53053  -0.52874  -0.52577  -0.52252
 Alpha  occ. eigenvalues --   -0.51994  -0.51837  -0.51697  -0.51412  -0.51367
 Alpha  occ. eigenvalues --   -0.51137  -0.50917  -0.50788  -0.50663  -0.50555
 Alpha  occ. eigenvalues --   -0.50449  -0.50379  -0.50003  -0.49927  -0.49607
 Alpha  occ. eigenvalues --   -0.49280  -0.49087  -0.48874  -0.48550  -0.48350
 Alpha  occ. eigenvalues --   -0.48253  -0.48187  -0.47743  -0.47506  -0.47482
 Alpha  occ. eigenvalues --   -0.47254  -0.47014  -0.46773  -0.46763  -0.46587
 Alpha  occ. eigenvalues --   -0.46385  -0.46370  -0.46306  -0.45998  -0.45864
 Alpha  occ. eigenvalues --   -0.45567  -0.45329  -0.45068  -0.44818  -0.44667
 Alpha  occ. eigenvalues --   -0.44461  -0.44412  -0.44236  -0.44052  -0.43880
 Alpha  occ. eigenvalues --   -0.43618  -0.43544  -0.43417  -0.43291  -0.43237
 Alpha  occ. eigenvalues --   -0.42782  -0.42673  -0.42658  -0.42146  -0.42130
 Alpha  occ. eigenvalues --   -0.41850  -0.41479  -0.40691  -0.40597  -0.40145
 Alpha  occ. eigenvalues --   -0.40024  -0.39975  -0.39658  -0.39552  -0.39156
 Alpha  occ. eigenvalues --   -0.39044  -0.38766  -0.38595  -0.38320  -0.38168
 Alpha  occ. eigenvalues --   -0.37981  -0.37593  -0.37561  -0.36231  -0.36156
 Alpha  occ. eigenvalues --   -0.35713  -0.35299  -0.34940  -0.33585  -0.32867
 Alpha  occ. eigenvalues --   -0.31983  -0.31811  -0.31425  -0.31383  -0.25784
 Alpha  occ. eigenvalues --   -0.23376
 Alpha virt. eigenvalues --   -0.07702   0.00850   0.03002   0.04969   0.06047
 Alpha virt. eigenvalues --    0.06333   0.06893   0.07440   0.08347   0.09947
 Alpha virt. eigenvalues --    0.10975   0.11286   0.11668   0.12514   0.12622

 Mulliken charges:
               1
     1  Mg   0.963446
     2  C    0.001824
     3  C   -0.059770
     4  C   -0.048166
     5  C   -0.048902
     6  N   -0.377177
     7  C    0.059762
     8  C   -0.141827
     9  C   -0.099217
    10  C    0.071397
    11  C    0.006864
    12  C    0.015172
    13  C    0.079632
    14  C    0.148873
    15  O   -0.230853
    16  O   -0.385829
    17  N   -0.483122
    18  C    0.141699
    19  C   -0.168299
    20  C   -0.059524
    21  C    0.191881
    22  C    0.068545
    23  C    0.056518
    24  O   -0.253539
    25  C    0.005147
    26  N   -0.359330
    27  C   -0.022194
    28  C   -0.093247
    29  C   -0.043761
    30  C    0.117847
    31  C    0.020603
    32  C   -0.028933
    33  C   -0.089486
    34  N   -0.429062
    35  C    0.031011
    36  C   -0.173158
    37  C    0.007492
    38  C    0.120070
    39  C    0.094758
    40  C    0.077881
    41  O   -0.204951
    42  C   -0.110454
    43  C    0.295987
    44  O   -0.296871
    45  O   -0.339149
    46  C    0.129785
    47  C    0.234482
    48  C   -0.175905
    49  C   -0.175284
    50  C    0.019766
    51  C    0.044168
    52  C   -0.018003
    53  C    0.005754
    54  C   -0.189561
    55  C   -0.014546
    56  C   -0.006570
    57  C   -0.047556
    58  C    0.028849
    59  C   -0.143824
    60  C    0.014829
    61  C   -0.008329
    62  C   -0.022053
    63  C   -0.008122
    64  C   -0.251320
    65  C    0.037019
    66  C   -0.012383
    67  H   -0.005629
    68  H    0.017702
    69  H   -0.017365
    70  H    0.082852
    71  H    0.037569
    72  H    0.068058
    73  H    0.055874
    74  H    0.026048
    75  H    0.040448
    76  H    0.032542
    77  H    0.054492
    78  H    0.060912
    79  H    0.042447
    80  H    0.022879
    81  H    0.045006
    82  H    0.079282
    83  H    0.037066
    84  H    0.047089
    85  H    0.048810
    86  H    0.038454
    87  H    0.045496
    88  H    0.043481
    89  H    0.061050
    90  H    0.033413
    91  H    0.041894
    92  H    0.024804
    93  H    0.041327
    94  H    0.046540
    95  H    0.069373
    96  H    0.029373
    97  H    0.068357
    98  H    0.064492
    99  H    0.057419
   100  H    0.042030
   101  H    0.060209
   102  H    0.072765
   103  H    0.058121
   104  H    0.032886
   105  H    0.042970
   106  H    0.021891
   107  H    0.040200
   108  H    0.014568
   109  H    0.032976
   110  H    0.023318
   111  H    0.024387
   112  H    0.013368
   113  H    0.011730
   114  H    0.023845
   115  H    0.028838
   116  H    0.029791
   117  H    0.020861
   118  H    0.024450
   119  H    0.028069
   120  H    0.028509
   121  H    0.030048
   122  H    0.006660
   123  H    0.020608
   124  H    0.016064
   125  H    0.018631
   126  H    0.030890
   127  H    0.022590
   128  H    0.010309
   129  H    0.009220
   130  H    0.016593
   131  H    0.016614
   132  H    0.024038
   133  H    0.013480
   134  H    0.024177
   135  H    0.026997
   136  H    0.034854
   137  H    0.008630
   138  H    0.031859
   139  H    0.033011
   140  H    0.016595
 Sum of Mulliken charges =  -0.00000

 Dipole moment (field-independent basis, Debye):
    X=              4.0682    Y=              4.2699    Z=             -1.4705  Tot=              6.0782
 Quadrupole moment (field-independent basis, Debye-Ang):
   XX=           -365.4555   YY=           -422.3769   ZZ=           -398.7363
   XY=              2.0796   XZ=             13.8058   YZ=              0.9157

 Normal termination of Gaussian 16 at Wed May  4 08:15:33 2022.
