 Gaussian 16, Revision A.03,
 Gaussian 16:  ES64L-G16RevA.03 25-Dec-2016

 --------------------
 #p ZINDO=(nstates=5)
 --------------------

 ------------------------------
 step_1501_chromophore_19 ZINDO
 ------------------------------
 Symbolic Z-matrix:
 Charge =  0 Multiplicity = 1

                         Standard orientation:
 ---------------------------------------------------------------------
 Center     Atomic      Atomic             Coordinates (Angstroms)
 Number     Number       Type             X           Y           Z
 ---------------------------------------------------------------------
      1         12           0       -5.800903    0.396873   -0.125899
      2          6           0       -3.610061   -2.283747   -0.545744
      3          6           0       -3.032344    2.365157    0.749069
      4          6           0       -7.908522    2.928829    0.395958
      5          6           0       -8.494083   -1.831532   -0.315582
      6          7           0       -3.602139    0.071574    0.236028
      7          6           0       -2.914342   -1.099977   -0.145546
      8          6           0       -1.372123   -0.935439    0.016546
      9          6           0       -1.228206    0.539694    0.656625
     10          6           0       -2.690190    1.080225    0.551682
     11          6           0       -0.633041    0.430225    2.169011
     12          6           0       -0.644639   -0.946160   -1.429757
     13          6           0        0.642834   -1.635443   -1.516348
     14          6           0        1.421768   -1.623166   -0.171425
     15          8           0        1.451800   -2.410490    0.723875
     16          8           0        2.162278   -0.475797   -0.083565
     17          7           0       -5.527928    2.370670    0.295280
     18          6           0       -4.348833    3.026048    0.571369
     19          6           0       -4.618613    4.416734    0.637683
     20          6           0       -6.040972    4.576567    0.494948
     21          6           0       -6.559265    3.273880    0.406157
     22          6           0       -3.515531    5.482340    0.841415
     23          6           0       -6.797665    5.914809    0.562942
     24          8           0       -8.046483    5.929030    0.542525
     25          6           0       -6.018409    7.178258    0.620370
     26          7           0       -7.854890    0.484948    0.140734
     27          6           0       -8.516517    1.660834    0.274063
     28          6           0      -10.052536    1.547570    0.252938
     29          6           0      -10.202268   -0.006864   -0.033187
     30          6           0       -8.746615   -0.516145   -0.022188
     31          6           0      -10.837154    1.899847    1.540039
     32          6           0      -10.822317   -0.223891   -1.461387
     33          6           0      -10.031953    0.338071   -2.708476
     34          7           0       -6.083379   -1.704147   -0.408713
     35          6           0       -7.224883   -2.477441   -0.472109
     36          6           0       -6.886412   -3.813344   -0.719520
     37          6           0       -5.484500   -3.786861   -0.772256
     38          6           0       -5.009180   -2.507616   -0.545430
     39          6           0       -7.831493   -5.015495   -0.821822
     40          6           0       -4.372447   -4.628667   -0.862623
     41          8           0       -4.319725   -5.825203   -1.066463
     42          6           0       -3.053813   -3.717302   -0.771976
     43          6           0       -2.161394   -4.182437    0.361532
     44          8           0       -2.372555   -3.854747    1.573162
     45          8           0       -1.106234   -4.871272   -0.165592
     46          6           0       -0.157697   -5.427631    0.771575
     47          6           0        3.190536   -0.344005    0.970144
     48          6           0        4.561436   -0.495864    0.361727
     49          6           0        5.807066   -0.540081    1.002194
     50          6           0        6.043537   -0.387076    2.460953
     51          6           0        7.067270   -0.740727    0.167134
     52          6           0        7.921560    0.476845   -0.086526
     53          6           0        7.989394    0.874234   -1.522625
     54          6           0        9.156134    1.954207   -1.690925
     55          6           0        8.537141    3.186345   -2.330604
     56          6           0       10.382808    1.336439   -2.549866
     57          6           0       11.611880    2.360019   -2.502536
     58          6           0       13.000839    1.662026   -2.619387
     59          6           0       13.823005    1.536346   -1.333284
     60          6           0       15.294260    1.781630   -1.509335
     61          6           0       13.614596    0.147590   -0.619408
     62          6           0       13.446452    0.126153    0.972352
     63          6           0       12.035975   -0.251253    1.393215
     64          6           0       11.990111   -1.415595    2.407203
     65          6           0       10.609556   -2.074042    2.500458
     66          6           0       12.408065   -0.943914    3.816798
     67          1           0       -2.173710    3.036456    0.812993
     68          1           0       -8.736386    3.597244    0.640177
     69          1           0       -9.191329   -2.642120   -0.539160
     70          1           0       -1.033304   -1.697593    0.718799
     71          1           0       -0.526341    1.130545    0.067963
     72          1           0        0.176128   -0.298429    2.225270
     73          1           0       -1.496608    0.306501    2.822597
     74          1           0       -0.246054    1.431995    2.353945
     75          1           0       -0.620056    0.048368   -1.874465
     76          1           0       -1.339722   -1.498305   -2.061915
     77          1           0        1.367803   -1.094603   -2.124662
     78          1           0        0.551638   -2.700633   -1.730560
     79          1           0       -3.499009    6.344702    0.174041
     80          1           0       -2.549276    4.985599    0.752401
     81          1           0       -3.513818    5.898390    1.849151
     82          1           0       -5.463629    7.409306    1.530156
     83          1           0       -6.666725    8.004896    0.330232
     84          1           0       -5.448797    7.224348   -0.306952
     85          1           0      -10.318885    2.102685   -0.647100
     86          1           0      -10.752147   -0.494334    0.772129
     87          1           0      -11.776640    1.362559    1.667204
     88          1           0      -11.118502    2.890784    1.182060
     89          1           0      -10.301323    1.973290    2.485707
     90          1           0      -11.717885    0.393847   -1.526310
     91          1           0      -11.055256   -1.236790   -1.789790
     92          1           0       -9.065870    0.749236   -2.416014
     93          1           0      -10.422350    1.227395   -3.203792
     94          1           0       -9.805754   -0.481317   -3.390888
     95          1           0       -7.462339   -5.755285   -1.532471
     96          1           0       -8.813372   -4.691963   -1.165095
     97          1           0       -7.922929   -5.315877    0.222296
     98          1           0       -2.467707   -3.834361   -1.683764
     99          1           0        0.827989   -4.962517    0.805923
    100          1           0        0.061718   -6.448699    0.460616
    101          1           0       -0.461963   -5.473328    1.817057
    102          1           0        3.197355   -1.107710    1.747714
    103          1           0        3.002910    0.653010    1.368039
    104          1           0        4.422067   -0.472411   -0.719451
    105          1           0        6.292511   -1.294762    3.011574
    106          1           0        5.171909   -0.050876    3.021145
    107          1           0        6.862706    0.262737    2.768007
    108          1           0        6.672304   -1.090134   -0.787205
    109          1           0        7.673867   -1.526633    0.616963
    110          1           0        8.888696    0.227138    0.348211
    111          1           0        7.436623    1.285714    0.459511
    112          1           0        7.020071    1.226890   -1.874568
    113          1           0        8.185417    0.050927   -2.210236
    114          1           0        9.525761    2.300367   -0.726517
    115          1           0        9.257103    3.994203   -2.466840
    116          1           0        7.696895    3.486656   -1.704109
    117          1           0        8.111157    2.975133   -3.311801
    118          1           0       10.078758    1.301289   -3.596392
    119          1           0       10.590861    0.365321   -2.100318
    120          1           0       11.520473    2.945575   -1.587393
    121          1           0       11.458966    2.948440   -3.407496
    122          1           0       13.448297    2.339034   -3.346856
    123          1           0       12.986802    0.716840   -3.162834
    124          1           0       13.549566    2.255034   -0.561581
    125          1           0       15.720486    0.780664   -1.570179
    126          1           0       15.797749    2.329327   -0.712152
    127          1           0       15.471261    2.363367   -2.413600
    128          1           0       14.440743   -0.544604   -0.785539
    129          1           0       12.816883   -0.449081   -1.062790
    130          1           0       13.764162    1.059104    1.438146
    131          1           0       14.154754   -0.550041    1.451395
    132          1           0       11.370555   -0.377774    0.539014
    133          1           0       11.601252    0.595598    1.924221
    134          1           0       12.688010   -2.203546    2.123051
    135          1           0       10.233470   -1.995653    3.520907
    136          1           0       10.681411   -3.112214    2.174850
    137          1           0       10.010494   -1.493557    1.799405
    138          1           0       13.036160   -1.708078    4.275295
    139          1           0       11.617712   -0.669889    4.516078
    140          1           0       13.033538   -0.058583    3.705111
 ---------------------------------------------------------------------

 SCF Done:  E(RZINDO/S) =  -474.133078303     A.U. after   20 cycles

 Excitation energies and oscillator strengths:

 Excited State   1:      Singlet-A      1.2224 eV 1014.25 nm  f=0.6646  <S**2>=0.000
     175 ->178        -0.18151
     176 ->177         0.66521
 This state for optimization and/or second-order correction.
 Total Energy, E(CIS/TDA) =  -474.088155045
 Copying the excited state density for this state as the 1-particle RhoCI density.

 Excited State   2:      Singlet-A      1.8972 eV  653.50 nm  f=0.1702  <S**2>=0.000
     175 ->177         0.61046
     176 ->178         0.32258

 Excited State   3:      Singlet-A      2.9060 eV  426.64 nm  f=0.0076  <S**2>=0.000
     170 ->177         0.40516
     170 ->179        -0.35327
     170 ->180         0.18685
     170 ->181        -0.18388
     170 ->186        -0.18928
     170 ->187        -0.10241
     170 ->202         0.11331

 Excited State   4:      Singlet-A      2.9882 eV  414.91 nm  f=0.0061  <S**2>=0.000
     168 ->177         0.18951
     168 ->178         0.13211
     168 ->179         0.21111
     168 ->180         0.22558
     168 ->181        -0.10836
     168 ->186         0.13122
     171 ->177        -0.10274
     172 ->177         0.31730
     173 ->177         0.40066

 Excited State   5:      Singlet-A      3.0031 eV  412.86 nm  f=0.0449  <S**2>=0.000
     168 ->177        -0.21276
     168 ->178        -0.14455
     168 ->179        -0.23061
     168 ->180        -0.24296
     168 ->181         0.11462
     168 ->186        -0.13662
     172 ->177         0.39422
     173 ->177         0.21079
     176 ->178         0.17719

 The electronic state is 1-A.
 Alpha  occ. eigenvalues --   -1.85040  -1.82138  -1.78355  -1.74716  -1.70152
 Alpha  occ. eigenvalues --   -1.68394  -1.64392  -1.60932  -1.58588  -1.56846
 Alpha  occ. eigenvalues --   -1.56612  -1.51171  -1.48255  -1.47875  -1.45359
 Alpha  occ. eigenvalues --   -1.43991  -1.42298  -1.39788  -1.38195  -1.37215
 Alpha  occ. eigenvalues --   -1.34309  -1.33300  -1.32716  -1.31809  -1.28962
 Alpha  occ. eigenvalues --   -1.28538  -1.25219  -1.21935  -1.20511  -1.18184
 Alpha  occ. eigenvalues --   -1.16204  -1.15821  -1.14666  -1.13717  -1.12440
 Alpha  occ. eigenvalues --   -1.12098  -1.10766  -1.10459  -1.05765  -1.03586
 Alpha  occ. eigenvalues --   -1.03054  -1.01571  -0.98598  -0.97604  -0.97122
 Alpha  occ. eigenvalues --   -0.96685  -0.94106  -0.93410  -0.92734  -0.91919
 Alpha  occ. eigenvalues --   -0.90600  -0.90334  -0.89108  -0.87730  -0.86702
 Alpha  occ. eigenvalues --   -0.85618  -0.83764  -0.83521  -0.81682  -0.81020
 Alpha  occ. eigenvalues --   -0.80685  -0.78923  -0.77767  -0.76401  -0.75617
 Alpha  occ. eigenvalues --   -0.75268  -0.74636  -0.74207  -0.73740  -0.73406
 Alpha  occ. eigenvalues --   -0.72970  -0.72054  -0.71695  -0.71186  -0.70997
 Alpha  occ. eigenvalues --   -0.70538  -0.69649  -0.69029  -0.68235  -0.67923
 Alpha  occ. eigenvalues --   -0.66705  -0.66681  -0.66529  -0.66376  -0.66058
 Alpha  occ. eigenvalues --   -0.64988  -0.64541  -0.64317  -0.63547  -0.63393
 Alpha  occ. eigenvalues --   -0.62766  -0.62699  -0.61857  -0.61809  -0.61352
 Alpha  occ. eigenvalues --   -0.61240  -0.61027  -0.60965  -0.60278  -0.59895
 Alpha  occ. eigenvalues --   -0.59305  -0.59040  -0.58863  -0.58450  -0.57965
 Alpha  occ. eigenvalues --   -0.57681  -0.57175  -0.56874  -0.56727  -0.56254
 Alpha  occ. eigenvalues --   -0.55500  -0.55383  -0.54948  -0.54780  -0.54549
 Alpha  occ. eigenvalues --   -0.54254  -0.53792  -0.53011  -0.52874  -0.52554
 Alpha  occ. eigenvalues --   -0.52343  -0.51964  -0.51906  -0.51346  -0.51198
 Alpha  occ. eigenvalues --   -0.50995  -0.50446  -0.50265  -0.50103  -0.49874
 Alpha  occ. eigenvalues --   -0.49828  -0.49781  -0.49557  -0.49380  -0.48799
 Alpha  occ. eigenvalues --   -0.48641  -0.48119  -0.47947  -0.47788  -0.47592
 Alpha  occ. eigenvalues --   -0.47300  -0.47073  -0.46996  -0.46564  -0.46315
 Alpha  occ. eigenvalues --   -0.46036  -0.45943  -0.45488  -0.45372  -0.45305
 Alpha  occ. eigenvalues --   -0.45083  -0.44612  -0.44285  -0.44180  -0.43986
 Alpha  occ. eigenvalues --   -0.43937  -0.43630  -0.42793  -0.42346  -0.42007
 Alpha  occ. eigenvalues --   -0.41846  -0.41424  -0.40457  -0.38675  -0.38234
 Alpha  occ. eigenvalues --   -0.37969  -0.36999  -0.35402  -0.34588  -0.34311
 Alpha  occ. eigenvalues --   -0.32893  -0.32609  -0.32183  -0.31315  -0.26450
 Alpha  occ. eigenvalues --   -0.22222
 Alpha virt. eigenvalues --   -0.09250  -0.01422  -0.00186   0.01645   0.02365
 Alpha virt. eigenvalues --    0.02809   0.02846   0.03416   0.03943   0.04904
 Alpha virt. eigenvalues --    0.06354   0.07250   0.07875   0.08096   0.08565

 Mulliken charges:
               1
     1  Mg   0.420736
     2  C   -0.058857
     3  C   -0.083370
     4  C   -0.050439
     5  C   -0.060094
     6  N   -0.309107
     7  C    0.149088
     8  C   -0.003994
     9  C   -0.011753
    10  C    0.136143
    11  C   -0.055351
    12  C   -0.013574
    13  C    0.016268
    14  C    0.464598
    15  O   -0.515964
    16  O   -0.294559
    17  N   -0.323360
    18  C    0.109702
    19  C   -0.017096
    20  C   -0.043926
    21  C    0.143643
    22  C   -0.050287
    23  C    0.330859
    24  O   -0.535168
    25  C   -0.033783
    26  N   -0.244532
    27  C    0.121065
    28  C    0.001184
    29  C   -0.004204
    30  C    0.137259
    31  C   -0.054252
    32  C   -0.033011
    33  C   -0.065732
    34  N   -0.342313
    35  C    0.091782
    36  C    0.044568
    37  C   -0.044258
    38  C    0.137931
    39  C   -0.037840
    40  C    0.330294
    41  O   -0.530156
    42  C    0.046603
    43  C    0.485747
    44  O   -0.541373
    45  O   -0.242763
    46  C    0.072517
    47  C    0.104582
    48  C   -0.094173
    49  C   -0.006912
    50  C   -0.039407
    51  C   -0.025658
    52  C   -0.021172
    53  C   -0.031586
    54  C   -0.027456
    55  C   -0.054075
    56  C   -0.047436
    57  C   -0.043142
    58  C   -0.030569
    59  C    0.001915
    60  C   -0.057229
    61  C   -0.045524
    62  C   -0.039157
    63  C   -0.027744
    64  C   -0.010616
    65  C   -0.064062
    66  C   -0.056978
    67  H    0.022771
    68  H    0.049280
    69  H    0.032834
    70  H    0.066357
    71  H    0.029191
    72  H    0.043231
    73  H    0.035785
    74  H    0.010812
    75  H    0.031410
    76  H    0.013689
    77  H    0.040548
    78  H    0.046850
    79  H    0.028852
    80  H    0.017582
    81  H    0.026040
    82  H    0.053425
    83  H    0.027502
    84  H    0.035748
    85  H    0.044640
    86  H    0.035942
    87  H    0.024305
    88  H    0.017535
    89  H    0.038440
    90  H    0.012484
    91  H    0.026101
    92  H    0.014672
    93  H    0.026070
    94  H    0.021353
    95  H    0.043215
    96  H    0.019496
    97  H    0.044042
    98  H    0.050336
    99  H    0.043772
   100  H    0.026273
   101  H    0.051048
   102  H    0.062801
   103  H    0.041837
   104  H    0.034871
   105  H    0.027229
   106  H    0.012801
   107  H    0.025920
   108  H    0.015024
   109  H    0.022731
   110  H    0.022845
   111  H    0.021124
   112  H    0.020848
   113  H    0.016426
   114  H    0.024439
   115  H    0.014458
   116  H    0.014070
   117  H    0.014440
   118  H    0.026093
   119  H    0.027287
   120  H    0.029639
   121  H    0.020771
   122  H    0.008681
   123  H    0.024442
   124  H    0.019931
   125  H    0.020928
   126  H    0.018421
   127  H    0.014647
   128  H    0.012035
   129  H    0.016153
   130  H    0.017214
   131  H    0.017142
   132  H    0.020515
   133  H    0.009531
   134  H    0.019090
   135  H    0.024339
   136  H    0.019779
   137  H    0.019262
   138  H    0.014304
   139  H    0.024193
   140  H    0.009636
 Sum of Mulliken charges =  -0.00000

 Dipole moment (field-independent basis, Debye):
    X=              4.2923    Y=              5.1130    Z=             -3.2862  Tot=              7.4408
 N-N= 4.337790275679D+03 E-N= 0.000000000000D+00  KE=-9.350350271424D+03
 Leave Link  601 at Wed May  4 08:29:17 2022, MaxMem=  6710886400 cpu:               0.8 elap:               0.1
 (Enter /sw/apps/gaussian-16.0/g16/l9999.exe)
 1\1\GINC-BP1-COMPUTE101\SP\RZINDO CIS\STO-3G\C55H74Mg1N4O6\OF15641\04-
 May-2022\0\\#p ZINDO=(nstates=5)\\step_1501_chromophore_19 ZINDO\\0,1\
 Mg,0,25.634,51.145,26.529\C,0,23.311,52.169,28.92\C,0,27.791,50.3,29.1
 63\C,0,27.904,50.281,24.243\C,0,23.693,52.677,24.051\N,0,25.651,51.356
 ,28.771\C,0,24.508,51.681,29.532\C,0,24.774,51.519,31.06\C,0,26.335,51
 .111,31.117\C,0,26.663,50.881,29.607\C,0,27.189,52.293,31.843\C,0,23.8
 97,50.299,31.663\C,0,23.33,50.49,32.998\C,0,24.182,51.444,33.881\O,0,2

 Normal termination of Gaussian 16 at Wed May  4 08:29:18 2022.
