 Gaussian 16, Revision A.03,
 Gaussian 16:  ES64L-G16RevA.03 25-Dec-2016

 ------------------------------
 #p blyp/Def2SVP td=(nstates=5)
 ------------------------------

 -------------------------------------------------
 step_51_chromophore_25 TDDFT with blyp functional
 -------------------------------------------------
 Symbolic Z-matrix:
 Charge =  0 Multiplicity = 1

                         Standard orientation:
 ---------------------------------------------------------------------
 Center     Atomic      Atomic             Coordinates (Angstroms)
 Number     Number       Type             X           Y           Z
 ---------------------------------------------------------------------
      1         12           0        5.978547    0.322107    0.352572
      2          6           0        3.407136   -2.122212    0.190795
      3          6           0        3.416324    2.724045   -0.200990
      4          6           0        8.320705    2.714121   -0.351837
      5          6           0        8.336509   -2.046287    0.453618
      6          7           0        3.571852    0.280338   -0.143812
      7          6           0        2.829473   -0.866170    0.050919
      8          6           0        1.359679   -0.494414    0.073908
      9          6           0        1.364133    1.067645   -0.078064
     10          6           0        2.848953    1.399674   -0.141771
     11          6           0        0.453214    1.624696   -1.170779
     12          6           0        0.663616   -0.996768    1.407464
     13          6           0       -0.360929   -2.152830    1.227256
     14          6           0       -1.775855   -1.831668    1.664456
     15          8           0       -2.183230   -1.968142    2.805811
     16          8           0       -2.571359   -1.532960    0.561148
     17          7           0        5.879821    2.471578   -0.065607
     18          6           0        4.740974    3.192000   -0.280809
     19          6           0        5.134724    4.545881   -0.458701
     20          6           0        6.505313    4.587459   -0.679962
     21          6           0        6.989942    3.202146   -0.452140
     22          6           0        4.183301    5.715110   -0.397727
     23          6           0        7.398544    5.779075   -1.054034
     24          8           0        8.591534    5.501517   -1.293646
     25          6           0        6.912041    7.198234   -1.130925
     26          7           0        7.988844    0.419359    0.086590
     27          6           0        8.756974    1.443456   -0.104747
     28          6           0       10.270881    1.132850   -0.248685
     29          6           0       10.288331   -0.370234    0.229743
     30          6           0        8.772364   -0.671785    0.230984
     31          6           0       10.737999    1.281186   -1.752242
     32          6           0       11.067260   -0.684826    1.600416
     33          6           0       10.387574   -0.747083    3.054958
     34          7           0        5.932042   -1.607354    0.307168
     35          6           0        6.962015   -2.540371    0.474847
     36          6           0        6.471110   -3.907568    0.538053
     37          6           0        5.093697   -3.802974    0.370088
     38          6           0        4.820312   -2.402388    0.255658
     39          6           0        7.318825   -5.075052    0.673656
     40          6           0        3.877035   -4.570650    0.191004
     41          8           0        3.730916   -5.788087    0.123945
     42          6           0        2.715869   -3.477491    0.049934
     43          6           0        1.850658   -3.688020   -1.184179
     44          8           0        2.142629   -3.158125   -2.267288
     45          8           0        0.855660   -4.522199   -0.882965
     46          6           0       -0.208241   -4.719450   -1.859383
     47          6           0       -3.885231   -1.044525    0.885132
     48          6           0       -4.716686   -1.011263   -0.313248
     49          6           0       -5.814908   -0.276945   -0.515240
     50          6           0       -6.499168    0.839890    0.421511
     51          6           0       -6.686010   -0.485562   -1.773594
     52          6           0       -7.797923   -1.537506   -1.534859
     53          6           0       -8.982012   -1.483542   -2.594552
     54          6           0      -10.430510   -1.023527   -2.136882
     55          6           0      -11.502825   -2.127432   -2.218162
     56          6           0      -10.978587    0.193646   -2.868540
     57          6           0      -11.693348    1.171856   -1.870751
     58          6           0      -13.243943    1.133326   -1.694196
     59          6           0      -13.505145    0.859457   -0.223642
     60          6           0      -14.817445    0.136612   -0.017552
     61          6           0      -13.480273    2.155984    0.599832
     62          6           0      -13.140303    1.937870    2.142045
     63          6           0      -11.942534    2.668092    2.710204
     64          6           0      -10.647882    1.772662    2.951089
     65          6           0      -10.283848    1.490650    4.435717
     66          6           0       -9.479276    2.254922    2.229704
     67          1           0        2.605278    3.448616   -0.096951
     68          1           0        9.089465    3.484135   -0.442043
     69          1           0        9.127892   -2.751849    0.714335
     70          1           0        0.915762   -0.900686   -0.834565
     71          1           0        0.945826    1.498460    0.831080
     72          1           0        0.932341    1.517408   -2.144144
     73          1           0        0.095260    2.610912   -0.875041
     74          1           0       -0.431405    0.989566   -1.135793
     75          1           0        0.112446   -0.185596    1.882961
     76          1           0        1.475589   -1.182137    2.110944
     77          1           0       -0.002081   -2.995453    1.818030
     78          1           0       -0.379814   -2.324700    0.151558
     79          1           0        4.218362    6.342077   -1.289013
     80          1           0        4.416870    6.385205    0.429253
     81          1           0        3.114507    5.524936   -0.302323
     82          1           0        6.427443    7.416838   -0.178721
     83          1           0        6.270233    7.284049   -2.008025
     84          1           0        7.673947    7.928525   -1.401714
     85          1           0       10.842035    1.844403    0.347307
     86          1           0       10.865222   -0.883506   -0.538355
     87          1           0       11.676540    1.835972   -1.771191
     88          1           0       10.029866    1.920684   -2.278280
     89          1           0       10.649903    0.371262   -2.346705
     90          1           0       11.907878    0.008222    1.592736
     91          1           0       11.543103   -1.658595    1.479598
     92          1           0       10.784696   -0.082104    3.822194
     93          1           0       10.351027   -1.758702    3.460066
     94          1           0        9.329405   -0.503101    2.955257
     95          1           0        7.655527   -5.461399   -0.288301
     96          1           0        6.771792   -5.865826    1.187524
     97          1           0        8.238732   -4.823181    1.201405
     98          1           0        2.181203   -3.600321    0.991875
     99          1           0        0.107584   -4.885459   -2.889892
    100          1           0       -0.887934   -3.868013   -1.881915
    101          1           0       -0.830794   -5.587716   -1.641962
    102          1           0       -3.970769   -0.157249    1.511960
    103          1           0       -4.392105   -1.863969    1.394075
    104          1           0       -4.380386   -1.720814   -1.069050
    105          1           0       -7.562676    0.629390    0.313872
    106          1           0       -6.179711    1.841010    0.130600
    107          1           0       -6.338367    0.607375    1.474103
    108          1           0       -6.170786   -0.860693   -2.658667
    109          1           0       -7.081849    0.463753   -2.135219
    110          1           0       -8.169102   -1.595254   -0.511390
    111          1           0       -7.232432   -2.464919   -1.619725
    112          1           0       -9.026872   -2.472122   -3.052268
    113          1           0       -8.671064   -0.847827   -3.423199
    114          1           0      -10.335130   -0.751431   -1.086267
    115          1           0      -12.523976   -1.747088   -2.238057
    116          1           0      -11.347512   -2.657754   -1.278270
    117          1           0      -11.325520   -2.830080   -3.032837
    118          1           0      -11.683040    0.059393   -3.689854
    119          1           0      -10.137358    0.712890   -3.327882
    120          1           0      -11.561341    2.126672   -2.377955
    121          1           0      -11.224474    1.168033   -0.887365
    122          1           0      -13.721257    0.397438   -2.341519
    123          1           0      -13.666818    2.118354   -1.890874
    124          1           0      -12.718237    0.167057    0.076657
    125          1           0      -14.699905   -0.916129   -0.274592
    126          1           0      -15.646667    0.472146   -0.640026
    127          1           0      -15.184939    0.205428    1.006793
    128          1           0      -14.355873    2.798117    0.502673
    129          1           0      -12.781806    2.821537    0.092173
    130          1           0      -13.036937    0.870179    2.336050
    131          1           0      -14.067660    2.204421    2.648685
    132          1           0      -12.326824    3.062358    3.650606
    133          1           0      -11.625143    3.489218    2.066097
    134          1           0      -10.756735    0.763702    2.552942
    135          1           0       -9.540579    0.711143    4.605229
    136          1           0      -11.195332    1.025706    4.809943
    137          1           0       -9.968271    2.375678    4.987373
    138          1           0       -9.771561    2.901136    1.401624
    139          1           0       -8.836062    1.479375    1.814512
    140          1           0       -8.783899    2.868091    2.801816
 ---------------------------------------------------------------------

 SCF Done:  E(RB-LYP) =  -3007.37816462     A.U. after   22 cycles

 Excitation energies and oscillator strengths:

 Excited State   1:      Singlet-A      1.8051 eV  686.84 nm  f=0.2568  <S**2>=0.000
     245 -> 248       -0.20900
     246 -> 247        0.67863
     246 <- 247       -0.13593
 This state for optimization and/or second-order correction.
 Total Energy, E(TD-HF/TD-DFT) =  -3007.31182711
 Copying the excited state density for this state as the 1-particle RhoCI density.

 Excited State   2:      Singlet-A      1.9786 eV  626.62 nm  f=0.0497  <S**2>=0.000
     244 -> 247        0.49339
     245 -> 247       -0.46472
     246 -> 248       -0.17472

 Excited State   3:      Singlet-A      2.0378 eV  608.41 nm  f=0.0427  <S**2>=0.000
     244 -> 247        0.50159
     245 -> 247        0.44611
     246 -> 248        0.19952

 Excited State   4:      Singlet-A      2.1937 eV  565.18 nm  f=0.0009  <S**2>=0.000
     243 -> 247        0.70472

 Excited State   5:      Singlet-A      2.5221 eV  491.58 nm  f=0.0001  <S**2>=0.000
     241 -> 247        0.70400

 The electronic state is 1-A.
 Alpha  occ. eigenvalues --  -46.27195 -18.83672 -18.82895 -18.77555 -18.76668
 Alpha  occ. eigenvalues --  -18.76056 -18.75213 -14.03187 -14.02366 -14.01367
 Alpha  occ. eigenvalues --  -14.00687 -10.04526 -10.04502 -10.00083  -9.99999
 Alpha  occ. eigenvalues --   -9.98449  -9.97853  -9.96745  -9.96286  -9.95879
 Alpha  occ. eigenvalues --   -9.95703  -9.95584  -9.95307  -9.95214  -9.94995
 Alpha  occ. eigenvalues --   -9.94044  -9.93910  -9.93894  -9.93875  -9.93663
 Alpha  occ. eigenvalues --   -9.93660  -9.93630  -9.93388  -9.93359  -9.93313
 Alpha  occ. eigenvalues --   -9.93286  -9.93217  -9.93213  -9.93140  -9.92922
 Alpha  occ. eigenvalues --   -9.92849  -9.92623  -9.92482  -9.92435  -9.92226
 Alpha  occ. eigenvalues --   -9.92173  -9.92159  -9.92123  -9.92031  -9.91922
 Alpha  occ. eigenvalues --   -9.91889  -9.91875  -9.91836  -9.91477  -9.91380
 Alpha  occ. eigenvalues --   -9.91373  -9.91206  -9.91173  -9.91109  -9.91031
 Alpha  occ. eigenvalues --   -9.91020  -9.91016  -9.90960  -9.90892  -9.90291
 Alpha  occ. eigenvalues --   -9.90146  -2.92031  -1.72417  -1.71944  -1.71750
 Alpha  occ. eigenvalues --   -0.98989  -0.98342  -0.91124  -0.90906  -0.90193
 Alpha  occ. eigenvalues --   -0.89784  -0.88045  -0.85863  -0.85218  -0.84701
 Alpha  occ. eigenvalues --   -0.74758  -0.73617  -0.73342  -0.72569  -0.72171
 Alpha  occ. eigenvalues --   -0.71503  -0.71335  -0.71082  -0.70942  -0.70063
 Alpha  occ. eigenvalues --   -0.69824  -0.69329  -0.68187  -0.67446  -0.66950
 Alpha  occ. eigenvalues --   -0.66409  -0.65725  -0.65399  -0.65088  -0.64693
 Alpha  occ. eigenvalues --   -0.64082  -0.62663  -0.62097  -0.61436  -0.60811
 Alpha  occ. eigenvalues --   -0.60502  -0.60217  -0.59894  -0.59686  -0.59306
 Alpha  occ. eigenvalues --   -0.58302  -0.57590  -0.56343  -0.55719  -0.55459
 Alpha  occ. eigenvalues --   -0.53966  -0.53701  -0.52496  -0.52408  -0.51577
 Alpha  occ. eigenvalues --   -0.51317  -0.51139  -0.50846  -0.50764  -0.50215
 Alpha  occ. eigenvalues --   -0.50080  -0.49459  -0.49039  -0.48564  -0.46902
 Alpha  occ. eigenvalues --   -0.46441  -0.46045  -0.45448  -0.44812  -0.44723
 Alpha  occ. eigenvalues --   -0.44267  -0.44000  -0.43185  -0.42999  -0.42404
 Alpha  occ. eigenvalues --   -0.41930  -0.41881  -0.41541  -0.41366  -0.41173
 Alpha  occ. eigenvalues --   -0.41133  -0.40599  -0.40518  -0.40224  -0.40071
 Alpha  occ. eigenvalues --   -0.39913  -0.39803  -0.39303  -0.39186  -0.39035
 Alpha  occ. eigenvalues --   -0.38845  -0.38554  -0.38489  -0.38385  -0.38332
 Alpha  occ. eigenvalues --   -0.37886  -0.37853  -0.37602  -0.37503  -0.37478
 Alpha  occ. eigenvalues --   -0.37147  -0.36846  -0.36767  -0.36690  -0.36378
 Alpha  occ. eigenvalues --   -0.36215  -0.35989  -0.35934  -0.35803  -0.35654
 Alpha  occ. eigenvalues --   -0.35351  -0.35049  -0.34928  -0.34777  -0.34765
 Alpha  occ. eigenvalues --   -0.34320  -0.34138  -0.34074  -0.33994  -0.33825
 Alpha  occ. eigenvalues --   -0.33634  -0.33529  -0.33359  -0.33154  -0.32940
 Alpha  occ. eigenvalues --   -0.32873  -0.32840  -0.32474  -0.32368  -0.32276
 Alpha  occ. eigenvalues --   -0.32079  -0.32013  -0.31871  -0.31844  -0.31560
 Alpha  occ. eigenvalues --   -0.31453  -0.31416  -0.31215  -0.31009  -0.30907
 Alpha  occ. eigenvalues --   -0.30601  -0.30355  -0.30088  -0.29982  -0.29922
 Alpha  occ. eigenvalues --   -0.29823  -0.29545  -0.29435  -0.29415  -0.29304
 Alpha  occ. eigenvalues --   -0.28885  -0.28804  -0.27940  -0.27839  -0.27695
 Alpha  occ. eigenvalues --   -0.27479  -0.27440  -0.27050  -0.26661  -0.26491
 Alpha  occ. eigenvalues --   -0.26454  -0.26224  -0.26023  -0.25789  -0.25560
 Alpha  occ. eigenvalues --   -0.25421  -0.25051  -0.24752  -0.23528  -0.23229
 Alpha  occ. eigenvalues --   -0.23072  -0.22371  -0.21873  -0.21675  -0.21095
 Alpha  occ. eigenvalues --   -0.20357  -0.20037  -0.19034  -0.18367  -0.16838
 Alpha  occ. eigenvalues --   -0.15507
 Alpha virt. eigenvalues --   -0.11087  -0.06743  -0.06193  -0.04551  -0.03844
 Alpha virt. eigenvalues --   -0.03267  -0.02825  -0.01466  -0.01238   0.00489
 Alpha virt. eigenvalues --    0.00916   0.01470   0.01975   0.02543   0.02884

 Mulliken charges:
               1
     1  Mg   0.736409
     2  C   -0.005972
     3  C   -0.070562
     4  C   -0.067300
     5  C   -0.074390
     6  N   -0.150802
     7  C   -0.122141
     8  C    0.032602
     9  C   -0.003308
    10  C   -0.052696
    11  C    0.140198
    12  C    0.097181
    13  C    0.157286
    14  C    0.061277
    15  O   -0.181572
    16  O   -0.280627
    17  N   -0.273579
    18  C    0.194447
    19  C   -0.123720
    20  C    0.037614
    21  C    0.092482
    22  C    0.158226
    23  C   -0.072010
    24  O   -0.192522
    25  C    0.159214
    26  N   -0.194891
    27  C    0.026272
    28  C   -0.027122
    29  C    0.071271
    30  C    0.031353
    31  C    0.127836
    32  C    0.059930
    33  C    0.059145
    34  N   -0.340313
    35  C    0.127320
    36  C   -0.167307
    37  C    0.082838
    38  C    0.090064
    39  C    0.176222
    40  C   -0.055189
    41  O   -0.125322
    42  C    0.061402
    43  C    0.141612
    44  O   -0.198747
    45  O   -0.228581
    46  C    0.215348
    47  C    0.339680
    48  C   -0.097246
    49  C   -0.144257
    50  C    0.101135
    51  C    0.097311
    52  C    0.060712
    53  C    0.124420
    54  C   -0.051478
    55  C    0.100819
    56  C    0.121147
    57  C    0.023956
    58  C    0.124589
    59  C   -0.080624
    60  C    0.114901
    61  C    0.085564
    62  C    0.062254
    63  C    0.147941
    64  C   -0.065547
    65  C    0.083198
    66  C    0.106103
    67  H   -0.071969
    68  H   -0.040109
    69  H   -0.063161
    70  H   -0.017016
    71  H   -0.034483
    72  H    0.007597
    73  H   -0.009232
    74  H   -0.013481
    75  H   -0.017531
    76  H   -0.013834
    77  H    0.012067
    78  H    0.001131
    79  H   -0.011801
    80  H   -0.001679
    81  H   -0.021682
    82  H    0.014943
    83  H    0.009253
    84  H   -0.014047
    85  H   -0.023468
    86  H   -0.027704
    87  H    0.001902
    88  H   -0.010148
    89  H   -0.006732
    90  H   -0.022405
    91  H   -0.019477
    92  H   -0.000485
    93  H   -0.008367
    94  H   -0.008076
    95  H    0.006064
    96  H    0.006707
    97  H   -0.016154
    98  H   -0.002816
    99  H    0.017857
   100  H    0.011017
   101  H    0.017045
   102  H    0.001026
   103  H   -0.005824
   104  H   -0.037094
   105  H    0.019047
   106  H    0.025484
   107  H   -0.004963
   108  H   -0.033908
   109  H   -0.028729
   110  H   -0.027055
   111  H   -0.039103
   112  H   -0.041786
   113  H   -0.038839
   114  H   -0.038501
   115  H   -0.006389
   116  H   -0.025307
   117  H   -0.009923
   118  H   -0.034981
   119  H   -0.049734
   120  H   -0.039589
   121  H   -0.008420
   122  H   -0.037253
   123  H   -0.039618
   124  H   -0.033084
   125  H   -0.027370
   126  H   -0.026860
   127  H   -0.026108
   128  H   -0.038525
   129  H   -0.050279
   130  H   -0.023149
   131  H   -0.032969
   132  H   -0.037450
   133  H   -0.031928
   134  H   -0.037859
   135  H   -0.020065
   136  H   -0.022818
   137  H   -0.006824
   138  H   -0.027545
   139  H   -0.035312
   140  H   -0.033573
 Sum of Mulliken charges =  -0.00000

 Dipole moment (field-independent basis, Debye):
    X=             -2.4263    Y=              3.5799    Z=              1.0389  Tot=              4.4477
 Quadrupole moment (field-independent basis, Debye-Ang):
   XX=           -383.1255   YY=           -414.9251   ZZ=           -414.3665
   XY=             -5.4636   XZ=             25.1525   YZ=              6.4859

 Normal termination of Gaussian 16 at Thu May  5 03:58:48 2022.
