 Gaussian 16, Revision A.03,
 Gaussian 16:  ES64L-G16RevA.03 25-Dec-2016

 -----------------------------------
 #p cam-b3lyp/Def2SVP td=(nstates=5)
 -----------------------------------

 ------------------------------------------------------
 step_51_chromophore_25 TDDFT with cam-b3lyp functional
 ------------------------------------------------------
 Symbolic Z-matrix:
 Charge =  0 Multiplicity = 1

                         Standard orientation:
 ---------------------------------------------------------------------
 Center     Atomic      Atomic             Coordinates (Angstroms)
 Number     Number       Type             X           Y           Z
 ---------------------------------------------------------------------
      1         12           0        5.978547    0.322107    0.352572
      2          6           0        3.407136   -2.122212    0.190795
      3          6           0        3.416324    2.724045   -0.200990
      4          6           0        8.320705    2.714121   -0.351837
      5          6           0        8.336509   -2.046287    0.453618
      6          7           0        3.571852    0.280338   -0.143812
      7          6           0        2.829473   -0.866170    0.050919
      8          6           0        1.359679   -0.494414    0.073908
      9          6           0        1.364133    1.067645   -0.078064
     10          6           0        2.848953    1.399674   -0.141771
     11          6           0        0.453214    1.624696   -1.170779
     12          6           0        0.663616   -0.996768    1.407464
     13          6           0       -0.360929   -2.152830    1.227256
     14          6           0       -1.775855   -1.831668    1.664456
     15          8           0       -2.183230   -1.968142    2.805811
     16          8           0       -2.571359   -1.532960    0.561148
     17          7           0        5.879821    2.471578   -0.065607
     18          6           0        4.740974    3.192000   -0.280809
     19          6           0        5.134724    4.545881   -0.458701
     20          6           0        6.505313    4.587459   -0.679962
     21          6           0        6.989942    3.202146   -0.452140
     22          6           0        4.183301    5.715110   -0.397727
     23          6           0        7.398544    5.779075   -1.054034
     24          8           0        8.591534    5.501517   -1.293646
     25          6           0        6.912041    7.198234   -1.130925
     26          7           0        7.988844    0.419359    0.086590
     27          6           0        8.756974    1.443456   -0.104747
     28          6           0       10.270881    1.132850   -0.248685
     29          6           0       10.288331   -0.370234    0.229743
     30          6           0        8.772364   -0.671785    0.230984
     31          6           0       10.737999    1.281186   -1.752242
     32          6           0       11.067260   -0.684826    1.600416
     33          6           0       10.387574   -0.747083    3.054958
     34          7           0        5.932042   -1.607354    0.307168
     35          6           0        6.962015   -2.540371    0.474847
     36          6           0        6.471110   -3.907568    0.538053
     37          6           0        5.093697   -3.802974    0.370088
     38          6           0        4.820312   -2.402388    0.255658
     39          6           0        7.318825   -5.075052    0.673656
     40          6           0        3.877035   -4.570650    0.191004
     41          8           0        3.730916   -5.788087    0.123945
     42          6           0        2.715869   -3.477491    0.049934
     43          6           0        1.850658   -3.688020   -1.184179
     44          8           0        2.142629   -3.158125   -2.267288
     45          8           0        0.855660   -4.522199   -0.882965
     46          6           0       -0.208241   -4.719450   -1.859383
     47          6           0       -3.885231   -1.044525    0.885132
     48          6           0       -4.716686   -1.011263   -0.313248
     49          6           0       -5.814908   -0.276945   -0.515240
     50          6           0       -6.499168    0.839890    0.421511
     51          6           0       -6.686010   -0.485562   -1.773594
     52          6           0       -7.797923   -1.537506   -1.534859
     53          6           0       -8.982012   -1.483542   -2.594552
     54          6           0      -10.430510   -1.023527   -2.136882
     55          6           0      -11.502825   -2.127432   -2.218162
     56          6           0      -10.978587    0.193646   -2.868540
     57          6           0      -11.693348    1.171856   -1.870751
     58          6           0      -13.243943    1.133326   -1.694196
     59          6           0      -13.505145    0.859457   -0.223642
     60          6           0      -14.817445    0.136612   -0.017552
     61          6           0      -13.480273    2.155984    0.599832
     62          6           0      -13.140303    1.937870    2.142045
     63          6           0      -11.942534    2.668092    2.710204
     64          6           0      -10.647882    1.772662    2.951089
     65          6           0      -10.283848    1.490650    4.435717
     66          6           0       -9.479276    2.254922    2.229704
     67          1           0        2.605278    3.448616   -0.096951
     68          1           0        9.089465    3.484135   -0.442043
     69          1           0        9.127892   -2.751849    0.714335
     70          1           0        0.915762   -0.900686   -0.834565
     71          1           0        0.945826    1.498460    0.831080
     72          1           0        0.932341    1.517408   -2.144144
     73          1           0        0.095260    2.610912   -0.875041
     74          1           0       -0.431405    0.989566   -1.135793
     75          1           0        0.112446   -0.185596    1.882961
     76          1           0        1.475589   -1.182137    2.110944
     77          1           0       -0.002081   -2.995453    1.818030
     78          1           0       -0.379814   -2.324700    0.151558
     79          1           0        4.218362    6.342077   -1.289013
     80          1           0        4.416870    6.385205    0.429253
     81          1           0        3.114507    5.524936   -0.302323
     82          1           0        6.427443    7.416838   -0.178721
     83          1           0        6.270233    7.284049   -2.008025
     84          1           0        7.673947    7.928525   -1.401714
     85          1           0       10.842035    1.844403    0.347307
     86          1           0       10.865222   -0.883506   -0.538355
     87          1           0       11.676540    1.835972   -1.771191
     88          1           0       10.029866    1.920684   -2.278280
     89          1           0       10.649903    0.371262   -2.346705
     90          1           0       11.907878    0.008222    1.592736
     91          1           0       11.543103   -1.658595    1.479598
     92          1           0       10.784696   -0.082104    3.822194
     93          1           0       10.351027   -1.758702    3.460066
     94          1           0        9.329405   -0.503101    2.955257
     95          1           0        7.655527   -5.461399   -0.288301
     96          1           0        6.771792   -5.865826    1.187524
     97          1           0        8.238732   -4.823181    1.201405
     98          1           0        2.181203   -3.600321    0.991875
     99          1           0        0.107584   -4.885459   -2.889892
    100          1           0       -0.887934   -3.868013   -1.881915
    101          1           0       -0.830794   -5.587716   -1.641962
    102          1           0       -3.970769   -0.157249    1.511960
    103          1           0       -4.392105   -1.863969    1.394075
    104          1           0       -4.380386   -1.720814   -1.069050
    105          1           0       -7.562676    0.629390    0.313872
    106          1           0       -6.179711    1.841010    0.130600
    107          1           0       -6.338367    0.607375    1.474103
    108          1           0       -6.170786   -0.860693   -2.658667
    109          1           0       -7.081849    0.463753   -2.135219
    110          1           0       -8.169102   -1.595254   -0.511390
    111          1           0       -7.232432   -2.464919   -1.619725
    112          1           0       -9.026872   -2.472122   -3.052268
    113          1           0       -8.671064   -0.847827   -3.423199
    114          1           0      -10.335130   -0.751431   -1.086267
    115          1           0      -12.523976   -1.747088   -2.238057
    116          1           0      -11.347512   -2.657754   -1.278270
    117          1           0      -11.325520   -2.830080   -3.032837
    118          1           0      -11.683040    0.059393   -3.689854
    119          1           0      -10.137358    0.712890   -3.327882
    120          1           0      -11.561341    2.126672   -2.377955
    121          1           0      -11.224474    1.168033   -0.887365
    122          1           0      -13.721257    0.397438   -2.341519
    123          1           0      -13.666818    2.118354   -1.890874
    124          1           0      -12.718237    0.167057    0.076657
    125          1           0      -14.699905   -0.916129   -0.274592
    126          1           0      -15.646667    0.472146   -0.640026
    127          1           0      -15.184939    0.205428    1.006793
    128          1           0      -14.355873    2.798117    0.502673
    129          1           0      -12.781806    2.821537    0.092173
    130          1           0      -13.036937    0.870179    2.336050
    131          1           0      -14.067660    2.204421    2.648685
    132          1           0      -12.326824    3.062358    3.650606
    133          1           0      -11.625143    3.489218    2.066097
    134          1           0      -10.756735    0.763702    2.552942
    135          1           0       -9.540579    0.711143    4.605229
    136          1           0      -11.195332    1.025706    4.809943
    137          1           0       -9.968271    2.375678    4.987373
    138          1           0       -9.771561    2.901136    1.401624
    139          1           0       -8.836062    1.479375    1.814512
    140          1           0       -8.783899    2.868091    2.801816
 ---------------------------------------------------------------------

 SCF Done:  E(RCAM-B3LYP) =  -3007.16880015     A.U. after   17 cycles

 Excitation energies and oscillator strengths:

 Excited State   1:      Singlet-A      1.7526 eV  707.41 nm  f=0.3493  <S**2>=0.000
     245 -> 248        0.19494
     246 -> 247        0.68129
     245 <- 248        0.10898
 This state for optimization and/or second-order correction.
 Total Energy, E(TD-HF/TD-DFT) =  -3007.10439155
 Copying the excited state density for this state as the 1-particle RhoCI density.

 Excited State   2:      Singlet-A      2.2355 eV  554.61 nm  f=0.1020  <S**2>=0.000
     245 -> 247        0.63031
     246 -> 248       -0.30775

 Excited State   3:      Singlet-A      3.3843 eV  366.35 nm  f=0.1941  <S**2>=0.000
     242 -> 247        0.12785
     244 -> 247        0.51514
     245 -> 247        0.14829
     246 -> 248        0.41451

 Excited State   4:      Singlet-A      3.5540 eV  348.86 nm  f=0.6033  <S**2>=0.000
     244 -> 247       -0.43197
     245 -> 247        0.26481
     246 -> 248        0.45194

 Excited State   5:      Singlet-A      3.6223 eV  342.28 nm  f=0.0192  <S**2>=0.000
     239 -> 247        0.40320
     239 -> 249        0.25699
     239 -> 251        0.21033
     240 -> 247        0.29982
     240 -> 249        0.18194
     240 -> 251        0.14212

 The electronic state is 1-A.
 Alpha  occ. eigenvalues --  -46.88715 -19.26632 -19.25800 -19.20605 -19.19689
 Alpha  occ. eigenvalues --  -19.18934 -19.18786 -14.41840 -14.41276 -14.39640
 Alpha  occ. eigenvalues --  -14.39202 -10.39936 -10.39876 -10.35640 -10.35148
 Alpha  occ. eigenvalues --  -10.32455 -10.31804 -10.31024 -10.30897 -10.30406
 Alpha  occ. eigenvalues --  -10.30115 -10.29899 -10.29844 -10.29518 -10.29030
 Alpha  occ. eigenvalues --  -10.28206 -10.28202 -10.27902 -10.27896 -10.27854
 Alpha  occ. eigenvalues --  -10.27725 -10.27664 -10.27610 -10.27587 -10.27575
 Alpha  occ. eigenvalues --  -10.27248 -10.27199 -10.27194 -10.27172 -10.27068
 Alpha  occ. eigenvalues --  -10.26991 -10.26961 -10.26935 -10.26255 -10.26042
 Alpha  occ. eigenvalues --  -10.25950 -10.25933 -10.25873 -10.25675 -10.25594
 Alpha  occ. eigenvalues --  -10.25565 -10.25529 -10.25263 -10.25159 -10.25061
 Alpha  occ. eigenvalues --  -10.25054 -10.24983 -10.24916 -10.24885 -10.24786
 Alpha  occ. eigenvalues --  -10.24725 -10.24618 -10.24571 -10.24557 -10.23887
 Alpha  occ. eigenvalues --  -10.23743  -3.17461  -1.92316  -1.91930  -1.91775
 Alpha  occ. eigenvalues --   -1.17470  -1.16815  -1.09234  -1.08878  -1.08839
 Alpha  occ. eigenvalues --   -1.07738  -1.05705  -1.03564  -1.02757  -1.02282
 Alpha  occ. eigenvalues --   -0.91715  -0.90493  -0.90177  -0.89345  -0.88881
 Alpha  occ. eigenvalues --   -0.88273  -0.87949  -0.87617  -0.87401  -0.86652
 Alpha  occ. eigenvalues --   -0.86452  -0.85734  -0.84487  -0.83410  -0.83066
 Alpha  occ. eigenvalues --   -0.82618  -0.81997  -0.81283  -0.80899  -0.80578
 Alpha  occ. eigenvalues --   -0.79852  -0.78260  -0.77998  -0.76869  -0.76178
 Alpha  occ. eigenvalues --   -0.75906  -0.75559  -0.75242  -0.74940  -0.74577
 Alpha  occ. eigenvalues --   -0.73343  -0.72513  -0.71224  -0.70545  -0.70016
 Alpha  occ. eigenvalues --   -0.68597  -0.68265  -0.66993  -0.66802  -0.65636
 Alpha  occ. eigenvalues --   -0.65351  -0.65241  -0.64973  -0.64690  -0.64247
 Alpha  occ. eigenvalues --   -0.64117  -0.63426  -0.62969  -0.62206  -0.60412
 Alpha  occ. eigenvalues --   -0.60215  -0.59600  -0.58981  -0.58299  -0.58046
 Alpha  occ. eigenvalues --   -0.57696  -0.57412  -0.56485  -0.56169  -0.55705
 Alpha  occ. eigenvalues --   -0.55089  -0.54948  -0.54690  -0.54551  -0.54047
 Alpha  occ. eigenvalues --   -0.53867  -0.53505  -0.53217  -0.52965  -0.52873
 Alpha  occ. eigenvalues --   -0.52644  -0.52456  -0.52015  -0.51822  -0.51557
 Alpha  occ. eigenvalues --   -0.51335  -0.51020  -0.50952  -0.50827  -0.50717
 Alpha  occ. eigenvalues --   -0.50565  -0.50187  -0.49940  -0.49830  -0.49794
 Alpha  occ. eigenvalues --   -0.49541  -0.49265  -0.49150  -0.48874  -0.48746
 Alpha  occ. eigenvalues --   -0.48467  -0.48360  -0.48196  -0.47977  -0.47671
 Alpha  occ. eigenvalues --   -0.47357  -0.47238  -0.46931  -0.46774  -0.46653
 Alpha  occ. eigenvalues --   -0.46379  -0.46197  -0.45767  -0.45694  -0.45656
 Alpha  occ. eigenvalues --   -0.45516  -0.45213  -0.45132  -0.45056  -0.44751
 Alpha  occ. eigenvalues --   -0.44631  -0.44448  -0.44108  -0.43879  -0.43827
 Alpha  occ. eigenvalues --   -0.43734  -0.43575  -0.43454  -0.43274  -0.43172
 Alpha  occ. eigenvalues --   -0.43034  -0.42959  -0.42842  -0.42495  -0.42362
 Alpha  occ. eigenvalues --   -0.42042  -0.41873  -0.41607  -0.41365  -0.41325
 Alpha  occ. eigenvalues --   -0.41132  -0.40825  -0.40619  -0.40529  -0.40211
 Alpha  occ. eigenvalues --   -0.39938  -0.39871  -0.38909  -0.38862  -0.38557
 Alpha  occ. eigenvalues --   -0.38347  -0.38311  -0.37878  -0.37757  -0.37707
 Alpha  occ. eigenvalues --   -0.37370  -0.37230  -0.37169  -0.36660  -0.36050
 Alpha  occ. eigenvalues --   -0.35993  -0.35943  -0.35231  -0.34689  -0.34243
 Alpha  occ. eigenvalues --   -0.34008  -0.33879  -0.32473  -0.31134  -0.30871
 Alpha  occ. eigenvalues --   -0.30695  -0.30217  -0.30105  -0.29628  -0.23529
 Alpha  occ. eigenvalues --   -0.20795
 Alpha virt. eigenvalues --   -0.08031  -0.01627   0.00353   0.01880   0.02456
 Alpha virt. eigenvalues --    0.03923   0.04741   0.05881   0.06088   0.06833
 Alpha virt. eigenvalues --    0.07261   0.08236   0.08666   0.08928   0.09108

 Mulliken charges:
               1
     1  Mg   0.867259
     2  C   -0.020982
     3  C   -0.086075
     4  C   -0.089950
     5  C   -0.074878
     6  N   -0.216115
     7  C   -0.081118
     8  C   -0.022313
     9  C   -0.055237
    10  C   -0.022456
    11  C    0.081659
    12  C    0.043916
    13  C    0.087577
    14  C    0.145028
    15  O   -0.220874
    16  O   -0.345400
    17  N   -0.358885
    18  C    0.203411
    19  C   -0.128022
    20  C   -0.029931
    21  C    0.123185
    22  C    0.099179
    23  C    0.007625
    24  O   -0.231425
    25  C    0.076239
    26  N   -0.272901
    27  C    0.049384
    28  C   -0.080062
    29  C    0.020671
    30  C    0.035351
    31  C    0.067028
    32  C    0.007716
    33  C    0.000208
    34  N   -0.430300
    35  C    0.123432
    36  C   -0.166485
    37  C    0.002536
    38  C    0.126076
    39  C    0.123128
    40  C    0.050066
    41  O   -0.166888
    42  C   -0.017663
    43  C    0.220482
    44  O   -0.235358
    45  O   -0.291055
    46  C    0.175881
    47  C    0.298763
    48  C   -0.113840
    49  C   -0.170451
    50  C    0.050300
    51  C    0.039840
    52  C    0.008608
    53  C    0.070707
    54  C   -0.109338
    55  C    0.049776
    56  C    0.065904
    57  C   -0.024827
    58  C    0.067623
    59  C   -0.137196
    60  C    0.059674
    61  C    0.032892
    62  C    0.009491
    63  C    0.087845
    64  C   -0.127776
    65  C    0.028412
    66  C    0.052417
    67  H   -0.037804
    68  H    0.000278
    69  H   -0.029322
    70  H    0.017448
    71  H    0.000952
    72  H    0.033017
    73  H    0.014690
    74  H    0.012153
    75  H    0.012618
    76  H    0.019495
    77  H    0.044952
    78  H    0.028115
    79  H    0.015806
    80  H    0.026120
    81  H    0.009657
    82  H    0.041035
    83  H    0.038007
    84  H    0.024080
    85  H    0.011493
    86  H    0.008728
    87  H    0.026464
    88  H    0.016741
    89  H    0.019392
    90  H    0.004369
    91  H    0.007333
    92  H    0.022674
    93  H    0.014600
    94  H    0.013299
    95  H    0.031861
    96  H    0.031932
    97  H    0.006371
    98  H    0.037391
    99  H    0.043674
   100  H    0.030491
   101  H    0.041153
   102  H    0.027651
   103  H    0.025969
   104  H   -0.000773
   105  H    0.035279
   106  H    0.049264
   107  H    0.017220
   108  H   -0.003048
   109  H   -0.000650
   110  H   -0.000548
   111  H   -0.009514
   112  H   -0.011226
   113  H   -0.010352
   114  H   -0.009681
   115  H    0.012442
   116  H   -0.001158
   117  H    0.013499
   118  H   -0.006026
   119  H   -0.018926
   120  H   -0.009232
   121  H    0.012682
   122  H   -0.008317
   123  H   -0.009107
   124  H   -0.004736
   125  H   -0.002968
   126  H   -0.001929
   127  H   -0.001840
   128  H   -0.008075
   129  H   -0.022196
   130  H    0.003055
   131  H   -0.003377
   132  H   -0.006209
   133  H   -0.002864
   134  H   -0.007604
   135  H    0.004888
   136  H    0.000737
   137  H    0.015447
   138  H   -0.004212
   139  H   -0.015719
   140  H   -0.008607
 Sum of Mulliken charges =  -0.00000

 Dipole moment (field-independent basis, Debye):
    X=             -2.7157    Y=              4.9318    Z=              0.8906  Tot=              5.7001
 Quadrupole moment (field-independent basis, Debye-Ang):
   XX=           -383.0281   YY=           -409.4485   ZZ=           -414.7185
   XY=              1.5360   XZ=             25.4271   YZ=              6.0420

 Normal termination of Gaussian 16 at Thu May  5 02:13:29 2022.
