 Gaussian 16, Revision A.03,
 Gaussian 16:  ES64L-G16RevA.03 25-Dec-2016

 ---------------------------------
 #p PBE1PBE/Def2SVP td=(nstates=5)
 ---------------------------------

 ----------------------------------------------------
 step_51_chromophore_25 TDDFT with PBE1PBE functional
 ----------------------------------------------------
 Symbolic Z-matrix:
 Charge =  0 Multiplicity = 1

                         Standard orientation:
 ---------------------------------------------------------------------
 Center     Atomic      Atomic             Coordinates (Angstroms)
 Number     Number       Type             X           Y           Z
 ---------------------------------------------------------------------
      1         12           0        5.978547    0.322107    0.352572
      2          6           0        3.407136   -2.122212    0.190795
      3          6           0        3.416324    2.724045   -0.200990
      4          6           0        8.320705    2.714121   -0.351837
      5          6           0        8.336509   -2.046287    0.453618
      6          7           0        3.571852    0.280338   -0.143812
      7          6           0        2.829473   -0.866170    0.050919
      8          6           0        1.359679   -0.494414    0.073908
      9          6           0        1.364133    1.067645   -0.078064
     10          6           0        2.848953    1.399674   -0.141771
     11          6           0        0.453214    1.624696   -1.170779
     12          6           0        0.663616   -0.996768    1.407464
     13          6           0       -0.360929   -2.152830    1.227256
     14          6           0       -1.775855   -1.831668    1.664456
     15          8           0       -2.183230   -1.968142    2.805811
     16          8           0       -2.571359   -1.532960    0.561148
     17          7           0        5.879821    2.471578   -0.065607
     18          6           0        4.740974    3.192000   -0.280809
     19          6           0        5.134724    4.545881   -0.458701
     20          6           0        6.505313    4.587459   -0.679962
     21          6           0        6.989942    3.202146   -0.452140
     22          6           0        4.183301    5.715110   -0.397727
     23          6           0        7.398544    5.779075   -1.054034
     24          8           0        8.591534    5.501517   -1.293646
     25          6           0        6.912041    7.198234   -1.130925
     26          7           0        7.988844    0.419359    0.086590
     27          6           0        8.756974    1.443456   -0.104747
     28          6           0       10.270881    1.132850   -0.248685
     29          6           0       10.288331   -0.370234    0.229743
     30          6           0        8.772364   -0.671785    0.230984
     31          6           0       10.737999    1.281186   -1.752242
     32          6           0       11.067260   -0.684826    1.600416
     33          6           0       10.387574   -0.747083    3.054958
     34          7           0        5.932042   -1.607354    0.307168
     35          6           0        6.962015   -2.540371    0.474847
     36          6           0        6.471110   -3.907568    0.538053
     37          6           0        5.093697   -3.802974    0.370088
     38          6           0        4.820312   -2.402388    0.255658
     39          6           0        7.318825   -5.075052    0.673656
     40          6           0        3.877035   -4.570650    0.191004
     41          8           0        3.730916   -5.788087    0.123945
     42          6           0        2.715869   -3.477491    0.049934
     43          6           0        1.850658   -3.688020   -1.184179
     44          8           0        2.142629   -3.158125   -2.267288
     45          8           0        0.855660   -4.522199   -0.882965
     46          6           0       -0.208241   -4.719450   -1.859383
     47          6           0       -3.885231   -1.044525    0.885132
     48          6           0       -4.716686   -1.011263   -0.313248
     49          6           0       -5.814908   -0.276945   -0.515240
     50          6           0       -6.499168    0.839890    0.421511
     51          6           0       -6.686010   -0.485562   -1.773594
     52          6           0       -7.797923   -1.537506   -1.534859
     53          6           0       -8.982012   -1.483542   -2.594552
     54          6           0      -10.430510   -1.023527   -2.136882
     55          6           0      -11.502825   -2.127432   -2.218162
     56          6           0      -10.978587    0.193646   -2.868540
     57          6           0      -11.693348    1.171856   -1.870751
     58          6           0      -13.243943    1.133326   -1.694196
     59          6           0      -13.505145    0.859457   -0.223642
     60          6           0      -14.817445    0.136612   -0.017552
     61          6           0      -13.480273    2.155984    0.599832
     62          6           0      -13.140303    1.937870    2.142045
     63          6           0      -11.942534    2.668092    2.710204
     64          6           0      -10.647882    1.772662    2.951089
     65          6           0      -10.283848    1.490650    4.435717
     66          6           0       -9.479276    2.254922    2.229704
     67          1           0        2.605278    3.448616   -0.096951
     68          1           0        9.089465    3.484135   -0.442043
     69          1           0        9.127892   -2.751849    0.714335
     70          1           0        0.915762   -0.900686   -0.834565
     71          1           0        0.945826    1.498460    0.831080
     72          1           0        0.932341    1.517408   -2.144144
     73          1           0        0.095260    2.610912   -0.875041
     74          1           0       -0.431405    0.989566   -1.135793
     75          1           0        0.112446   -0.185596    1.882961
     76          1           0        1.475589   -1.182137    2.110944
     77          1           0       -0.002081   -2.995453    1.818030
     78          1           0       -0.379814   -2.324700    0.151558
     79          1           0        4.218362    6.342077   -1.289013
     80          1           0        4.416870    6.385205    0.429253
     81          1           0        3.114507    5.524936   -0.302323
     82          1           0        6.427443    7.416838   -0.178721
     83          1           0        6.270233    7.284049   -2.008025
     84          1           0        7.673947    7.928525   -1.401714
     85          1           0       10.842035    1.844403    0.347307
     86          1           0       10.865222   -0.883506   -0.538355
     87          1           0       11.676540    1.835972   -1.771191
     88          1           0       10.029866    1.920684   -2.278280
     89          1           0       10.649903    0.371262   -2.346705
     90          1           0       11.907878    0.008222    1.592736
     91          1           0       11.543103   -1.658595    1.479598
     92          1           0       10.784696   -0.082104    3.822194
     93          1           0       10.351027   -1.758702    3.460066
     94          1           0        9.329405   -0.503101    2.955257
     95          1           0        7.655527   -5.461399   -0.288301
     96          1           0        6.771792   -5.865826    1.187524
     97          1           0        8.238732   -4.823181    1.201405
     98          1           0        2.181203   -3.600321    0.991875
     99          1           0        0.107584   -4.885459   -2.889892
    100          1           0       -0.887934   -3.868013   -1.881915
    101          1           0       -0.830794   -5.587716   -1.641962
    102          1           0       -3.970769   -0.157249    1.511960
    103          1           0       -4.392105   -1.863969    1.394075
    104          1           0       -4.380386   -1.720814   -1.069050
    105          1           0       -7.562676    0.629390    0.313872
    106          1           0       -6.179711    1.841010    0.130600
    107          1           0       -6.338367    0.607375    1.474103
    108          1           0       -6.170786   -0.860693   -2.658667
    109          1           0       -7.081849    0.463753   -2.135219
    110          1           0       -8.169102   -1.595254   -0.511390
    111          1           0       -7.232432   -2.464919   -1.619725
    112          1           0       -9.026872   -2.472122   -3.052268
    113          1           0       -8.671064   -0.847827   -3.423199
    114          1           0      -10.335130   -0.751431   -1.086267
    115          1           0      -12.523976   -1.747088   -2.238057
    116          1           0      -11.347512   -2.657754   -1.278270
    117          1           0      -11.325520   -2.830080   -3.032837
    118          1           0      -11.683040    0.059393   -3.689854
    119          1           0      -10.137358    0.712890   -3.327882
    120          1           0      -11.561341    2.126672   -2.377955
    121          1           0      -11.224474    1.168033   -0.887365
    122          1           0      -13.721257    0.397438   -2.341519
    123          1           0      -13.666818    2.118354   -1.890874
    124          1           0      -12.718237    0.167057    0.076657
    125          1           0      -14.699905   -0.916129   -0.274592
    126          1           0      -15.646667    0.472146   -0.640026
    127          1           0      -15.184939    0.205428    1.006793
    128          1           0      -14.355873    2.798117    0.502673
    129          1           0      -12.781806    2.821537    0.092173
    130          1           0      -13.036937    0.870179    2.336050
    131          1           0      -14.067660    2.204421    2.648685
    132          1           0      -12.326824    3.062358    3.650606
    133          1           0      -11.625143    3.489218    2.066097
    134          1           0      -10.756735    0.763702    2.552942
    135          1           0       -9.540579    0.711143    4.605229
    136          1           0      -11.195332    1.025706    4.809943
    137          1           0       -9.968271    2.375678    4.987373
    138          1           0       -9.771561    2.901136    1.401624
    139          1           0       -8.836062    1.479375    1.814512
    140          1           0       -8.783899    2.868091    2.801816
 ---------------------------------------------------------------------

 SCF Done:  E(RPBE1PBE) =  -3005.35733640     A.U. after   15 cycles

 Excitation energies and oscillator strengths:

 Excited State   1:      Singlet-A      1.8774 eV  660.40 nm  f=0.3348  <S**2>=0.000
     245 -> 248       -0.19111
     246 -> 247        0.68714
 This state for optimization and/or second-order correction.
 Total Energy, E(TD-HF/TD-DFT) =  -3005.28834243
 Copying the excited state density for this state as the 1-particle RhoCI density.

 Excited State   2:      Singlet-A      2.2352 eV  554.70 nm  f=0.1049  <S**2>=0.000
     245 -> 247        0.64462
     246 -> 248        0.28110

 Excited State   3:      Singlet-A      3.1177 eV  397.68 nm  f=0.0061  <S**2>=0.000
     242 -> 247       -0.12781
     244 -> 247        0.65432
     246 -> 248       -0.19729

 Excited State   4:      Singlet-A      3.1530 eV  393.23 nm  f=0.0004  <S**2>=0.000
     242 -> 247        0.64812
     242 -> 249       -0.16910
     242 -> 250       -0.12730
     244 -> 247        0.14928

 Excited State   5:      Singlet-A      3.2133 eV  385.85 nm  f=0.0125  <S**2>=0.000
     240 -> 247       -0.11206
     241 -> 247        0.64312
     241 -> 249        0.19107
     246 -> 248       -0.11110

 The electronic state is 1-A.
 Alpha  occ. eigenvalues --  -46.92154 -19.27291 -19.26516 -19.20893 -19.19987
 Alpha  occ. eigenvalues --  -19.19382 -19.18804 -14.41403 -14.40700 -14.39437
 Alpha  occ. eigenvalues --  -14.38791 -10.36976 -10.36948 -10.32588 -10.32476
 Alpha  occ. eigenvalues --  -10.29698 -10.29201 -10.28881 -10.28511 -10.27997
 Alpha  occ. eigenvalues --  -10.27828 -10.27613 -10.27363 -10.27252 -10.26999
 Alpha  occ. eigenvalues --  -10.25926 -10.25827 -10.25742 -10.25524 -10.25506
 Alpha  occ. eigenvalues --  -10.25435 -10.25432 -10.25402 -10.25330 -10.25190
 Alpha  occ. eigenvalues --  -10.25185 -10.25010 -10.24768 -10.24737 -10.24630
 Alpha  occ. eigenvalues --  -10.24346 -10.24271 -10.24058 -10.23636 -10.23568
 Alpha  occ. eigenvalues --  -10.23552 -10.23529 -10.23498 -10.23210 -10.23191
 Alpha  occ. eigenvalues --  -10.23172 -10.23032 -10.22922 -10.22887 -10.22724
 Alpha  occ. eigenvalues --  -10.22707 -10.22647 -10.22595 -10.22454 -10.22351
 Alpha  occ. eigenvalues --  -10.22303 -10.22126 -10.21999 -10.21935 -10.21249
 Alpha  occ. eigenvalues --  -10.21086  -3.14472  -1.87267  -1.86861  -1.86711
 Alpha  occ. eigenvalues --   -1.12301  -1.11651  -1.04171  -1.03730  -1.03384
 Alpha  occ. eigenvalues --   -1.02579  -1.00397  -0.98161  -0.97430  -0.96937
 Alpha  occ. eigenvalues --   -0.86157  -0.84593  -0.84323  -0.83535  -0.82988
 Alpha  occ. eigenvalues --   -0.82510  -0.82079  -0.81918  -0.81844  -0.80835
 Alpha  occ. eigenvalues --   -0.80739  -0.79982  -0.78677  -0.77732  -0.77229
 Alpha  occ. eigenvalues --   -0.76792  -0.76063  -0.75550  -0.75186  -0.74895
 Alpha  occ. eigenvalues --   -0.74025  -0.72602  -0.72130  -0.71234  -0.70536
 Alpha  occ. eigenvalues --   -0.69998  -0.69707  -0.69355  -0.69280  -0.68743
 Alpha  occ. eigenvalues --   -0.67682  -0.67016  -0.65648  -0.64865  -0.64420
 Alpha  occ. eigenvalues --   -0.63067  -0.62505  -0.61397  -0.61031  -0.60113
 Alpha  occ. eigenvalues --   -0.59794  -0.59588  -0.59412  -0.59165  -0.58806
 Alpha  occ. eigenvalues --   -0.58194  -0.57572  -0.57167  -0.56855  -0.54831
 Alpha  occ. eigenvalues --   -0.54639  -0.54196  -0.53538  -0.52819  -0.52682
 Alpha  occ. eigenvalues --   -0.52194  -0.51965  -0.50937  -0.50704  -0.50203
 Alpha  occ. eigenvalues --   -0.49625  -0.49588  -0.49330  -0.49081  -0.48626
 Alpha  occ. eigenvalues --   -0.48273  -0.47991  -0.47617  -0.47379  -0.47288
 Alpha  occ. eigenvalues --   -0.47087  -0.46909  -0.46617  -0.46380  -0.46067
 Alpha  occ. eigenvalues --   -0.45983  -0.45606  -0.45452  -0.45402  -0.45126
 Alpha  occ. eigenvalues --   -0.45007  -0.44883  -0.44542  -0.44409  -0.44350
 Alpha  occ. eigenvalues --   -0.44121  -0.43835  -0.43799  -0.43446  -0.43345
 Alpha  occ. eigenvalues --   -0.43154  -0.42953  -0.42775  -0.42605  -0.42287
 Alpha  occ. eigenvalues --   -0.41943  -0.41812  -0.41628  -0.41507  -0.41210
 Alpha  occ. eigenvalues --   -0.41026  -0.40850  -0.40450  -0.40393  -0.40293
 Alpha  occ. eigenvalues --   -0.40238  -0.40066  -0.39873  -0.39806  -0.39578
 Alpha  occ. eigenvalues --   -0.39412  -0.39072  -0.39001  -0.38712  -0.38577
 Alpha  occ. eigenvalues --   -0.38546  -0.38334  -0.38225  -0.37987  -0.37951
 Alpha  occ. eigenvalues --   -0.37825  -0.37696  -0.37559  -0.37335  -0.37215
 Alpha  occ. eigenvalues --   -0.36887  -0.36605  -0.36386  -0.36193  -0.36130
 Alpha  occ. eigenvalues --   -0.35873  -0.35694  -0.35608  -0.35256  -0.35214
 Alpha  occ. eigenvalues --   -0.34868  -0.34680  -0.33831  -0.33626  -0.33392
 Alpha  occ. eigenvalues --   -0.33290  -0.33107  -0.32832  -0.32700  -0.32644
 Alpha  occ. eigenvalues --   -0.32228  -0.32213  -0.31998  -0.31539  -0.31137
 Alpha  occ. eigenvalues --   -0.31041  -0.30871  -0.30156  -0.29578  -0.29079
 Alpha  occ. eigenvalues --   -0.28933  -0.28876  -0.28078  -0.26627  -0.26050
 Alpha  occ. eigenvalues --   -0.25748  -0.25579  -0.25387  -0.25086  -0.20471
 Alpha  occ. eigenvalues --   -0.18410
 Alpha virt. eigenvalues --   -0.10580  -0.05109  -0.03859  -0.01956  -0.00931
 Alpha virt. eigenvalues --   -0.00673   0.00121   0.01501   0.01644   0.03482
 Alpha virt. eigenvalues --    0.03592   0.04565   0.04721   0.05422   0.05781

 Mulliken charges:
               1
     1  Mg   1.013355
     2  C   -0.031362
     3  C   -0.078661
     4  C   -0.079019
     5  C   -0.063094
     6  N   -0.317882
     7  C   -0.006864
     8  C   -0.098252
     9  C   -0.130030
    10  C    0.029057
    11  C    0.019400
    12  C    0.000084
    13  C   -0.002945
    14  C    0.215834
    15  O   -0.253858
    16  O   -0.377698
    17  N   -0.463370
    18  C    0.217106
    19  C   -0.159207
    20  C   -0.083568
    21  C    0.157528
    22  C    0.045481
    23  C    0.056326
    24  O   -0.267848
    25  C    0.004441
    26  N   -0.386262
    27  C    0.077566
    28  C   -0.154128
    29  C   -0.045114
    30  C    0.061896
    31  C    0.010580
    32  C   -0.049675
    33  C   -0.074669
    34  N   -0.557088
    35  C    0.142494
    36  C   -0.188517
    37  C   -0.042941
    38  C    0.175490
    39  C    0.070643
    40  C    0.149835
    41  O   -0.212179
    42  C   -0.118867
    43  C    0.301547
    44  O   -0.269459
    45  O   -0.324511
    46  C    0.120939
    47  C    0.259694
    48  C   -0.128914
    49  C   -0.207418
    50  C   -0.017819
    51  C   -0.024930
    52  C   -0.054143
    53  C    0.022471
    54  C   -0.198561
    55  C   -0.010837
    56  C    0.010597
    57  C   -0.090080
    58  C    0.017628
    59  C   -0.237548
    60  C    0.002575
    61  C   -0.013658
    62  C   -0.053549
    63  C    0.030825
    64  C   -0.221293
    65  C   -0.033590
    66  C   -0.011331
    67  H   -0.003581
    68  H    0.031805
    69  H    0.002836
    70  H    0.055608
    71  H    0.038967
    72  H    0.060577
    73  H    0.041900
    74  H    0.040958
    75  H    0.045241
    76  H    0.051468
    77  H    0.076393
    78  H    0.067965
    79  H    0.042440
    80  H    0.052530
    81  H    0.034914
    82  H    0.066801
    83  H    0.064104
    84  H    0.050604
    85  H    0.046531
    86  H    0.045521
    87  H    0.053859
    88  H    0.046315
    89  H    0.045626
    90  H    0.037901
    91  H    0.038895
    92  H    0.050513
    93  H    0.041482
    94  H    0.044513
    95  H    0.061276
    96  H    0.060495
    97  H    0.034558
    98  H    0.078643
    99  H    0.064993
   100  H    0.051355
   101  H    0.062722
   102  H    0.053682
   103  H    0.055566
   104  H    0.028538
   105  H    0.063259
   106  H    0.076197
   107  H    0.044076
   108  H    0.029431
   109  H    0.032433
   110  H    0.030163
   111  H    0.024588
   112  H    0.021127
   113  H    0.020692
   114  H    0.028926
   115  H    0.042495
   116  H    0.027324
   117  H    0.040530
   118  H    0.026227
   119  H    0.014593
   120  H    0.024695
   121  H    0.046240
   122  H    0.022273
   123  H    0.024451
   124  H    0.035877
   125  H    0.025745
   126  H    0.025801
   127  H    0.026432
   128  H    0.023515
   129  H    0.010379
   130  H    0.034665
   131  H    0.029004
   132  H    0.026496
   133  H    0.028718
   134  H    0.030311
   135  H    0.032746
   136  H    0.029984
   137  H    0.042564
   138  H    0.022843
   139  H    0.018755
   140  H    0.019273
 Sum of Mulliken charges =  -0.00000

 Dipole moment (field-independent basis, Debye):
    X=             -2.6099    Y=              4.3207    Z=              1.0167  Tot=              5.1492
 Quadrupole moment (field-independent basis, Debye-Ang):
   XX=           -375.7597   YY=           -407.2884   ZZ=           -412.1355
   XY=             -2.7533   XZ=             26.4671   YZ=              6.1559

 Normal termination of Gaussian 16 at Thu May  5 02:44:23 2022.
