 Gaussian 16, Revision A.03,
 Gaussian 16:  ES64L-G16RevA.03 25-Dec-2016

 --------------------------------
 #p wB97XD/Def2SVP td=(nstates=5)
 --------------------------------

 ---------------------------------------------------
 step_51_chromophore_25 TDDFT with wB97XD functional
 ---------------------------------------------------
 Symbolic Z-matrix:
 Charge =  0 Multiplicity = 1

                         Standard orientation:
 ---------------------------------------------------------------------
 Center     Atomic      Atomic             Coordinates (Angstroms)
 Number     Number       Type             X           Y           Z
 ---------------------------------------------------------------------
      1         12           0        5.978547    0.322107    0.352572
      2          6           0        3.407136   -2.122212    0.190795
      3          6           0        3.416324    2.724045   -0.200990
      4          6           0        8.320705    2.714121   -0.351837
      5          6           0        8.336509   -2.046287    0.453618
      6          7           0        3.571852    0.280338   -0.143812
      7          6           0        2.829473   -0.866170    0.050919
      8          6           0        1.359679   -0.494414    0.073908
      9          6           0        1.364133    1.067645   -0.078064
     10          6           0        2.848953    1.399674   -0.141771
     11          6           0        0.453214    1.624696   -1.170779
     12          6           0        0.663616   -0.996768    1.407464
     13          6           0       -0.360929   -2.152830    1.227256
     14          6           0       -1.775855   -1.831668    1.664456
     15          8           0       -2.183230   -1.968142    2.805811
     16          8           0       -2.571359   -1.532960    0.561148
     17          7           0        5.879821    2.471578   -0.065607
     18          6           0        4.740974    3.192000   -0.280809
     19          6           0        5.134724    4.545881   -0.458701
     20          6           0        6.505313    4.587459   -0.679962
     21          6           0        6.989942    3.202146   -0.452140
     22          6           0        4.183301    5.715110   -0.397727
     23          6           0        7.398544    5.779075   -1.054034
     24          8           0        8.591534    5.501517   -1.293646
     25          6           0        6.912041    7.198234   -1.130925
     26          7           0        7.988844    0.419359    0.086590
     27          6           0        8.756974    1.443456   -0.104747
     28          6           0       10.270881    1.132850   -0.248685
     29          6           0       10.288331   -0.370234    0.229743
     30          6           0        8.772364   -0.671785    0.230984
     31          6           0       10.737999    1.281186   -1.752242
     32          6           0       11.067260   -0.684826    1.600416
     33          6           0       10.387574   -0.747083    3.054958
     34          7           0        5.932042   -1.607354    0.307168
     35          6           0        6.962015   -2.540371    0.474847
     36          6           0        6.471110   -3.907568    0.538053
     37          6           0        5.093697   -3.802974    0.370088
     38          6           0        4.820312   -2.402388    0.255658
     39          6           0        7.318825   -5.075052    0.673656
     40          6           0        3.877035   -4.570650    0.191004
     41          8           0        3.730916   -5.788087    0.123945
     42          6           0        2.715869   -3.477491    0.049934
     43          6           0        1.850658   -3.688020   -1.184179
     44          8           0        2.142629   -3.158125   -2.267288
     45          8           0        0.855660   -4.522199   -0.882965
     46          6           0       -0.208241   -4.719450   -1.859383
     47          6           0       -3.885231   -1.044525    0.885132
     48          6           0       -4.716686   -1.011263   -0.313248
     49          6           0       -5.814908   -0.276945   -0.515240
     50          6           0       -6.499168    0.839890    0.421511
     51          6           0       -6.686010   -0.485562   -1.773594
     52          6           0       -7.797923   -1.537506   -1.534859
     53          6           0       -8.982012   -1.483542   -2.594552
     54          6           0      -10.430510   -1.023527   -2.136882
     55          6           0      -11.502825   -2.127432   -2.218162
     56          6           0      -10.978587    0.193646   -2.868540
     57          6           0      -11.693348    1.171856   -1.870751
     58          6           0      -13.243943    1.133326   -1.694196
     59          6           0      -13.505145    0.859457   -0.223642
     60          6           0      -14.817445    0.136612   -0.017552
     61          6           0      -13.480273    2.155984    0.599832
     62          6           0      -13.140303    1.937870    2.142045
     63          6           0      -11.942534    2.668092    2.710204
     64          6           0      -10.647882    1.772662    2.951089
     65          6           0      -10.283848    1.490650    4.435717
     66          6           0       -9.479276    2.254922    2.229704
     67          1           0        2.605278    3.448616   -0.096951
     68          1           0        9.089465    3.484135   -0.442043
     69          1           0        9.127892   -2.751849    0.714335
     70          1           0        0.915762   -0.900686   -0.834565
     71          1           0        0.945826    1.498460    0.831080
     72          1           0        0.932341    1.517408   -2.144144
     73          1           0        0.095260    2.610912   -0.875041
     74          1           0       -0.431405    0.989566   -1.135793
     75          1           0        0.112446   -0.185596    1.882961
     76          1           0        1.475589   -1.182137    2.110944
     77          1           0       -0.002081   -2.995453    1.818030
     78          1           0       -0.379814   -2.324700    0.151558
     79          1           0        4.218362    6.342077   -1.289013
     80          1           0        4.416870    6.385205    0.429253
     81          1           0        3.114507    5.524936   -0.302323
     82          1           0        6.427443    7.416838   -0.178721
     83          1           0        6.270233    7.284049   -2.008025
     84          1           0        7.673947    7.928525   -1.401714
     85          1           0       10.842035    1.844403    0.347307
     86          1           0       10.865222   -0.883506   -0.538355
     87          1           0       11.676540    1.835972   -1.771191
     88          1           0       10.029866    1.920684   -2.278280
     89          1           0       10.649903    0.371262   -2.346705
     90          1           0       11.907878    0.008222    1.592736
     91          1           0       11.543103   -1.658595    1.479598
     92          1           0       10.784696   -0.082104    3.822194
     93          1           0       10.351027   -1.758702    3.460066
     94          1           0        9.329405   -0.503101    2.955257
     95          1           0        7.655527   -5.461399   -0.288301
     96          1           0        6.771792   -5.865826    1.187524
     97          1           0        8.238732   -4.823181    1.201405
     98          1           0        2.181203   -3.600321    0.991875
     99          1           0        0.107584   -4.885459   -2.889892
    100          1           0       -0.887934   -3.868013   -1.881915
    101          1           0       -0.830794   -5.587716   -1.641962
    102          1           0       -3.970769   -0.157249    1.511960
    103          1           0       -4.392105   -1.863969    1.394075
    104          1           0       -4.380386   -1.720814   -1.069050
    105          1           0       -7.562676    0.629390    0.313872
    106          1           0       -6.179711    1.841010    0.130600
    107          1           0       -6.338367    0.607375    1.474103
    108          1           0       -6.170786   -0.860693   -2.658667
    109          1           0       -7.081849    0.463753   -2.135219
    110          1           0       -8.169102   -1.595254   -0.511390
    111          1           0       -7.232432   -2.464919   -1.619725
    112          1           0       -9.026872   -2.472122   -3.052268
    113          1           0       -8.671064   -0.847827   -3.423199
    114          1           0      -10.335130   -0.751431   -1.086267
    115          1           0      -12.523976   -1.747088   -2.238057
    116          1           0      -11.347512   -2.657754   -1.278270
    117          1           0      -11.325520   -2.830080   -3.032837
    118          1           0      -11.683040    0.059393   -3.689854
    119          1           0      -10.137358    0.712890   -3.327882
    120          1           0      -11.561341    2.126672   -2.377955
    121          1           0      -11.224474    1.168033   -0.887365
    122          1           0      -13.721257    0.397438   -2.341519
    123          1           0      -13.666818    2.118354   -1.890874
    124          1           0      -12.718237    0.167057    0.076657
    125          1           0      -14.699905   -0.916129   -0.274592
    126          1           0      -15.646667    0.472146   -0.640026
    127          1           0      -15.184939    0.205428    1.006793
    128          1           0      -14.355873    2.798117    0.502673
    129          1           0      -12.781806    2.821537    0.092173
    130          1           0      -13.036937    0.870179    2.336050
    131          1           0      -14.067660    2.204421    2.648685
    132          1           0      -12.326824    3.062358    3.650606
    133          1           0      -11.625143    3.489218    2.066097
    134          1           0      -10.756735    0.763702    2.552942
    135          1           0       -9.540579    0.711143    4.605229
    136          1           0      -11.195332    1.025706    4.809943
    137          1           0       -9.968271    2.375678    4.987373
    138          1           0       -9.771561    2.901136    1.401624
    139          1           0       -8.836062    1.479375    1.814512
    140          1           0       -8.783899    2.868091    2.801816
 ---------------------------------------------------------------------

 SCF Done:  E(RwB97XD) =  -3007.87049348     A.U. after   19 cycles

 Excitation energies and oscillator strengths:

 Excited State   1:      Singlet-A      1.7089 eV  725.54 nm  f=0.3484  <S**2>=0.000
     245 -> 248        0.19881
     246 -> 247        0.67956
     245 <- 248        0.11733
 This state for optimization and/or second-order correction.
 Total Energy, E(TD-HF/TD-DFT) =  -3007.80769409
 Copying the excited state density for this state as the 1-particle RhoCI density.

 Excited State   2:      Singlet-A      2.1828 eV  568.00 nm  f=0.0999  <S**2>=0.000
     245 -> 247        0.62851
     246 -> 248       -0.30886

 Excited State   3:      Singlet-A      3.3799 eV  366.83 nm  f=0.1760  <S**2>=0.000
     242 -> 247        0.16273
     244 -> 247        0.51525
     245 -> 247        0.13473
     246 -> 248        0.40087

 Excited State   4:      Singlet-A      3.5777 eV  346.54 nm  f=0.6446  <S**2>=0.000
     240 -> 247       -0.12949
     244 -> 247       -0.41052
     245 -> 247        0.27335
     246 -> 248        0.46099

 Excited State   5:      Singlet-A      3.6271 eV  341.83 nm  f=0.0432  <S**2>=0.000
     239 -> 247        0.21970
     239 -> 249        0.16116
     239 -> 250        0.12763
     240 -> 247        0.44177
     240 -> 248        0.10586
     240 -> 249        0.29730
     240 -> 250        0.23781
     246 -> 248        0.11191

 The electronic state is 1-A.
 Alpha  occ. eigenvalues --  -46.95049 -19.31827 -19.31068 -19.25574 -19.24634
 Alpha  occ. eigenvalues --  -19.23949 -19.23870 -14.46390 -14.45869 -14.44215
 Alpha  occ. eigenvalues --  -14.43829 -10.43778 -10.43730 -10.39664 -10.39136
 Alpha  occ. eigenvalues --  -10.36186 -10.35687 -10.35101 -10.34884 -10.34548
 Alpha  occ. eigenvalues --  -10.34106 -10.34016 -10.33884 -10.33490 -10.32992
 Alpha  occ. eigenvalues --  -10.32417 -10.32235 -10.31968 -10.31946 -10.31847
 Alpha  occ. eigenvalues --  -10.31772 -10.31696 -10.31668 -10.31631 -10.31611
 Alpha  occ. eigenvalues --  -10.31359 -10.31354 -10.31215 -10.31209 -10.31062
 Alpha  occ. eigenvalues --  -10.30936 -10.30860 -10.30820 -10.30117 -10.29975
 Alpha  occ. eigenvalues --  -10.29897 -10.29882 -10.29856 -10.29554 -10.29502
 Alpha  occ. eigenvalues --  -10.29490 -10.29410 -10.29081 -10.29065 -10.29030
 Alpha  occ. eigenvalues --  -10.29015 -10.28975 -10.28899 -10.28825 -10.28715
 Alpha  occ. eigenvalues --  -10.28658 -10.28501 -10.28436 -10.28381 -10.27705
 Alpha  occ. eigenvalues --  -10.27543  -3.21241  -1.94785  -1.94377  -1.94221
 Alpha  occ. eigenvalues --   -1.19651  -1.19021  -1.11434  -1.11131  -1.11067
 Alpha  occ. eigenvalues --   -1.09903  -1.07706  -1.05569  -1.04827  -1.04308
 Alpha  occ. eigenvalues --   -0.93651  -0.92271  -0.91995  -0.91184  -0.90654
 Alpha  occ. eigenvalues --   -0.90233  -0.89737  -0.89479  -0.89311  -0.88624
 Alpha  occ. eigenvalues --   -0.88350  -0.87645  -0.86361  -0.85322  -0.84898
 Alpha  occ. eigenvalues --   -0.84527  -0.83900  -0.83149  -0.82791  -0.82520
 Alpha  occ. eigenvalues --   -0.81693  -0.80187  -0.79972  -0.78785  -0.78101
 Alpha  occ. eigenvalues --   -0.77702  -0.77397  -0.77047  -0.76878  -0.76414
 Alpha  occ. eigenvalues --   -0.75282  -0.74477  -0.73201  -0.72480  -0.71917
 Alpha  occ. eigenvalues --   -0.70599  -0.70142  -0.69017  -0.68672  -0.67585
 Alpha  occ. eigenvalues --   -0.67217  -0.67205  -0.66939  -0.66659  -0.66247
 Alpha  occ. eigenvalues --   -0.65901  -0.65234  -0.64800  -0.64179  -0.62355
 Alpha  occ. eigenvalues --   -0.62231  -0.61568  -0.60953  -0.60222  -0.60027
 Alpha  occ. eigenvalues --   -0.59621  -0.59379  -0.58428  -0.58140  -0.57603
 Alpha  occ. eigenvalues --   -0.57048  -0.56924  -0.56678  -0.56475  -0.55969
 Alpha  occ. eigenvalues --   -0.55737  -0.55463  -0.55063  -0.54923  -0.54800
 Alpha  occ. eigenvalues --   -0.54516  -0.54334  -0.53974  -0.53759  -0.53432
 Alpha  occ. eigenvalues --   -0.53228  -0.52936  -0.52832  -0.52737  -0.52672
 Alpha  occ. eigenvalues --   -0.52451  -0.52092  -0.51855  -0.51766  -0.51678
 Alpha  occ. eigenvalues --   -0.51459  -0.51174  -0.51068  -0.50767  -0.50657
 Alpha  occ. eigenvalues --   -0.50355  -0.50281  -0.50121  -0.49919  -0.49561
 Alpha  occ. eigenvalues --   -0.49299  -0.49100  -0.48863  -0.48673  -0.48509
 Alpha  occ. eigenvalues --   -0.48362  -0.48131  -0.47649  -0.47565  -0.47528
 Alpha  occ. eigenvalues --   -0.47414  -0.47117  -0.47054  -0.46976  -0.46699
 Alpha  occ. eigenvalues --   -0.46580  -0.46299  -0.46021  -0.45790  -0.45749
 Alpha  occ. eigenvalues --   -0.45645  -0.45513  -0.45354  -0.45135  -0.45087
 Alpha  occ. eigenvalues --   -0.45005  -0.44895  -0.44709  -0.44406  -0.44290
 Alpha  occ. eigenvalues --   -0.43981  -0.43731  -0.43621  -0.43341  -0.43227
 Alpha  occ. eigenvalues --   -0.42986  -0.42683  -0.42536  -0.42374  -0.42123
 Alpha  occ. eigenvalues --   -0.41778  -0.41743  -0.40801  -0.40697  -0.40380
 Alpha  occ. eigenvalues --   -0.40222  -0.40158  -0.39868  -0.39671  -0.39638
 Alpha  occ. eigenvalues --   -0.39233  -0.39221  -0.39017  -0.38508  -0.38201
 Alpha  occ. eigenvalues --   -0.37901  -0.37829  -0.37067  -0.36640  -0.36165
 Alpha  occ. eigenvalues --   -0.35861  -0.35842  -0.34720  -0.33248  -0.32956
 Alpha  occ. eigenvalues --   -0.32653  -0.32339  -0.32141  -0.31839  -0.25458
 Alpha  occ. eigenvalues --   -0.22616
 Alpha virt. eigenvalues --   -0.06373   0.00290   0.02443   0.04524   0.05045
 Alpha virt. eigenvalues --    0.06177   0.06927   0.08174   0.08418   0.10024
 Alpha virt. eigenvalues --    0.10161   0.11162   0.11452   0.12106   0.12505

 Mulliken charges:
               1
     1  Mg   1.002744
     2  C   -0.031018
     3  C   -0.096062
     4  C   -0.101718
     5  C   -0.077866
     6  N   -0.280724
     7  C   -0.037702
     8  C   -0.070699
     9  C   -0.104173
    10  C    0.009785
    11  C    0.029928
    12  C    0.008354
    13  C    0.026485
    14  C    0.204305
    15  O   -0.251168
    16  O   -0.376157
    17  N   -0.436622
    18  C    0.217623
    19  C   -0.145363
    20  C   -0.073860
    21  C    0.150599
    22  C    0.054518
    23  C    0.052273
    24  O   -0.261013
    25  C    0.014273
    26  N   -0.350045
    27  C    0.072475
    28  C   -0.133434
    29  C   -0.023107
    30  C    0.048659
    31  C    0.019893
    32  C   -0.038681
    33  C   -0.054029
    34  N   -0.522725
    35  C    0.133039
    36  C   -0.183553
    37  C   -0.041010
    38  C    0.157448
    39  C    0.080319
    40  C    0.129574
    41  O   -0.204040
    42  C   -0.081184
    43  C    0.277876
    44  O   -0.263023
    45  O   -0.321429
    46  C    0.135439
    47  C    0.269996
    48  C   -0.135595
    49  C   -0.197430
    50  C    0.003814
    51  C   -0.004780
    52  C   -0.038046
    53  C    0.034035
    54  C   -0.166367
    55  C    0.004289
    56  C    0.025878
    57  C   -0.067540
    58  C    0.025946
    59  C   -0.192060
    60  C    0.012319
    61  C   -0.004227
    62  C   -0.035704
    63  C    0.044824
    64  C   -0.191795
    65  C   -0.020658
    66  C    0.009257
    67  H   -0.012438
    68  H    0.027517
    69  H   -0.004139
    70  H    0.041997
    71  H    0.028045
    72  H    0.055880
    73  H    0.037064
    74  H    0.035339
    75  H    0.036317
    76  H    0.044251
    77  H    0.072274
    78  H    0.048655
    79  H    0.037376
    80  H    0.048641
    81  H    0.033294
    82  H    0.061645
    83  H    0.059702
    84  H    0.050972
    85  H    0.038959
    86  H    0.035512
    87  H    0.049486
    88  H    0.038447
    89  H    0.041070
    90  H    0.029227
    91  H    0.031454
    92  H    0.045321
    93  H    0.036014
    94  H    0.032889
    95  H    0.055293
    96  H    0.055582
    97  H    0.027101
    98  H    0.066157
    99  H    0.061611
   100  H    0.047470
   101  H    0.059535
   102  H    0.049220
   103  H    0.049449
   104  H    0.026847
   105  H    0.049466
   106  H    0.072076
   107  H    0.038151
   108  H    0.022529
   109  H    0.022686
   110  H    0.021562
   111  H    0.015802
   112  H    0.013844
   113  H    0.011067
   114  H    0.011920
   115  H    0.031979
   116  H    0.021188
   117  H    0.034804
   118  H    0.018061
   119  H    0.005314
   120  H    0.017113
   121  H    0.030616
   122  H    0.014063
   123  H    0.015571
   124  H    0.016425
   125  H    0.019705
   126  H    0.019682
   127  H    0.020138
   128  H    0.016594
   129  H   -0.001751
   130  H    0.023192
   131  H    0.022271
   132  H    0.019921
   133  H    0.019410
   134  H    0.017620
   135  H    0.027514
   136  H    0.022415
   137  H    0.036513
   138  H    0.014961
   139  H    0.004317
   140  H    0.012869
 Sum of Mulliken charges =  -0.00000

 Dipole moment (field-independent basis, Debye):
    X=             -2.7794    Y=              5.1564    Z=              0.9082  Tot=              5.9277
 Quadrupole moment (field-independent basis, Debye-Ang):
   XX=           -377.7862   YY=           -404.8706   ZZ=           -411.8651
   XY=              2.4550   XZ=             25.8621   YZ=              5.9776

 Normal termination of Gaussian 16 at Thu May  5 03:37:49 2022.
