 Gaussian 16, Revision A.03,
 Gaussian 16:  ES64L-G16RevA.03 25-Dec-2016

 --------------------
 #p ZINDO=(nstates=5)
 --------------------

 ----------------------------
 step_51_chromophore_25 ZINDO
 ----------------------------
 Symbolic Z-matrix:
 Charge =  0 Multiplicity = 1

                         Standard orientation:
 ---------------------------------------------------------------------
 Center     Atomic      Atomic             Coordinates (Angstroms)
 Number     Number       Type             X           Y           Z
 ---------------------------------------------------------------------
      1         12           0        5.978547    0.322107    0.352572
      2          6           0        3.407136   -2.122212    0.190795
      3          6           0        3.416324    2.724045   -0.200990
      4          6           0        8.320705    2.714121   -0.351837
      5          6           0        8.336509   -2.046287    0.453618
      6          7           0        3.571852    0.280338   -0.143812
      7          6           0        2.829473   -0.866170    0.050919
      8          6           0        1.359679   -0.494414    0.073908
      9          6           0        1.364133    1.067645   -0.078064
     10          6           0        2.848953    1.399674   -0.141771
     11          6           0        0.453214    1.624696   -1.170779
     12          6           0        0.663616   -0.996768    1.407464
     13          6           0       -0.360929   -2.152830    1.227256
     14          6           0       -1.775855   -1.831668    1.664456
     15          8           0       -2.183230   -1.968142    2.805811
     16          8           0       -2.571359   -1.532960    0.561148
     17          7           0        5.879821    2.471578   -0.065607
     18          6           0        4.740974    3.192000   -0.280809
     19          6           0        5.134724    4.545881   -0.458701
     20          6           0        6.505313    4.587459   -0.679962
     21          6           0        6.989942    3.202146   -0.452140
     22          6           0        4.183301    5.715110   -0.397727
     23          6           0        7.398544    5.779075   -1.054034
     24          8           0        8.591534    5.501517   -1.293646
     25          6           0        6.912041    7.198234   -1.130925
     26          7           0        7.988844    0.419359    0.086590
     27          6           0        8.756974    1.443456   -0.104747
     28          6           0       10.270881    1.132850   -0.248685
     29          6           0       10.288331   -0.370234    0.229743
     30          6           0        8.772364   -0.671785    0.230984
     31          6           0       10.737999    1.281186   -1.752242
     32          6           0       11.067260   -0.684826    1.600416
     33          6           0       10.387574   -0.747083    3.054958
     34          7           0        5.932042   -1.607354    0.307168
     35          6           0        6.962015   -2.540371    0.474847
     36          6           0        6.471110   -3.907568    0.538053
     37          6           0        5.093697   -3.802974    0.370088
     38          6           0        4.820312   -2.402388    0.255658
     39          6           0        7.318825   -5.075052    0.673656
     40          6           0        3.877035   -4.570650    0.191004
     41          8           0        3.730916   -5.788087    0.123945
     42          6           0        2.715869   -3.477491    0.049934
     43          6           0        1.850658   -3.688020   -1.184179
     44          8           0        2.142629   -3.158125   -2.267288
     45          8           0        0.855660   -4.522199   -0.882965
     46          6           0       -0.208241   -4.719450   -1.859383
     47          6           0       -3.885231   -1.044525    0.885132
     48          6           0       -4.716686   -1.011263   -0.313248
     49          6           0       -5.814908   -0.276945   -0.515240
     50          6           0       -6.499168    0.839890    0.421511
     51          6           0       -6.686010   -0.485562   -1.773594
     52          6           0       -7.797923   -1.537506   -1.534859
     53          6           0       -8.982012   -1.483542   -2.594552
     54          6           0      -10.430510   -1.023527   -2.136882
     55          6           0      -11.502825   -2.127432   -2.218162
     56          6           0      -10.978587    0.193646   -2.868540
     57          6           0      -11.693348    1.171856   -1.870751
     58          6           0      -13.243943    1.133326   -1.694196
     59          6           0      -13.505145    0.859457   -0.223642
     60          6           0      -14.817445    0.136612   -0.017552
     61          6           0      -13.480273    2.155984    0.599832
     62          6           0      -13.140303    1.937870    2.142045
     63          6           0      -11.942534    2.668092    2.710204
     64          6           0      -10.647882    1.772662    2.951089
     65          6           0      -10.283848    1.490650    4.435717
     66          6           0       -9.479276    2.254922    2.229704
     67          1           0        2.605278    3.448616   -0.096951
     68          1           0        9.089465    3.484135   -0.442043
     69          1           0        9.127892   -2.751849    0.714335
     70          1           0        0.915762   -0.900686   -0.834565
     71          1           0        0.945826    1.498460    0.831080
     72          1           0        0.932341    1.517408   -2.144144
     73          1           0        0.095260    2.610912   -0.875041
     74          1           0       -0.431405    0.989566   -1.135793
     75          1           0        0.112446   -0.185596    1.882961
     76          1           0        1.475589   -1.182137    2.110944
     77          1           0       -0.002081   -2.995453    1.818030
     78          1           0       -0.379814   -2.324700    0.151558
     79          1           0        4.218362    6.342077   -1.289013
     80          1           0        4.416870    6.385205    0.429253
     81          1           0        3.114507    5.524936   -0.302323
     82          1           0        6.427443    7.416838   -0.178721
     83          1           0        6.270233    7.284049   -2.008025
     84          1           0        7.673947    7.928525   -1.401714
     85          1           0       10.842035    1.844403    0.347307
     86          1           0       10.865222   -0.883506   -0.538355
     87          1           0       11.676540    1.835972   -1.771191
     88          1           0       10.029866    1.920684   -2.278280
     89          1           0       10.649903    0.371262   -2.346705
     90          1           0       11.907878    0.008222    1.592736
     91          1           0       11.543103   -1.658595    1.479598
     92          1           0       10.784696   -0.082104    3.822194
     93          1           0       10.351027   -1.758702    3.460066
     94          1           0        9.329405   -0.503101    2.955257
     95          1           0        7.655527   -5.461399   -0.288301
     96          1           0        6.771792   -5.865826    1.187524
     97          1           0        8.238732   -4.823181    1.201405
     98          1           0        2.181203   -3.600321    0.991875
     99          1           0        0.107584   -4.885459   -2.889892
    100          1           0       -0.887934   -3.868013   -1.881915
    101          1           0       -0.830794   -5.587716   -1.641962
    102          1           0       -3.970769   -0.157249    1.511960
    103          1           0       -4.392105   -1.863969    1.394075
    104          1           0       -4.380386   -1.720814   -1.069050
    105          1           0       -7.562676    0.629390    0.313872
    106          1           0       -6.179711    1.841010    0.130600
    107          1           0       -6.338367    0.607375    1.474103
    108          1           0       -6.170786   -0.860693   -2.658667
    109          1           0       -7.081849    0.463753   -2.135219
    110          1           0       -8.169102   -1.595254   -0.511390
    111          1           0       -7.232432   -2.464919   -1.619725
    112          1           0       -9.026872   -2.472122   -3.052268
    113          1           0       -8.671064   -0.847827   -3.423199
    114          1           0      -10.335130   -0.751431   -1.086267
    115          1           0      -12.523976   -1.747088   -2.238057
    116          1           0      -11.347512   -2.657754   -1.278270
    117          1           0      -11.325520   -2.830080   -3.032837
    118          1           0      -11.683040    0.059393   -3.689854
    119          1           0      -10.137358    0.712890   -3.327882
    120          1           0      -11.561341    2.126672   -2.377955
    121          1           0      -11.224474    1.168033   -0.887365
    122          1           0      -13.721257    0.397438   -2.341519
    123          1           0      -13.666818    2.118354   -1.890874
    124          1           0      -12.718237    0.167057    0.076657
    125          1           0      -14.699905   -0.916129   -0.274592
    126          1           0      -15.646667    0.472146   -0.640026
    127          1           0      -15.184939    0.205428    1.006793
    128          1           0      -14.355873    2.798117    0.502673
    129          1           0      -12.781806    2.821537    0.092173
    130          1           0      -13.036937    0.870179    2.336050
    131          1           0      -14.067660    2.204421    2.648685
    132          1           0      -12.326824    3.062358    3.650606
    133          1           0      -11.625143    3.489218    2.066097
    134          1           0      -10.756735    0.763702    2.552942
    135          1           0       -9.540579    0.711143    4.605229
    136          1           0      -11.195332    1.025706    4.809943
    137          1           0       -9.968271    2.375678    4.987373
    138          1           0       -9.771561    2.901136    1.401624
    139          1           0       -8.836062    1.479375    1.814512
    140          1           0       -8.783899    2.868091    2.801816
 ---------------------------------------------------------------------

 SCF Done:  E(RZINDO/S) =  -474.218467662     A.U. after   19 cycles

 Excitation energies and oscillator strengths:

 Excited State   1:      Singlet-A      1.3176 eV  941.02 nm  f=0.5290  <S**2>=0.000
     175 ->178        -0.18899
     176 ->177         0.66501
 This state for optimization and/or second-order correction.
 Total Energy, E(CIS/TDA) =  -474.170048398
 Copying the excited state density for this state as the 1-particle RhoCI density.

 Excited State   2:      Singlet-A      1.9084 eV  649.68 nm  f=0.0263  <S**2>=0.000
     175 ->177         0.52832
     176 ->178         0.44172

 Excited State   3:      Singlet-A      2.9079 eV  426.37 nm  f=0.2480  <S**2>=0.000
     168 ->177        -0.26083
     168 ->179         0.36492
     168 ->180         0.23296
     168 ->185         0.16621
     175 ->177         0.20136
     176 ->178        -0.26451
     176 ->179        -0.10992

 Excited State   4:      Singlet-A      2.9282 eV  423.41 nm  f=0.3820  <S**2>=0.000
     168 ->177        -0.16220
     168 ->179         0.23828
     168 ->180         0.14739
     168 ->185         0.10717
     175 ->177        -0.25079
     176 ->178         0.32969
     176 ->179         0.32501
     176 ->180        -0.18485

 Excited State   5:      Singlet-A      3.0373 eV  408.20 nm  f=0.6131  <S**2>=0.000
     171 ->177         0.15919
     175 ->177         0.24173
     176 ->178        -0.28285
     176 ->179         0.46957
     176 ->180        -0.18234
     176 ->182         0.14630

 The electronic state is 1-A.
 Alpha  occ. eigenvalues --   -1.83539  -1.81735  -1.79697  -1.73794  -1.71912
 Alpha  occ. eigenvalues --   -1.71269  -1.66549  -1.59122  -1.57949  -1.56966
 Alpha  occ. eigenvalues --   -1.55913  -1.51900  -1.48788  -1.48252  -1.45116
 Alpha  occ. eigenvalues --   -1.43901  -1.43261  -1.39913  -1.38295  -1.37602
 Alpha  occ. eigenvalues --   -1.36086  -1.34488  -1.32949  -1.31580  -1.28410
 Alpha  occ. eigenvalues --   -1.27946  -1.24205  -1.22490  -1.21713  -1.18128
 Alpha  occ. eigenvalues --   -1.17207  -1.16591  -1.15230  -1.14897  -1.13401
 Alpha  occ. eigenvalues --   -1.12803  -1.10906  -1.10313  -1.04747  -1.04434
 Alpha  occ. eigenvalues --   -1.02054  -1.01267  -0.99084  -0.98306  -0.96975
 Alpha  occ. eigenvalues --   -0.95295  -0.94794  -0.93886  -0.92966  -0.92277
 Alpha  occ. eigenvalues --   -0.90525  -0.90023  -0.89808  -0.88659  -0.87132
 Alpha  occ. eigenvalues --   -0.86090  -0.85955  -0.84220  -0.81564  -0.80641
 Alpha  occ. eigenvalues --   -0.79755  -0.78922  -0.76704  -0.76316  -0.76017
 Alpha  occ. eigenvalues --   -0.75101  -0.74955  -0.74214  -0.73729  -0.73288
 Alpha  occ. eigenvalues --   -0.72925  -0.72859  -0.72288  -0.71768  -0.70761
 Alpha  occ. eigenvalues --   -0.70152  -0.69231  -0.68980  -0.68084  -0.67762
 Alpha  occ. eigenvalues --   -0.67613  -0.67155  -0.66432  -0.66155  -0.66007
 Alpha  occ. eigenvalues --   -0.65734  -0.65245  -0.64320  -0.64111  -0.63654
 Alpha  occ. eigenvalues --   -0.63547  -0.62557  -0.62449  -0.62094  -0.62030
 Alpha  occ. eigenvalues --   -0.61591  -0.61431  -0.60789  -0.60567  -0.60285
 Alpha  occ. eigenvalues --   -0.60224  -0.60016  -0.59310  -0.58935  -0.58451
 Alpha  occ. eigenvalues --   -0.57937  -0.57586  -0.57388  -0.56641  -0.56158
 Alpha  occ. eigenvalues --   -0.55802  -0.55347  -0.55225  -0.54500  -0.54448
 Alpha  occ. eigenvalues --   -0.53819  -0.53465  -0.53255  -0.52970  -0.52885
 Alpha  occ. eigenvalues --   -0.52798  -0.52387  -0.52161  -0.51750  -0.51086
 Alpha  occ. eigenvalues --   -0.50961  -0.50850  -0.50557  -0.50438  -0.50223
 Alpha  occ. eigenvalues --   -0.49831  -0.49792  -0.49582  -0.49175  -0.49105
 Alpha  occ. eigenvalues --   -0.48767  -0.48691  -0.48469  -0.48416  -0.48044
 Alpha  occ. eigenvalues --   -0.47827  -0.46995  -0.46961  -0.46492  -0.46486
 Alpha  occ. eigenvalues --   -0.46335  -0.46045  -0.45473  -0.45372  -0.45255
 Alpha  occ. eigenvalues --   -0.45181  -0.44753  -0.44635  -0.44597  -0.44406
 Alpha  occ. eigenvalues --   -0.43604  -0.43373  -0.43072  -0.43015  -0.42655
 Alpha  occ. eigenvalues --   -0.42070  -0.41580  -0.41101  -0.39328  -0.38631
 Alpha  occ. eigenvalues --   -0.37966  -0.37392  -0.35958  -0.34610  -0.34056
 Alpha  occ. eigenvalues --   -0.33510  -0.32400  -0.32272  -0.32121  -0.26326
 Alpha  occ. eigenvalues --   -0.21610
 Alpha virt. eigenvalues --   -0.07931  -0.02096  -0.00498   0.01157   0.01366
 Alpha virt. eigenvalues --    0.01623   0.02395   0.02980   0.04753   0.05046
 Alpha virt. eigenvalues --    0.06205   0.06772   0.07429   0.07886   0.08183

 Mulliken charges:
               1
     1  Mg   0.439749
     2  C   -0.045325
     3  C   -0.096942
     4  C   -0.073643
     5  C   -0.079922
     6  N   -0.292561
     7  C    0.103550
     8  C    0.000961
     9  C    0.006193
    10  C    0.168211
    11  C   -0.047940
    12  C   -0.026168
    13  C    0.002984
    14  C    0.467067
    15  O   -0.509995
    16  O   -0.270916
    17  N   -0.344395
    18  C    0.147579
    19  C    0.037564
    20  C   -0.031953
    21  C    0.143542
    22  C   -0.046651
    23  C    0.326146
    24  O   -0.528412
    25  C   -0.024049
    26  N   -0.235915
    27  C    0.177659
    28  C   -0.006254
    29  C    0.000260
    30  C    0.086309
    31  C   -0.056556
    32  C   -0.035038
    33  C   -0.057111
    34  N   -0.307619
    35  C    0.052064
    36  C    0.029975
    37  C   -0.061981
    38  C    0.098145
    39  C   -0.032251
    40  C    0.332764
    41  O   -0.526539
    42  C    0.047969
    43  C    0.496097
    44  O   -0.530757
    45  O   -0.240608
    46  C    0.076152
    47  C    0.106509
    48  C   -0.063439
    49  C   -0.038476
    50  C   -0.051940
    51  C   -0.021957
    52  C   -0.032406
    53  C   -0.041779
    54  C   -0.005950
    55  C   -0.056952
    56  C   -0.030473
    57  C   -0.049439
    58  C   -0.033271
    59  C   -0.001708
    60  C   -0.057089
    61  C   -0.037873
    62  C   -0.035768
    63  C   -0.026072
    64  C   -0.005854
    65  C   -0.058216
    66  C   -0.050931
    67  H    0.019191
    68  H    0.044441
    69  H    0.029641
    70  H    0.041743
    71  H    0.024638
    72  H    0.035266
    73  H    0.024160
    74  H    0.015612
    75  H    0.021224
    76  H    0.031731
    77  H    0.048891
    78  H    0.040255
    79  H    0.023510
    80  H    0.028442
    81  H    0.023491
    82  H    0.041710
    83  H    0.040340
    84  H    0.039852
    85  H    0.036948
    86  H    0.032550
    87  H    0.029070
    88  H    0.018320
    89  H    0.032722
    90  H    0.015670
    91  H    0.015070
    92  H    0.026616
    93  H    0.022242
    94  H    0.017436
    95  H    0.034714
    96  H    0.031232
    97  H    0.018677
    98  H    0.046946
    99  H    0.048876
   100  H    0.033105
   101  H    0.034839
   102  H    0.056039
   103  H    0.049473
   104  H    0.035613
   105  H    0.028547
   106  H    0.041185
   107  H    0.021603
   108  H    0.015764
   109  H    0.016194
   110  H    0.023909
   111  H    0.014691
   112  H    0.015113
   113  H    0.017437
   114  H    0.020621
   115  H    0.024526
   116  H    0.009139
   117  H    0.023837
   118  H    0.024121
   119  H    0.008368
   120  H    0.005076
   121  H    0.029629
   122  H    0.021890
   123  H    0.019337
   124  H    0.022720
   125  H    0.009129
   126  H    0.015792
   127  H    0.012964
   128  H    0.021144
   129  H    0.008735
   130  H    0.019287
   131  H    0.013698
   132  H    0.018746
   133  H    0.025141
   134  H    0.017544
   135  H    0.018439
   136  H    0.010198
   137  H    0.025110
   138  H    0.007290
   139  H    0.014344
   140  H    0.010080
 Sum of Mulliken charges =  -0.00000

 Dipole moment (field-independent basis, Debye):
    X=             -3.9998    Y=              9.2851    Z=              1.6986  Tot=             10.2516
 N-N= 4.306049600876D+03 E-N= 0.000000000000D+00  KE=-9.286256078974D+03
 Leave Link  601 at Thu May  5 03:58:56 2022, MaxMem=  6710886400 cpu:               0.8 elap:               0.0
 (Enter /sw/apps/gaussian-16.0/g16/l9999.exe)
 1\1\GINC-BP1-COMPUTE196\SP\RZINDO CIS\STO-3G\C55H74Mg1N4O6\OF15641\05-
 May-2022\0\\#p ZINDO=(nstates=5)\\step_51_chromophore_25 ZINDO\\0,1\Mg
 ,0,-2.897,34.08,27.005\C,0,-3.794,32.355,29.977\C,0,-1.424,36.516,29.1
 35\C,0,-2.67,36.28,24.395\C,0,-4.667,31.947,25.135\N,0,-2.768,34.489,2
 9.425\C,0,-3.078,33.493,30.328\C,0,-2.518,33.876,31.684\C,0,-1.775,35.
 232,31.415\C,0,-1.981,35.443,29.921\C,0,-2.133,36.377,32.361\C,0,-1.57
 ,32.739,32.253\C,0,-2.121,31.971,33.488\C,0,-1.27,32.069,34.738\O,0,-0

 Normal termination of Gaussian 16 at Thu May  5 03:58:56 2022.
