 Gaussian 16, Revision A.03,
 Gaussian 16:  ES64L-G16RevA.03 25-Dec-2016

 ------------------------------
 #p blyp/Def2SVP td=(nstates=5)
 ------------------------------

 -------------------------------------------------
 step_701_chromophore_7 TDDFT with blyp functional
 -------------------------------------------------
 Symbolic Z-matrix:
 Charge =  0 Multiplicity = 1

                         Standard orientation:
 ---------------------------------------------------------------------
 Center     Atomic      Atomic             Coordinates (Angstroms)
 Number     Number       Type             X           Y           Z
 ---------------------------------------------------------------------
      1         12           0        6.027016    0.753148    0.102466
      2          6           0        3.779801   -2.038799    0.163940
      3          6           0        3.624945    2.577650   -1.300441
      4          6           0        8.225325    3.259766    0.123837
      5          6           0        8.486579   -1.479299    1.159415
      6          7           0        3.948801    0.153405   -0.521589
      7          6           0        3.179267   -0.887444   -0.161711
      8          6           0        1.732548   -0.633007   -0.633785
      9          6           0        1.786605    0.856035   -1.173886
     10          6           0        3.237786    1.225946   -1.038643
     11          6           0        1.307013    1.013923   -2.688308
     12          6           0        0.686203   -0.796028    0.521865
     13          6           0       -0.779379   -0.946768    0.048809
     14          6           0       -1.500033   -2.279104    0.207065
     15          8           0       -1.338399   -3.041886    1.141951
     16          8           0       -2.607405   -2.271283   -0.563595
     17          7           0        5.901525    2.678989   -0.487434
     18          6           0        4.853380    3.250272   -1.073309
     19          6           0        5.138101    4.664471   -1.288612
     20          6           0        6.512405    4.844270   -0.843375
     21          6           0        6.981443    3.495209   -0.430069
     22          6           0        4.088681    5.539696   -1.936830
     23          6           0        7.427925    6.070143   -0.939576
     24          8           0        8.571954    6.103503   -0.579110
     25          6           0        6.778172    7.290019   -1.591446
     26          7           0        8.195369    0.832807    0.380831
     27          6           0        8.836917    2.023266    0.475275
     28          6           0       10.205354    1.844569    1.108692
     29          6           0       10.275696    0.397009    1.486444
     30          6           0        8.888956   -0.158310    1.028009
     31          6           0       11.396890    2.364285    0.179056
     32          6           0       10.588782    0.094921    3.013518
     33          6           0       11.550841   -0.987848    3.371040
     34          7           0        6.168698   -1.379095    0.436651
     35          6           0        7.302825   -2.129121    0.850041
     36          6           0        6.910291   -3.504747    1.044311
     37          6           0        5.525567   -3.531566    0.734362
     38          6           0        5.124695   -2.190960    0.427826
     39          6           0        7.752158   -4.585604    1.511380
     40          6           0        4.333931   -4.343464    0.631993
     41          8           0        4.172921   -5.542251    0.762266
     42          6           0        3.152781   -3.410349    0.283793
     43          6           0        2.514132   -3.851159   -0.951903
     44          8           0        2.973522   -3.556852   -2.109993
     45          8           0        1.252959   -4.446189   -0.685633
     46          6           0        0.469142   -4.616008   -1.978183
     47          6           0       -3.457255   -3.421844   -0.552079
     48          6           0       -4.869486   -2.969959   -0.557400
     49          6           0       -5.925113   -3.719121   -0.705154
     50          6           0       -5.907924   -5.267460   -0.993737
     51          6           0       -7.351826   -3.244551   -0.494647
     52          6           0       -7.912050   -2.265095   -1.559849
     53          6           0       -8.178305   -0.831561   -0.956222
     54          6           0       -9.550076   -0.302138   -1.327978
     55          6           0       -9.349530    0.404952   -2.697763
     56          6           0      -10.015679    0.719961   -0.210741
     57          6           0      -11.544238    0.459501    0.166236
     58          6           0      -12.489710    1.620929   -0.220486
     59          6           0      -13.965932    1.156298   -0.615042
     60          6           0      -14.297324    0.923259   -2.145650
     61          6           0      -14.927505    2.161288   -0.040093
     62          6           0      -15.406141    1.968425    1.413966
     63          6           0      -15.001146    3.118860    2.408656
     64          6           0      -13.692148    2.809000    3.195494
     65          6           0      -13.988656    2.505165    4.682912
     66          6           0      -12.560831    3.822551    2.984719
     67          1           0        2.838936    3.211374   -1.717251
     68          1           0        8.900684    4.089152    0.345692
     69          1           0        9.349362   -2.002994    1.576748
     70          1           0        1.406513   -1.283660   -1.444398
     71          1           0        1.192488    1.526251   -0.551737
     72          1           0        0.617783    0.249808   -3.047556
     73          1           0        2.107482    0.920018   -3.422518
     74          1           0        0.988752    2.045042   -2.843255
     75          1           0        0.620747    0.082436    1.165235
     76          1           0        1.066947   -1.647272    1.084936
     77          1           0       -0.835999   -0.671143   -1.004445
     78          1           0       -1.312575   -0.079003    0.435288
     79          1           0        4.148205    6.598556   -1.685556
     80          1           0        3.083120    5.255799   -1.625001
     81          1           0        4.141155    5.373105   -3.012845
     82          1           0        7.527450    8.055823   -1.794227
     83          1           0        5.913684    7.704994   -1.073331
     84          1           0        6.375534    6.862147   -2.509830
     85          1           0       10.311051    2.450409    2.009347
     86          1           0       10.962912   -0.112634    0.811923
     87          1           0       11.985670    1.485393   -0.085273
     88          1           0       12.038478    3.154856    0.568295
     89          1           0       11.188379    2.767419   -0.812131
     90          1           0        9.652046   -0.233231    3.465641
     91          1           0       10.971901    0.987490    3.507920
     92          1           0       12.331353   -1.138154    2.625137
     93          1           0       10.966783   -1.886251    3.568459
     94          1           0       12.068985   -0.727899    4.294536
     95          1           0        8.693457   -4.145853    1.840320
     96          1           0        7.974162   -5.298050    0.715629
     97          1           0        7.272578   -5.172612    2.294484
     98          1           0        2.398290   -3.469714    1.068195
     99          1           0       -0.485361   -5.068689   -1.707877
    100          1           0        0.958418   -5.319250   -2.652244
    101          1           0        0.372870   -3.732735   -2.610502
    102          1           0       -3.295370   -4.005952    0.353197
    103          1           0       -3.287652   -4.069342   -1.411405
    104          1           0       -5.070352   -1.899486   -0.590091
    105          1           0       -4.920120   -5.631778   -1.273422
    106          1           0       -6.474453   -5.432979   -1.910240
    107          1           0       -6.402550   -5.762825   -0.157993
    108          1           0       -7.467615   -2.830693    0.507447
    109          1           0       -8.055453   -4.060717   -0.332970
    110          1           0       -8.774952   -2.567918   -2.152489
    111          1           0       -7.146325   -2.150565   -2.327621
    112          1           0       -7.357322   -0.172211   -1.235548
    113          1           0       -8.095362   -0.976378    0.120555
    114          1           0      -10.195892   -1.180490   -1.307965
    115          1           0      -10.192467    1.069079   -2.890386
    116          1           0       -9.453358   -0.263752   -3.551700
    117          1           0       -8.432214    0.967535   -2.869577
    118          1           0       -9.928012    1.729049   -0.615644
    119          1           0       -9.263790    0.732422    0.577755
    120          1           0      -11.501991    0.539506    1.253464
    121          1           0      -11.919273   -0.523818   -0.116836
    122          1           0      -12.179906    2.030069   -1.181129
    123          1           0      -12.438875    2.511432    0.406135
    124          1           0      -14.150055    0.173441   -0.182802
    125          1           0      -15.013032    0.102188   -2.121174
    126          1           0      -13.367415    0.702253   -2.669194
    127          1           0      -14.773890    1.813976   -2.556652
    128          1           0      -15.867013    2.176732   -0.591470
    129          1           0      -14.482538    3.121518   -0.300900
    130          1           0      -14.935868    1.040256    1.737043
    131          1           0      -16.478312    1.773699    1.441862
    132          1           0      -15.860439    3.339461    3.041462
    133          1           0      -14.912717    3.997363    1.769915
    134          1           0      -13.152869    1.911302    2.894097
    135          1           0      -14.882869    3.014135    5.043819
    136          1           0      -13.156475    2.886771    5.273991
    137          1           0      -14.003357    1.440121    4.915549
    138          1           0      -11.620410    3.271973    2.982024
    139          1           0      -12.471410    4.439814    3.878921
    140          1           0      -12.748718    4.371063    2.061868
 ---------------------------------------------------------------------

 SCF Done:  E(RB-LYP) =  -3007.35333512     A.U. after   21 cycles

 Excitation energies and oscillator strengths:

 Excited State   1:      Singlet-A      1.8397 eV  673.92 nm  f=0.2785  <S**2>=0.000
     244 -> 247        0.13677
     245 -> 248       -0.19734
     246 -> 247        0.66811
     246 <- 247       -0.13618
 This state for optimization and/or second-order correction.
 Total Energy, E(TD-HF/TD-DFT) =  -3007.28572555
 Copying the excited state density for this state as the 1-particle RhoCI density.

 Excited State   2:      Singlet-A      1.8603 eV  666.47 nm  f=0.0128  <S**2>=0.000
     244 -> 247        0.69311
     246 -> 247       -0.12950

 Excited State   3:      Singlet-A      2.0005 eV  619.77 nm  f=0.0741  <S**2>=0.000
     243 -> 247       -0.25062
     245 -> 247        0.60975
     246 -> 248        0.21802

 Excited State   4:      Singlet-A      2.1509 eV  576.43 nm  f=0.0127  <S**2>=0.000
     243 -> 247        0.65615
     245 -> 247        0.21607
     246 -> 248        0.12728

 Excited State   5:      Singlet-A      2.3850 eV  519.85 nm  f=0.0000  <S**2>=0.000
     241 -> 247        0.70706

 The electronic state is 1-A.
 Alpha  occ. eigenvalues --  -46.27514 -18.82559 -18.82477 -18.76838 -18.76637
 Alpha  occ. eigenvalues --  -18.76271 -18.74885 -14.02925 -14.02858 -14.01277
 Alpha  occ. eigenvalues --  -14.00355 -10.04343 -10.03836 -10.00218  -9.98913
 Alpha  occ. eigenvalues --   -9.97898  -9.97670  -9.96800  -9.96427  -9.96182
 Alpha  occ. eigenvalues --   -9.95901  -9.95720  -9.95612  -9.95361  -9.94495
 Alpha  occ. eigenvalues --   -9.94029  -9.94027  -9.93933  -9.93813  -9.93785
 Alpha  occ. eigenvalues --   -9.93609  -9.93558  -9.93381  -9.93281  -9.93101
 Alpha  occ. eigenvalues --   -9.93100  -9.92964  -9.92732  -9.92659  -9.92639
 Alpha  occ. eigenvalues --   -9.92455  -9.92415  -9.92402  -9.92249  -9.92120
 Alpha  occ. eigenvalues --   -9.92117  -9.91878  -9.91858  -9.91855  -9.91827
 Alpha  occ. eigenvalues --   -9.91787  -9.91726  -9.91698  -9.91458  -9.91278
 Alpha  occ. eigenvalues --   -9.91213  -9.91177  -9.91133  -9.91125  -9.91100
 Alpha  occ. eigenvalues --   -9.90948  -9.90732  -9.90689  -9.90668  -9.90665
 Alpha  occ. eigenvalues --   -9.90345  -2.92038  -1.72471  -1.71928  -1.71743
 Alpha  occ. eigenvalues --   -0.99265  -0.94875  -0.93186  -0.91002  -0.90507
 Alpha  occ. eigenvalues --   -0.87323  -0.86792  -0.85992  -0.85768  -0.84643
 Alpha  occ. eigenvalues --   -0.75685  -0.73752  -0.72769  -0.72562  -0.72376
 Alpha  occ. eigenvalues --   -0.71919  -0.71759  -0.70967  -0.70717  -0.70605
 Alpha  occ. eigenvalues --   -0.70103  -0.69130  -0.68255  -0.67789  -0.67189
 Alpha  occ. eigenvalues --   -0.66380  -0.65959  -0.65249  -0.64866  -0.64566
 Alpha  occ. eigenvalues --   -0.63954  -0.62749  -0.62250  -0.61795  -0.60859
 Alpha  occ. eigenvalues --   -0.60273  -0.60136  -0.60023  -0.59574  -0.59081
 Alpha  occ. eigenvalues --   -0.58594  -0.57981  -0.57309  -0.55543  -0.54319
 Alpha  occ. eigenvalues --   -0.54227  -0.53807  -0.52752  -0.52345  -0.51708
 Alpha  occ. eigenvalues --   -0.51419  -0.51226  -0.51007  -0.50517  -0.50226
 Alpha  occ. eigenvalues --   -0.50057  -0.49277  -0.48685  -0.48126  -0.46755
 Alpha  occ. eigenvalues --   -0.46574  -0.46011  -0.45551  -0.45343  -0.44828
 Alpha  occ. eigenvalues --   -0.44291  -0.43940  -0.42978  -0.42480  -0.42184
 Alpha  occ. eigenvalues --   -0.41991  -0.41621  -0.41269  -0.41137  -0.40870
 Alpha  occ. eigenvalues --   -0.40639  -0.40489  -0.40464  -0.40211  -0.40152
 Alpha  occ. eigenvalues --   -0.39885  -0.39687  -0.39536  -0.39264  -0.39101
 Alpha  occ. eigenvalues --   -0.38900  -0.38518  -0.38411  -0.38252  -0.38118
 Alpha  occ. eigenvalues --   -0.38041  -0.37957  -0.37757  -0.37557  -0.37482
 Alpha  occ. eigenvalues --   -0.37211  -0.36881  -0.36731  -0.36467  -0.36362
 Alpha  occ. eigenvalues --   -0.36306  -0.35891  -0.35811  -0.35708  -0.35567
 Alpha  occ. eigenvalues --   -0.35394  -0.35066  -0.34927  -0.34647  -0.34593
 Alpha  occ. eigenvalues --   -0.34204  -0.34087  -0.33998  -0.33933  -0.33804
 Alpha  occ. eigenvalues --   -0.33724  -0.33644  -0.33495  -0.33364  -0.33122
 Alpha  occ. eigenvalues --   -0.32957  -0.32720  -0.32588  -0.32432  -0.32293
 Alpha  occ. eigenvalues --   -0.32229  -0.32053  -0.32022  -0.31937  -0.31466
 Alpha  occ. eigenvalues --   -0.31332  -0.31257  -0.31092  -0.31048  -0.30835
 Alpha  occ. eigenvalues --   -0.30711  -0.30362  -0.30037  -0.29812  -0.29596
 Alpha  occ. eigenvalues --   -0.29511  -0.29411  -0.29377  -0.29313  -0.28902
 Alpha  occ. eigenvalues --   -0.28843  -0.28508  -0.28378  -0.27954  -0.27768
 Alpha  occ. eigenvalues --   -0.27728  -0.27432  -0.27246  -0.26450  -0.26434
 Alpha  occ. eigenvalues --   -0.25929  -0.25916  -0.25706  -0.25668  -0.25245
 Alpha  occ. eigenvalues --   -0.24993  -0.24655  -0.23989  -0.23827  -0.23125
 Alpha  occ. eigenvalues --   -0.22866  -0.22213  -0.22058  -0.21260  -0.20872
 Alpha  occ. eigenvalues --   -0.20211  -0.20034  -0.19167  -0.18172  -0.17202
 Alpha  occ. eigenvalues --   -0.15918
 Alpha virt. eigenvalues --   -0.11447  -0.06844  -0.06059  -0.04472  -0.04042
 Alpha virt. eigenvalues --   -0.03877  -0.02395  -0.01493  -0.01319   0.00330
 Alpha virt. eigenvalues --    0.01565   0.01803   0.02039   0.02425   0.02808

 Mulliken charges:
               1
     1  Mg   0.667931
     2  C    0.069501
     3  C   -0.066066
     4  C   -0.055123
     5  C   -0.048309
     6  N   -0.213975
     7  C   -0.122576
     8  C    0.005267
     9  C   -0.003847
    10  C    0.058685
    11  C    0.097949
    12  C    0.122524
    13  C    0.081794
    14  C    0.111174
    15  O   -0.176828
    16  O   -0.248812
    17  N   -0.301135
    18  C    0.126513
    19  C   -0.124770
    20  C   -0.028619
    21  C    0.166087
    22  C    0.154512
    23  C   -0.058189
    24  O   -0.129681
    25  C    0.105364
    26  N   -0.212545
    27  C   -0.005206
    28  C    0.028466
    29  C    0.095560
    30  C   -0.084065
    31  C    0.100460
    32  C    0.076882
    33  C    0.068381
    34  N   -0.227448
    35  C    0.176520
    36  C   -0.175571
    37  C    0.118473
    38  C    0.065388
    39  C    0.183086
    40  C   -0.090686
    41  O   -0.123032
    42  C    0.099661
    43  C    0.144479
    44  O   -0.243400
    45  O   -0.287097
    46  C    0.221639
    47  C    0.320448
    48  C   -0.113610
    49  C   -0.138086
    50  C    0.130545
    51  C    0.135231
    52  C    0.072090
    53  C    0.068046
    54  C   -0.061780
    55  C    0.109232
    56  C    0.102613
    57  C    0.098745
    58  C    0.091219
    59  C   -0.107026
    60  C    0.112877
    61  C    0.087538
    62  C    0.075809
    63  C    0.129152
    64  C   -0.102402
    65  C    0.100904
    66  C    0.110267
    67  H   -0.072317
    68  H   -0.039332
    69  H   -0.073470
    70  H   -0.002822
    71  H   -0.022974
    72  H   -0.000950
    73  H   -0.011480
    74  H   -0.006132
    75  H   -0.034838
    76  H   -0.007095
    77  H   -0.027544
    78  H    0.003994
    79  H   -0.013250
    80  H   -0.002682
    81  H    0.014661
    82  H   -0.005007
    83  H    0.019573
    84  H    0.001937
    85  H   -0.018720
    86  H   -0.021423
    87  H   -0.025023
    88  H   -0.003018
    89  H   -0.005284
    90  H   -0.015186
    91  H   -0.015872
    92  H   -0.008079
    93  H   -0.001287
    94  H   -0.016156
    95  H   -0.024455
    96  H    0.007943
    97  H    0.008614
    98  H    0.017759
    99  H    0.018491
   100  H    0.011479
   101  H    0.014215
   102  H    0.012302
   103  H    0.005350
   104  H   -0.037232
   105  H   -0.023833
   106  H   -0.006678
   107  H    0.012917
   108  H   -0.022746
   109  H   -0.052534
   110  H   -0.028410
   111  H   -0.033601
   112  H   -0.028233
   113  H   -0.038089
   114  H   -0.031895
   115  H   -0.026534
   116  H   -0.027302
   117  H   -0.009270
   118  H   -0.044820
   119  H   -0.038052
   120  H   -0.028422
   121  H   -0.014503
   122  H   -0.045691
   123  H   -0.029327
   124  H   -0.042415
   125  H   -0.007537
   126  H   -0.014506
   127  H   -0.012716
   128  H   -0.053112
   129  H   -0.037435
   130  H   -0.033608
   131  H   -0.036119
   132  H   -0.037049
   133  H   -0.039912
   134  H   -0.023251
   135  H   -0.012245
   136  H   -0.038026
   137  H   -0.013141
   138  H   -0.023321
   139  H   -0.026847
   140  H    0.002444
 Sum of Mulliken charges =  -0.00000

 Dipole moment (field-independent basis, Debye):
    X=             -2.6909    Y=              3.9373    Z=             -0.4122  Tot=              4.7868
 Quadrupole moment (field-independent basis, Debye-Ang):
   XX=           -375.7468   YY=           -429.1934   ZZ=           -403.1572
   XY=             10.6002   XZ=             22.4375   YZ=              3.0911

 Normal termination of Gaussian 16 at Thu May  5 07:26:40 2022.
