 Gaussian 16, Revision A.03,
 Gaussian 16:  ES64L-G16RevA.03 25-Dec-2016

 -----------------------------------
 #p cam-b3lyp/Def2SVP td=(nstates=5)
 -----------------------------------

 ------------------------------------------------------
 step_701_chromophore_7 TDDFT with cam-b3lyp functional
 ------------------------------------------------------
 Symbolic Z-matrix:
 Charge =  0 Multiplicity = 1

                         Standard orientation:
 ---------------------------------------------------------------------
 Center     Atomic      Atomic             Coordinates (Angstroms)
 Number     Number       Type             X           Y           Z
 ---------------------------------------------------------------------
      1         12           0        6.027016    0.753148    0.102466
      2          6           0        3.779801   -2.038799    0.163940
      3          6           0        3.624945    2.577650   -1.300441
      4          6           0        8.225325    3.259766    0.123837
      5          6           0        8.486579   -1.479299    1.159415
      6          7           0        3.948801    0.153405   -0.521589
      7          6           0        3.179267   -0.887444   -0.161711
      8          6           0        1.732548   -0.633007   -0.633785
      9          6           0        1.786605    0.856035   -1.173886
     10          6           0        3.237786    1.225946   -1.038643
     11          6           0        1.307013    1.013923   -2.688308
     12          6           0        0.686203   -0.796028    0.521865
     13          6           0       -0.779379   -0.946768    0.048809
     14          6           0       -1.500033   -2.279104    0.207065
     15          8           0       -1.338399   -3.041886    1.141951
     16          8           0       -2.607405   -2.271283   -0.563595
     17          7           0        5.901525    2.678989   -0.487434
     18          6           0        4.853380    3.250272   -1.073309
     19          6           0        5.138101    4.664471   -1.288612
     20          6           0        6.512405    4.844270   -0.843375
     21          6           0        6.981443    3.495209   -0.430069
     22          6           0        4.088681    5.539696   -1.936830
     23          6           0        7.427925    6.070143   -0.939576
     24          8           0        8.571954    6.103503   -0.579110
     25          6           0        6.778172    7.290019   -1.591446
     26          7           0        8.195369    0.832807    0.380831
     27          6           0        8.836917    2.023266    0.475275
     28          6           0       10.205354    1.844569    1.108692
     29          6           0       10.275696    0.397009    1.486444
     30          6           0        8.888956   -0.158310    1.028009
     31          6           0       11.396890    2.364285    0.179056
     32          6           0       10.588782    0.094921    3.013518
     33          6           0       11.550841   -0.987848    3.371040
     34          7           0        6.168698   -1.379095    0.436651
     35          6           0        7.302825   -2.129121    0.850041
     36          6           0        6.910291   -3.504747    1.044311
     37          6           0        5.525567   -3.531566    0.734362
     38          6           0        5.124695   -2.190960    0.427826
     39          6           0        7.752158   -4.585604    1.511380
     40          6           0        4.333931   -4.343464    0.631993
     41          8           0        4.172921   -5.542251    0.762266
     42          6           0        3.152781   -3.410349    0.283793
     43          6           0        2.514132   -3.851159   -0.951903
     44          8           0        2.973522   -3.556852   -2.109993
     45          8           0        1.252959   -4.446189   -0.685633
     46          6           0        0.469142   -4.616008   -1.978183
     47          6           0       -3.457255   -3.421844   -0.552079
     48          6           0       -4.869486   -2.969959   -0.557400
     49          6           0       -5.925113   -3.719121   -0.705154
     50          6           0       -5.907924   -5.267460   -0.993737
     51          6           0       -7.351826   -3.244551   -0.494647
     52          6           0       -7.912050   -2.265095   -1.559849
     53          6           0       -8.178305   -0.831561   -0.956222
     54          6           0       -9.550076   -0.302138   -1.327978
     55          6           0       -9.349530    0.404952   -2.697763
     56          6           0      -10.015679    0.719961   -0.210741
     57          6           0      -11.544238    0.459501    0.166236
     58          6           0      -12.489710    1.620929   -0.220486
     59          6           0      -13.965932    1.156298   -0.615042
     60          6           0      -14.297324    0.923259   -2.145650
     61          6           0      -14.927505    2.161288   -0.040093
     62          6           0      -15.406141    1.968425    1.413966
     63          6           0      -15.001146    3.118860    2.408656
     64          6           0      -13.692148    2.809000    3.195494
     65          6           0      -13.988656    2.505165    4.682912
     66          6           0      -12.560831    3.822551    2.984719
     67          1           0        2.838936    3.211374   -1.717251
     68          1           0        8.900684    4.089152    0.345692
     69          1           0        9.349362   -2.002994    1.576748
     70          1           0        1.406513   -1.283660   -1.444398
     71          1           0        1.192488    1.526251   -0.551737
     72          1           0        0.617783    0.249808   -3.047556
     73          1           0        2.107482    0.920018   -3.422518
     74          1           0        0.988752    2.045042   -2.843255
     75          1           0        0.620747    0.082436    1.165235
     76          1           0        1.066947   -1.647272    1.084936
     77          1           0       -0.835999   -0.671143   -1.004445
     78          1           0       -1.312575   -0.079003    0.435288
     79          1           0        4.148205    6.598556   -1.685556
     80          1           0        3.083120    5.255799   -1.625001
     81          1           0        4.141155    5.373105   -3.012845
     82          1           0        7.527450    8.055823   -1.794227
     83          1           0        5.913684    7.704994   -1.073331
     84          1           0        6.375534    6.862147   -2.509830
     85          1           0       10.311051    2.450409    2.009347
     86          1           0       10.962912   -0.112634    0.811923
     87          1           0       11.985670    1.485393   -0.085273
     88          1           0       12.038478    3.154856    0.568295
     89          1           0       11.188379    2.767419   -0.812131
     90          1           0        9.652046   -0.233231    3.465641
     91          1           0       10.971901    0.987490    3.507920
     92          1           0       12.331353   -1.138154    2.625137
     93          1           0       10.966783   -1.886251    3.568459
     94          1           0       12.068985   -0.727899    4.294536
     95          1           0        8.693457   -4.145853    1.840320
     96          1           0        7.974162   -5.298050    0.715629
     97          1           0        7.272578   -5.172612    2.294484
     98          1           0        2.398290   -3.469714    1.068195
     99          1           0       -0.485361   -5.068689   -1.707877
    100          1           0        0.958418   -5.319250   -2.652244
    101          1           0        0.372870   -3.732735   -2.610502
    102          1           0       -3.295370   -4.005952    0.353197
    103          1           0       -3.287652   -4.069342   -1.411405
    104          1           0       -5.070352   -1.899486   -0.590091
    105          1           0       -4.920120   -5.631778   -1.273422
    106          1           0       -6.474453   -5.432979   -1.910240
    107          1           0       -6.402550   -5.762825   -0.157993
    108          1           0       -7.467615   -2.830693    0.507447
    109          1           0       -8.055453   -4.060717   -0.332970
    110          1           0       -8.774952   -2.567918   -2.152489
    111          1           0       -7.146325   -2.150565   -2.327621
    112          1           0       -7.357322   -0.172211   -1.235548
    113          1           0       -8.095362   -0.976378    0.120555
    114          1           0      -10.195892   -1.180490   -1.307965
    115          1           0      -10.192467    1.069079   -2.890386
    116          1           0       -9.453358   -0.263752   -3.551700
    117          1           0       -8.432214    0.967535   -2.869577
    118          1           0       -9.928012    1.729049   -0.615644
    119          1           0       -9.263790    0.732422    0.577755
    120          1           0      -11.501991    0.539506    1.253464
    121          1           0      -11.919273   -0.523818   -0.116836
    122          1           0      -12.179906    2.030069   -1.181129
    123          1           0      -12.438875    2.511432    0.406135
    124          1           0      -14.150055    0.173441   -0.182802
    125          1           0      -15.013032    0.102188   -2.121174
    126          1           0      -13.367415    0.702253   -2.669194
    127          1           0      -14.773890    1.813976   -2.556652
    128          1           0      -15.867013    2.176732   -0.591470
    129          1           0      -14.482538    3.121518   -0.300900
    130          1           0      -14.935868    1.040256    1.737043
    131          1           0      -16.478312    1.773699    1.441862
    132          1           0      -15.860439    3.339461    3.041462
    133          1           0      -14.912717    3.997363    1.769915
    134          1           0      -13.152869    1.911302    2.894097
    135          1           0      -14.882869    3.014135    5.043819
    136          1           0      -13.156475    2.886771    5.273991
    137          1           0      -14.003357    1.440121    4.915549
    138          1           0      -11.620410    3.271973    2.982024
    139          1           0      -12.471410    4.439814    3.878921
    140          1           0      -12.748718    4.371063    2.061868
 ---------------------------------------------------------------------

 SCF Done:  E(RCAM-B3LYP) =  -3007.14749584     A.U. after   17 cycles

 Excitation energies and oscillator strengths:

 Excited State   1:      Singlet-A      1.7509 eV  708.11 nm  f=0.3753  <S**2>=0.000
     245 -> 248        0.19112
     246 -> 247        0.68243
     245 <- 248        0.10939
 This state for optimization and/or second-order correction.
 Total Energy, E(TD-HF/TD-DFT) =  -3007.08315097
 Copying the excited state density for this state as the 1-particle RhoCI density.

 Excited State   2:      Singlet-A      2.2440 eV  552.52 nm  f=0.1042  <S**2>=0.000
     245 -> 247        0.63665
     246 -> 248       -0.29605

 Excited State   3:      Singlet-A      3.4049 eV  364.14 nm  f=0.0006  <S**2>=0.000
     241 -> 247       -0.15063
     244 -> 247        0.66516

 Excited State   4:      Singlet-A      3.5009 eV  354.15 nm  f=0.0953  <S**2>=0.000
     241 -> 247        0.11676
     242 -> 247        0.52062
     242 -> 249       -0.22368
     242 -> 250       -0.10979
     242 -> 251        0.15576
     244 -> 247        0.10124
     246 -> 248        0.26550

 Excited State   5:      Singlet-A      3.5233 eV  351.89 nm  f=0.2975  <S**2>=0.000
     239 -> 247       -0.10795
     241 -> 247        0.37879
     242 -> 247       -0.24492
     242 -> 249        0.13842
     245 -> 247        0.18351
     246 -> 248        0.44710

 The electronic state is 1-A.
 Alpha  occ. eigenvalues --  -46.89107 -19.25530 -19.25304 -19.19737 -19.19728
 Alpha  occ. eigenvalues --  -19.19705 -19.17854 -14.41883 -14.41615 -14.39835
 Alpha  occ. eigenvalues --  -14.38623 -10.39544 -10.39466 -10.35638 -10.34007
 Alpha  occ. eigenvalues --  -10.31840 -10.31770 -10.31502 -10.31037 -10.30505
 Alpha  occ. eigenvalues --  -10.30357 -10.30341 -10.29870 -10.29445 -10.29249
 Alpha  occ. eigenvalues --  -10.28080 -10.27999 -10.27949 -10.27886 -10.27835
 Alpha  occ. eigenvalues --  -10.27730 -10.27667 -10.27579 -10.27512 -10.27399
 Alpha  occ. eigenvalues --  -10.27259 -10.26864 -10.26680 -10.26498 -10.26473
 Alpha  occ. eigenvalues --  -10.26434 -10.26385 -10.26367 -10.26112 -10.26097
 Alpha  occ. eigenvalues --  -10.25968 -10.25838 -10.25562 -10.25510 -10.25464
 Alpha  occ. eigenvalues --  -10.25414 -10.25364 -10.25335 -10.25150 -10.25005
 Alpha  occ. eigenvalues --  -10.24980 -10.24933 -10.24818 -10.24808 -10.24741
 Alpha  occ. eigenvalues --  -10.24614 -10.24464 -10.24345 -10.24332 -10.24272
 Alpha  occ. eigenvalues --  -10.23981  -3.17531  -1.92441  -1.91982  -1.91830
 Alpha  occ. eigenvalues --   -1.17694  -1.13266  -1.11884  -1.09224  -1.08342
 Alpha  occ. eigenvalues --   -1.05148  -1.04641  -1.03619  -1.03442  -1.02016
 Alpha  occ. eigenvalues --   -0.92697  -0.90618  -0.89561  -0.89271  -0.89108
 Alpha  occ. eigenvalues --   -0.88606  -0.88475  -0.87520  -0.87289  -0.87255
 Alpha  occ. eigenvalues --   -0.86756  -0.85452  -0.84502  -0.83908  -0.83343
 Alpha  occ. eigenvalues --   -0.82504  -0.82151  -0.81263  -0.80726  -0.80458
 Alpha  occ. eigenvalues --   -0.79705  -0.78489  -0.77943  -0.77343  -0.76233
 Alpha  occ. eigenvalues --   -0.75552  -0.75491  -0.75315  -0.74845  -0.74302
 Alpha  occ. eigenvalues --   -0.73713  -0.72946  -0.72252  -0.70344  -0.68946
 Alpha  occ. eigenvalues --   -0.68746  -0.68327  -0.67386  -0.66742  -0.65809
 Alpha  occ. eigenvalues --   -0.65584  -0.65211  -0.65203  -0.64504  -0.64144
 Alpha  occ. eigenvalues --   -0.63999  -0.63252  -0.62603  -0.61826  -0.60557
 Alpha  occ. eigenvalues --   -0.60173  -0.59436  -0.59079  -0.58728  -0.58251
 Alpha  occ. eigenvalues --   -0.57763  -0.57305  -0.56335  -0.55766  -0.55289
 Alpha  occ. eigenvalues --   -0.55130  -0.54643  -0.54155  -0.53890  -0.53651
 Alpha  occ. eigenvalues --   -0.53407  -0.53329  -0.53084  -0.52926  -0.52876
 Alpha  occ. eigenvalues --   -0.52778  -0.52564  -0.51983  -0.51890  -0.51636
 Alpha  occ. eigenvalues --   -0.51432  -0.51329  -0.51061  -0.50742  -0.50559
 Alpha  occ. eigenvalues --   -0.50498  -0.50338  -0.50212  -0.49814  -0.49747
 Alpha  occ. eigenvalues --   -0.49625  -0.49472  -0.49255  -0.48954  -0.48602
 Alpha  occ. eigenvalues --   -0.48313  -0.48247  -0.48053  -0.47864  -0.47702
 Alpha  occ. eigenvalues --   -0.47576  -0.47115  -0.46832  -0.46682  -0.46569
 Alpha  occ. eigenvalues --   -0.46030  -0.45899  -0.45811  -0.45749  -0.45484
 Alpha  occ. eigenvalues --   -0.45418  -0.45330  -0.45115  -0.45075  -0.44714
 Alpha  occ. eigenvalues --   -0.44663  -0.44435  -0.44260  -0.44145  -0.44046
 Alpha  occ. eigenvalues --   -0.43899  -0.43755  -0.43707  -0.43514  -0.43356
 Alpha  occ. eigenvalues --   -0.42978  -0.42821  -0.42775  -0.42575  -0.42266
 Alpha  occ. eigenvalues --   -0.42227  -0.41855  -0.41384  -0.41226  -0.40849
 Alpha  occ. eigenvalues --   -0.40742  -0.40601  -0.40526  -0.40385  -0.39946
 Alpha  occ. eigenvalues --   -0.39724  -0.39628  -0.39499  -0.38848  -0.38744
 Alpha  occ. eigenvalues --   -0.38602  -0.38259  -0.38103  -0.37330  -0.37230
 Alpha  occ. eigenvalues --   -0.37111  -0.36901  -0.36623  -0.36403  -0.36361
 Alpha  occ. eigenvalues --   -0.36119  -0.35589  -0.34441  -0.34273  -0.33826
 Alpha  occ. eigenvalues --   -0.33651  -0.33420  -0.33362  -0.31481  -0.31156
 Alpha  occ. eigenvalues --   -0.30457  -0.30053  -0.30015  -0.29054  -0.23951
 Alpha  occ. eigenvalues --   -0.21198
 Alpha virt. eigenvalues --   -0.08474  -0.01767   0.00410   0.02396   0.02732
 Alpha virt. eigenvalues --    0.03610   0.03809   0.05606   0.06150   0.06965
 Alpha virt. eigenvalues --    0.08079   0.08185   0.08494   0.08731   0.09017

 Mulliken charges:
               1
     1  Mg   0.800466
     2  C    0.040737
     3  C   -0.084589
     4  C   -0.073610
     5  C   -0.057409
     6  N   -0.284814
     7  C   -0.072119
     8  C   -0.046280
     9  C   -0.063905
    10  C    0.084162
    11  C    0.042335
    12  C    0.075458
    13  C    0.014685
    14  C    0.187979
    15  O   -0.216373
    16  O   -0.313316
    17  N   -0.393331
    18  C    0.140409
    19  C   -0.134753
    20  C   -0.085014
    21  C    0.186527
    22  C    0.096195
    23  C    0.020266
    24  O   -0.170319
    25  C    0.026617
    26  N   -0.281653
    27  C    0.018035
    28  C   -0.028972
    29  C    0.033900
    30  C   -0.059065
    31  C    0.043448
    32  C    0.019907
    33  C    0.006440
    34  N   -0.314600
    35  C    0.173697
    36  C   -0.170293
    37  C    0.037186
    38  C    0.101641
    39  C    0.132604
    40  C    0.011237
    41  O   -0.164108
    42  C    0.018089
    43  C    0.235039
    44  O   -0.279703
    45  O   -0.349961
    46  C    0.180984
    47  C    0.286709
    48  C   -0.129408
    49  C   -0.166474
    50  C    0.072215
    51  C    0.073304
    52  C    0.017723
    53  C    0.017839
    54  C   -0.121965
    55  C    0.051859
    56  C    0.053320
    57  C    0.038885
    58  C    0.042818
    59  C   -0.155360
    60  C    0.056704
    61  C    0.028713
    62  C    0.024918
    63  C    0.069548
    64  C   -0.161843
    65  C    0.044030
    66  C    0.051672
    67  H   -0.038531
    68  H    0.002905
    69  H   -0.039937
    70  H    0.026589
    71  H    0.011254
    72  H    0.022246
    73  H    0.016393
    74  H    0.016539
    75  H   -0.002716
    76  H    0.022834
    77  H    0.004048
    78  H    0.036848
    79  H    0.014626
    80  H    0.025131
    81  H    0.043156
    82  H    0.030025
    83  H    0.045850
    84  H    0.027839
    85  H    0.016960
    86  H    0.013057
    87  H   -0.000136
    88  H    0.021579
    89  H    0.020936
    90  H    0.015057
    91  H    0.011315
    92  H    0.014870
    93  H    0.019474
    94  H    0.009810
    95  H   -0.001744
    96  H    0.034667
    97  H    0.034421
    98  H    0.060818
    99  H    0.040916
   100  H    0.037481
   101  H    0.035949
   102  H    0.046524
   103  H    0.027039
   104  H   -0.003469
   105  H    0.000116
   106  H    0.017544
   107  H    0.036027
   108  H    0.008361
   109  H   -0.018387
   110  H    0.000108
   111  H   -0.003306
   112  H   -0.001442
   113  H   -0.009970
   114  H   -0.000777
   115  H   -0.004235
   116  H   -0.001833
   117  H    0.014936
   118  H   -0.014748
   119  H   -0.007549
   120  H   -0.001375
   121  H    0.012470
   122  H   -0.019469
   123  H   -0.003736
   124  H   -0.011663
   125  H    0.016147
   126  H    0.007268
   127  H    0.010699
   128  H   -0.020320
   129  H   -0.010705
   130  H   -0.006510
   131  H   -0.005427
   132  H   -0.006611
   133  H   -0.010754
   134  H    0.004656
   135  H    0.010647
   136  H   -0.012796
   137  H    0.011011
   138  H    0.000435
   139  H   -0.000927
   140  H    0.022428
 Sum of Mulliken charges =  -0.00000

 Dipole moment (field-independent basis, Debye):
    X=             -2.7890    Y=              4.9917    Z=             -0.7238  Tot=              5.7636
 Quadrupole moment (field-independent basis, Debye-Ang):
   XX=           -374.2521   YY=           -424.5406   ZZ=           -402.6638
   XY=             16.1788   XZ=             22.5189   YZ=              2.1249

 Normal termination of Gaussian 16 at Thu May  5 06:32:51 2022.
