 Gaussian 16, Revision A.03,
 Gaussian 16:  ES64L-G16RevA.03 25-Dec-2016

 ---------------------------------
 #p PBE1PBE/Def2SVP td=(nstates=5)
 ---------------------------------

 ----------------------------------------------------
 step_701_chromophore_7 TDDFT with PBE1PBE functional
 ----------------------------------------------------
 Symbolic Z-matrix:
 Charge =  0 Multiplicity = 1

                         Standard orientation:
 ---------------------------------------------------------------------
 Center     Atomic      Atomic             Coordinates (Angstroms)
 Number     Number       Type             X           Y           Z
 ---------------------------------------------------------------------
      1         12           0        6.027016    0.753148    0.102466
      2          6           0        3.779801   -2.038799    0.163940
      3          6           0        3.624945    2.577650   -1.300441
      4          6           0        8.225325    3.259766    0.123837
      5          6           0        8.486579   -1.479299    1.159415
      6          7           0        3.948801    0.153405   -0.521589
      7          6           0        3.179267   -0.887444   -0.161711
      8          6           0        1.732548   -0.633007   -0.633785
      9          6           0        1.786605    0.856035   -1.173886
     10          6           0        3.237786    1.225946   -1.038643
     11          6           0        1.307013    1.013923   -2.688308
     12          6           0        0.686203   -0.796028    0.521865
     13          6           0       -0.779379   -0.946768    0.048809
     14          6           0       -1.500033   -2.279104    0.207065
     15          8           0       -1.338399   -3.041886    1.141951
     16          8           0       -2.607405   -2.271283   -0.563595
     17          7           0        5.901525    2.678989   -0.487434
     18          6           0        4.853380    3.250272   -1.073309
     19          6           0        5.138101    4.664471   -1.288612
     20          6           0        6.512405    4.844270   -0.843375
     21          6           0        6.981443    3.495209   -0.430069
     22          6           0        4.088681    5.539696   -1.936830
     23          6           0        7.427925    6.070143   -0.939576
     24          8           0        8.571954    6.103503   -0.579110
     25          6           0        6.778172    7.290019   -1.591446
     26          7           0        8.195369    0.832807    0.380831
     27          6           0        8.836917    2.023266    0.475275
     28          6           0       10.205354    1.844569    1.108692
     29          6           0       10.275696    0.397009    1.486444
     30          6           0        8.888956   -0.158310    1.028009
     31          6           0       11.396890    2.364285    0.179056
     32          6           0       10.588782    0.094921    3.013518
     33          6           0       11.550841   -0.987848    3.371040
     34          7           0        6.168698   -1.379095    0.436651
     35          6           0        7.302825   -2.129121    0.850041
     36          6           0        6.910291   -3.504747    1.044311
     37          6           0        5.525567   -3.531566    0.734362
     38          6           0        5.124695   -2.190960    0.427826
     39          6           0        7.752158   -4.585604    1.511380
     40          6           0        4.333931   -4.343464    0.631993
     41          8           0        4.172921   -5.542251    0.762266
     42          6           0        3.152781   -3.410349    0.283793
     43          6           0        2.514132   -3.851159   -0.951903
     44          8           0        2.973522   -3.556852   -2.109993
     45          8           0        1.252959   -4.446189   -0.685633
     46          6           0        0.469142   -4.616008   -1.978183
     47          6           0       -3.457255   -3.421844   -0.552079
     48          6           0       -4.869486   -2.969959   -0.557400
     49          6           0       -5.925113   -3.719121   -0.705154
     50          6           0       -5.907924   -5.267460   -0.993737
     51          6           0       -7.351826   -3.244551   -0.494647
     52          6           0       -7.912050   -2.265095   -1.559849
     53          6           0       -8.178305   -0.831561   -0.956222
     54          6           0       -9.550076   -0.302138   -1.327978
     55          6           0       -9.349530    0.404952   -2.697763
     56          6           0      -10.015679    0.719961   -0.210741
     57          6           0      -11.544238    0.459501    0.166236
     58          6           0      -12.489710    1.620929   -0.220486
     59          6           0      -13.965932    1.156298   -0.615042
     60          6           0      -14.297324    0.923259   -2.145650
     61          6           0      -14.927505    2.161288   -0.040093
     62          6           0      -15.406141    1.968425    1.413966
     63          6           0      -15.001146    3.118860    2.408656
     64          6           0      -13.692148    2.809000    3.195494
     65          6           0      -13.988656    2.505165    4.682912
     66          6           0      -12.560831    3.822551    2.984719
     67          1           0        2.838936    3.211374   -1.717251
     68          1           0        8.900684    4.089152    0.345692
     69          1           0        9.349362   -2.002994    1.576748
     70          1           0        1.406513   -1.283660   -1.444398
     71          1           0        1.192488    1.526251   -0.551737
     72          1           0        0.617783    0.249808   -3.047556
     73          1           0        2.107482    0.920018   -3.422518
     74          1           0        0.988752    2.045042   -2.843255
     75          1           0        0.620747    0.082436    1.165235
     76          1           0        1.066947   -1.647272    1.084936
     77          1           0       -0.835999   -0.671143   -1.004445
     78          1           0       -1.312575   -0.079003    0.435288
     79          1           0        4.148205    6.598556   -1.685556
     80          1           0        3.083120    5.255799   -1.625001
     81          1           0        4.141155    5.373105   -3.012845
     82          1           0        7.527450    8.055823   -1.794227
     83          1           0        5.913684    7.704994   -1.073331
     84          1           0        6.375534    6.862147   -2.509830
     85          1           0       10.311051    2.450409    2.009347
     86          1           0       10.962912   -0.112634    0.811923
     87          1           0       11.985670    1.485393   -0.085273
     88          1           0       12.038478    3.154856    0.568295
     89          1           0       11.188379    2.767419   -0.812131
     90          1           0        9.652046   -0.233231    3.465641
     91          1           0       10.971901    0.987490    3.507920
     92          1           0       12.331353   -1.138154    2.625137
     93          1           0       10.966783   -1.886251    3.568459
     94          1           0       12.068985   -0.727899    4.294536
     95          1           0        8.693457   -4.145853    1.840320
     96          1           0        7.974162   -5.298050    0.715629
     97          1           0        7.272578   -5.172612    2.294484
     98          1           0        2.398290   -3.469714    1.068195
     99          1           0       -0.485361   -5.068689   -1.707877
    100          1           0        0.958418   -5.319250   -2.652244
    101          1           0        0.372870   -3.732735   -2.610502
    102          1           0       -3.295370   -4.005952    0.353197
    103          1           0       -3.287652   -4.069342   -1.411405
    104          1           0       -5.070352   -1.899486   -0.590091
    105          1           0       -4.920120   -5.631778   -1.273422
    106          1           0       -6.474453   -5.432979   -1.910240
    107          1           0       -6.402550   -5.762825   -0.157993
    108          1           0       -7.467615   -2.830693    0.507447
    109          1           0       -8.055453   -4.060717   -0.332970
    110          1           0       -8.774952   -2.567918   -2.152489
    111          1           0       -7.146325   -2.150565   -2.327621
    112          1           0       -7.357322   -0.172211   -1.235548
    113          1           0       -8.095362   -0.976378    0.120555
    114          1           0      -10.195892   -1.180490   -1.307965
    115          1           0      -10.192467    1.069079   -2.890386
    116          1           0       -9.453358   -0.263752   -3.551700
    117          1           0       -8.432214    0.967535   -2.869577
    118          1           0       -9.928012    1.729049   -0.615644
    119          1           0       -9.263790    0.732422    0.577755
    120          1           0      -11.501991    0.539506    1.253464
    121          1           0      -11.919273   -0.523818   -0.116836
    122          1           0      -12.179906    2.030069   -1.181129
    123          1           0      -12.438875    2.511432    0.406135
    124          1           0      -14.150055    0.173441   -0.182802
    125          1           0      -15.013032    0.102188   -2.121174
    126          1           0      -13.367415    0.702253   -2.669194
    127          1           0      -14.773890    1.813976   -2.556652
    128          1           0      -15.867013    2.176732   -0.591470
    129          1           0      -14.482538    3.121518   -0.300900
    130          1           0      -14.935868    1.040256    1.737043
    131          1           0      -16.478312    1.773699    1.441862
    132          1           0      -15.860439    3.339461    3.041462
    133          1           0      -14.912717    3.997363    1.769915
    134          1           0      -13.152869    1.911302    2.894097
    135          1           0      -14.882869    3.014135    5.043819
    136          1           0      -13.156475    2.886771    5.273991
    137          1           0      -14.003357    1.440121    4.915549
    138          1           0      -11.620410    3.271973    2.982024
    139          1           0      -12.471410    4.439814    3.878921
    140          1           0      -12.748718    4.371063    2.061868
 ---------------------------------------------------------------------

 SCF Done:  E(RPBE1PBE) =  -3005.33559413     A.U. after   15 cycles

 Excitation energies and oscillator strengths:

 Excited State   1:      Singlet-A      1.8969 eV  653.62 nm  f=0.3641  <S**2>=0.000
     245 -> 248        0.18472
     246 -> 247        0.68889
 This state for optimization and/or second-order correction.
 Total Energy, E(TD-HF/TD-DFT) =  -3005.26588519
 Copying the excited state density for this state as the 1-particle RhoCI density.

 Excited State   2:      Singlet-A      2.2446 eV  552.37 nm  f=0.1042  <S**2>=0.000
     245 -> 247        0.64879
     246 -> 248       -0.26853

 Excited State   3:      Singlet-A      2.9332 eV  422.69 nm  f=0.0005  <S**2>=0.000
     243 -> 247        0.64369
     243 -> 249       -0.14412
     244 -> 247       -0.22146

 Excited State   4:      Singlet-A      3.0321 eV  408.90 nm  f=0.0040  <S**2>=0.000
     241 -> 247        0.10901
     243 -> 247        0.21696
     244 -> 247        0.65549

 Excited State   5:      Singlet-A      3.1725 eV  390.81 nm  f=0.0048  <S**2>=0.000
     240 -> 247        0.41903
     240 -> 249        0.11867
     241 -> 247        0.50078
     246 -> 248       -0.15442

 The electronic state is 1-A.
 Alpha  occ. eigenvalues --  -46.92477 -19.26209 -19.26016 -19.20031 -19.20011
 Alpha  occ. eigenvalues --  -19.19770 -19.18232 -14.41334 -14.41213 -14.39378
 Alpha  occ. eigenvalues --  -14.38382 -10.36581 -10.36543 -10.32611 -10.31278
 Alpha  occ. eigenvalues --  -10.29253 -10.29113 -10.29021 -10.28664 -10.28273
 Alpha  occ. eigenvalues --  -10.28034 -10.27813 -10.27680 -10.27221 -10.26951
 Alpha  occ. eigenvalues --  -10.25874 -10.25842 -10.25739 -10.25632 -10.25555
 Alpha  occ. eigenvalues --  -10.25426 -10.25400 -10.25104 -10.25052 -10.25039
 Alpha  occ. eigenvalues --  -10.24963 -10.24521 -10.24317 -10.24313 -10.24169
 Alpha  occ. eigenvalues --  -10.24055 -10.23963 -10.23907 -10.23569 -10.23509
 Alpha  occ. eigenvalues --  -10.23474 -10.23277 -10.23177 -10.23144 -10.23083
 Alpha  occ. eigenvalues --  -10.23082 -10.22889 -10.22789 -10.22736 -10.22619
 Alpha  occ. eigenvalues --  -10.22504 -10.22501 -10.22419 -10.22384 -10.22210
 Alpha  occ. eigenvalues --  -10.22153 -10.22148 -10.21946 -10.21717 -10.21656
 Alpha  occ. eigenvalues --  -10.21536  -3.14485  -1.87335  -1.86854  -1.86706
 Alpha  occ. eigenvalues --   -1.12558  -1.08013  -1.06480  -1.04110  -1.03227
 Alpha  occ. eigenvalues --   -0.99963  -0.99202  -0.98299  -0.98050  -0.96789
 Alpha  occ. eigenvalues --   -0.87170  -0.84785  -0.83657  -0.83557  -0.83304
 Alpha  occ. eigenvalues --   -0.82833  -0.82687  -0.81880  -0.81521  -0.81384
 Alpha  occ. eigenvalues --   -0.81051  -0.79725  -0.78748  -0.78226  -0.77569
 Alpha  occ. eigenvalues --   -0.76726  -0.76327  -0.75505  -0.74924  -0.74797
 Alpha  occ. eigenvalues --   -0.73894  -0.72769  -0.72165  -0.71638  -0.70559
 Alpha  occ. eigenvalues --   -0.69876  -0.69576  -0.69520  -0.69000  -0.68489
 Alpha  occ. eigenvalues --   -0.68002  -0.67439  -0.66691  -0.64683  -0.63240
 Alpha  occ. eigenvalues --   -0.63124  -0.62804  -0.61747  -0.60985  -0.60301
 Alpha  occ. eigenvalues --   -0.60021  -0.59746  -0.59411  -0.59112  -0.58524
 Alpha  occ. eigenvalues --   -0.58249  -0.57382  -0.56799  -0.56444  -0.55006
 Alpha  occ. eigenvalues --   -0.54589  -0.54089  -0.53654  -0.53270  -0.52756
 Alpha  occ. eigenvalues --   -0.52282  -0.51897  -0.50852  -0.50292  -0.49899
 Alpha  occ. eigenvalues --   -0.49771  -0.49192  -0.48689  -0.48542  -0.48139
 Alpha  occ. eigenvalues --   -0.47869  -0.47796  -0.47707  -0.47495  -0.47340
 Alpha  occ. eigenvalues --   -0.47223  -0.46877  -0.46547  -0.46465  -0.46157
 Alpha  occ. eigenvalues --   -0.45949  -0.45855  -0.45639  -0.45306  -0.45102
 Alpha  occ. eigenvalues --   -0.45091  -0.44901  -0.44776  -0.44340  -0.44246
 Alpha  occ. eigenvalues --   -0.44158  -0.43997  -0.43797  -0.43590  -0.43282
 Alpha  occ. eigenvalues --   -0.42932  -0.42875  -0.42602  -0.42435  -0.42390
 Alpha  occ. eigenvalues --   -0.42173  -0.41777  -0.41460  -0.41408  -0.41242
 Alpha  occ. eigenvalues --   -0.40814  -0.40657  -0.40559  -0.40476  -0.40181
 Alpha  occ. eigenvalues --   -0.40042  -0.39985  -0.39938  -0.39773  -0.39495
 Alpha  occ. eigenvalues --   -0.39390  -0.39243  -0.39046  -0.38894  -0.38766
 Alpha  occ. eigenvalues --   -0.38672  -0.38540  -0.38468  -0.38225  -0.38201
 Alpha  occ. eigenvalues --   -0.37817  -0.37631  -0.37500  -0.37295  -0.37140
 Alpha  occ. eigenvalues --   -0.36992  -0.36670  -0.36290  -0.35964  -0.35745
 Alpha  occ. eigenvalues --   -0.35641  -0.35509  -0.35267  -0.35164  -0.34874
 Alpha  occ. eigenvalues --   -0.34714  -0.34497  -0.34354  -0.33782  -0.33663
 Alpha  occ. eigenvalues --   -0.33408  -0.33060  -0.32848  -0.32328  -0.32111
 Alpha  occ. eigenvalues --   -0.32015  -0.31993  -0.31438  -0.31422  -0.31239
 Alpha  occ. eigenvalues --   -0.31082  -0.30460  -0.29308  -0.29185  -0.29109
 Alpha  occ. eigenvalues --   -0.28885  -0.28398  -0.28390  -0.26947  -0.26110
 Alpha  occ. eigenvalues --   -0.25876  -0.25256  -0.25041  -0.24861  -0.20901
 Alpha  occ. eigenvalues --   -0.18848
 Alpha virt. eigenvalues --   -0.11000  -0.05237  -0.03781  -0.01815  -0.01049
 Alpha virt. eigenvalues --   -0.00711  -0.00149   0.01307   0.01709   0.03311
 Alpha virt. eigenvalues --    0.04344   0.04697   0.04927   0.05210   0.05703

 Mulliken charges:
               1
     1  Mg   0.945062
     2  C    0.030688
     3  C   -0.071337
     4  C   -0.064359
     5  C   -0.065298
     6  N   -0.386963
     7  C    0.014104
     8  C   -0.125528
     9  C   -0.140293
    10  C    0.117254
    11  C   -0.013157
    12  C    0.027926
    13  C   -0.061743
    14  C    0.257924
    15  O   -0.250572
    16  O   -0.347820
    17  N   -0.513885
    18  C    0.165715
    19  C   -0.166364
    20  C   -0.123255
    21  C    0.211933
    22  C    0.034738
    23  C    0.069586
    24  O   -0.211082
    25  C   -0.047105
    26  N   -0.384258
    27  C    0.055198
    28  C   -0.108328
    29  C   -0.045042
    30  C   -0.012354
    31  C   -0.008912
    32  C   -0.042832
    33  C   -0.065245
    34  N   -0.440284
    35  C    0.199606
    36  C   -0.192787
    37  C   -0.008569
    38  C    0.151130
    39  C    0.081782
    40  C    0.112072
    41  O   -0.210246
    42  C   -0.097799
    43  C    0.322823
    44  O   -0.309270
    45  O   -0.378874
    46  C    0.122710
    47  C    0.248737
    48  C   -0.138316
    49  C   -0.215472
    50  C    0.005948
    51  C    0.015719
    52  C   -0.040908
    53  C   -0.034260
    54  C   -0.215596
    55  C   -0.006271
    56  C    0.007766
    57  C   -0.034411
    58  C   -0.016010
    59  C   -0.233631
    60  C   -0.009283
    61  C   -0.026425
    62  C   -0.035401
    63  C    0.011637
    64  C   -0.255119
    65  C   -0.014148
    66  C   -0.011665
    67  H   -0.006318
    68  H    0.034735
    69  H   -0.003092
    70  H    0.067459
    71  H    0.047133
    72  H    0.047919
    73  H    0.044235
    74  H    0.043433
    75  H    0.029708
    76  H    0.058635
    77  H    0.037868
    78  H    0.067464
    79  H    0.042247
    80  H    0.050904
    81  H    0.070782
    82  H    0.057003
    83  H    0.071657
    84  H    0.056475
    85  H    0.054121
    86  H    0.050571
    87  H    0.026902
    88  H    0.048021
    89  H    0.047889
    90  H    0.048885
    91  H    0.043674
    92  H    0.042492
    93  H    0.045631
    94  H    0.038730
    95  H    0.027069
    96  H    0.063153
    97  H    0.062032
    98  H    0.096473
    99  H    0.063065
   100  H    0.060150
   101  H    0.057513
   102  H    0.072814
   103  H    0.053266
   104  H    0.027878
   105  H    0.027105
   106  H    0.046670
   107  H    0.063412
   108  H    0.040105
   109  H    0.013315
   110  H    0.030775
   111  H    0.030868
   112  H    0.030374
   113  H    0.023017
   114  H    0.036097
   115  H    0.025403
   116  H    0.026426
   117  H    0.041031
   118  H    0.017803
   119  H    0.022693
   120  H    0.035598
   121  H    0.042202
   122  H    0.016225
   123  H    0.034134
   124  H    0.025734
   125  H    0.044068
   126  H    0.036098
   127  H    0.037937
   128  H    0.013768
   129  H    0.021136
   130  H    0.026983
   131  H    0.026528
   132  H    0.025154
   133  H    0.022235
   134  H    0.045494
   135  H    0.037357
   136  H    0.015136
   137  H    0.038297
   138  H    0.028158
   139  H    0.027510
   140  H    0.046997
 Sum of Mulliken charges =  -0.00000

 Dipole moment (field-independent basis, Debye):
    X=             -2.7554    Y=              4.6222    Z=             -0.6203  Tot=              5.4168
 Quadrupole moment (field-independent basis, Debye-Ang):
   XX=           -368.2811   YY=           -422.6334   ZZ=           -399.9916
   XY=             13.5074   XZ=             24.3610   YZ=              1.9422

 Normal termination of Gaussian 16 at Thu May  5 06:48:40 2022.
