 Gaussian 16, Revision A.03,
 Gaussian 16:  ES64L-G16RevA.03 25-Dec-2016

 --------------------------------
 #p wB97XD/Def2SVP td=(nstates=5)
 --------------------------------

 ---------------------------------------------------
 step_701_chromophore_7 TDDFT with wB97XD functional
 ---------------------------------------------------
 Symbolic Z-matrix:
 Charge =  0 Multiplicity = 1

                         Standard orientation:
 ---------------------------------------------------------------------
 Center     Atomic      Atomic             Coordinates (Angstroms)
 Number     Number       Type             X           Y           Z
 ---------------------------------------------------------------------
      1         12           0        6.027016    0.753148    0.102466
      2          6           0        3.779801   -2.038799    0.163940
      3          6           0        3.624945    2.577650   -1.300441
      4          6           0        8.225325    3.259766    0.123837
      5          6           0        8.486579   -1.479299    1.159415
      6          7           0        3.948801    0.153405   -0.521589
      7          6           0        3.179267   -0.887444   -0.161711
      8          6           0        1.732548   -0.633007   -0.633785
      9          6           0        1.786605    0.856035   -1.173886
     10          6           0        3.237786    1.225946   -1.038643
     11          6           0        1.307013    1.013923   -2.688308
     12          6           0        0.686203   -0.796028    0.521865
     13          6           0       -0.779379   -0.946768    0.048809
     14          6           0       -1.500033   -2.279104    0.207065
     15          8           0       -1.338399   -3.041886    1.141951
     16          8           0       -2.607405   -2.271283   -0.563595
     17          7           0        5.901525    2.678989   -0.487434
     18          6           0        4.853380    3.250272   -1.073309
     19          6           0        5.138101    4.664471   -1.288612
     20          6           0        6.512405    4.844270   -0.843375
     21          6           0        6.981443    3.495209   -0.430069
     22          6           0        4.088681    5.539696   -1.936830
     23          6           0        7.427925    6.070143   -0.939576
     24          8           0        8.571954    6.103503   -0.579110
     25          6           0        6.778172    7.290019   -1.591446
     26          7           0        8.195369    0.832807    0.380831
     27          6           0        8.836917    2.023266    0.475275
     28          6           0       10.205354    1.844569    1.108692
     29          6           0       10.275696    0.397009    1.486444
     30          6           0        8.888956   -0.158310    1.028009
     31          6           0       11.396890    2.364285    0.179056
     32          6           0       10.588782    0.094921    3.013518
     33          6           0       11.550841   -0.987848    3.371040
     34          7           0        6.168698   -1.379095    0.436651
     35          6           0        7.302825   -2.129121    0.850041
     36          6           0        6.910291   -3.504747    1.044311
     37          6           0        5.525567   -3.531566    0.734362
     38          6           0        5.124695   -2.190960    0.427826
     39          6           0        7.752158   -4.585604    1.511380
     40          6           0        4.333931   -4.343464    0.631993
     41          8           0        4.172921   -5.542251    0.762266
     42          6           0        3.152781   -3.410349    0.283793
     43          6           0        2.514132   -3.851159   -0.951903
     44          8           0        2.973522   -3.556852   -2.109993
     45          8           0        1.252959   -4.446189   -0.685633
     46          6           0        0.469142   -4.616008   -1.978183
     47          6           0       -3.457255   -3.421844   -0.552079
     48          6           0       -4.869486   -2.969959   -0.557400
     49          6           0       -5.925113   -3.719121   -0.705154
     50          6           0       -5.907924   -5.267460   -0.993737
     51          6           0       -7.351826   -3.244551   -0.494647
     52          6           0       -7.912050   -2.265095   -1.559849
     53          6           0       -8.178305   -0.831561   -0.956222
     54          6           0       -9.550076   -0.302138   -1.327978
     55          6           0       -9.349530    0.404952   -2.697763
     56          6           0      -10.015679    0.719961   -0.210741
     57          6           0      -11.544238    0.459501    0.166236
     58          6           0      -12.489710    1.620929   -0.220486
     59          6           0      -13.965932    1.156298   -0.615042
     60          6           0      -14.297324    0.923259   -2.145650
     61          6           0      -14.927505    2.161288   -0.040093
     62          6           0      -15.406141    1.968425    1.413966
     63          6           0      -15.001146    3.118860    2.408656
     64          6           0      -13.692148    2.809000    3.195494
     65          6           0      -13.988656    2.505165    4.682912
     66          6           0      -12.560831    3.822551    2.984719
     67          1           0        2.838936    3.211374   -1.717251
     68          1           0        8.900684    4.089152    0.345692
     69          1           0        9.349362   -2.002994    1.576748
     70          1           0        1.406513   -1.283660   -1.444398
     71          1           0        1.192488    1.526251   -0.551737
     72          1           0        0.617783    0.249808   -3.047556
     73          1           0        2.107482    0.920018   -3.422518
     74          1           0        0.988752    2.045042   -2.843255
     75          1           0        0.620747    0.082436    1.165235
     76          1           0        1.066947   -1.647272    1.084936
     77          1           0       -0.835999   -0.671143   -1.004445
     78          1           0       -1.312575   -0.079003    0.435288
     79          1           0        4.148205    6.598556   -1.685556
     80          1           0        3.083120    5.255799   -1.625001
     81          1           0        4.141155    5.373105   -3.012845
     82          1           0        7.527450    8.055823   -1.794227
     83          1           0        5.913684    7.704994   -1.073331
     84          1           0        6.375534    6.862147   -2.509830
     85          1           0       10.311051    2.450409    2.009347
     86          1           0       10.962912   -0.112634    0.811923
     87          1           0       11.985670    1.485393   -0.085273
     88          1           0       12.038478    3.154856    0.568295
     89          1           0       11.188379    2.767419   -0.812131
     90          1           0        9.652046   -0.233231    3.465641
     91          1           0       10.971901    0.987490    3.507920
     92          1           0       12.331353   -1.138154    2.625137
     93          1           0       10.966783   -1.886251    3.568459
     94          1           0       12.068985   -0.727899    4.294536
     95          1           0        8.693457   -4.145853    1.840320
     96          1           0        7.974162   -5.298050    0.715629
     97          1           0        7.272578   -5.172612    2.294484
     98          1           0        2.398290   -3.469714    1.068195
     99          1           0       -0.485361   -5.068689   -1.707877
    100          1           0        0.958418   -5.319250   -2.652244
    101          1           0        0.372870   -3.732735   -2.610502
    102          1           0       -3.295370   -4.005952    0.353197
    103          1           0       -3.287652   -4.069342   -1.411405
    104          1           0       -5.070352   -1.899486   -0.590091
    105          1           0       -4.920120   -5.631778   -1.273422
    106          1           0       -6.474453   -5.432979   -1.910240
    107          1           0       -6.402550   -5.762825   -0.157993
    108          1           0       -7.467615   -2.830693    0.507447
    109          1           0       -8.055453   -4.060717   -0.332970
    110          1           0       -8.774952   -2.567918   -2.152489
    111          1           0       -7.146325   -2.150565   -2.327621
    112          1           0       -7.357322   -0.172211   -1.235548
    113          1           0       -8.095362   -0.976378    0.120555
    114          1           0      -10.195892   -1.180490   -1.307965
    115          1           0      -10.192467    1.069079   -2.890386
    116          1           0       -9.453358   -0.263752   -3.551700
    117          1           0       -8.432214    0.967535   -2.869577
    118          1           0       -9.928012    1.729049   -0.615644
    119          1           0       -9.263790    0.732422    0.577755
    120          1           0      -11.501991    0.539506    1.253464
    121          1           0      -11.919273   -0.523818   -0.116836
    122          1           0      -12.179906    2.030069   -1.181129
    123          1           0      -12.438875    2.511432    0.406135
    124          1           0      -14.150055    0.173441   -0.182802
    125          1           0      -15.013032    0.102188   -2.121174
    126          1           0      -13.367415    0.702253   -2.669194
    127          1           0      -14.773890    1.813976   -2.556652
    128          1           0      -15.867013    2.176732   -0.591470
    129          1           0      -14.482538    3.121518   -0.300900
    130          1           0      -14.935868    1.040256    1.737043
    131          1           0      -16.478312    1.773699    1.441862
    132          1           0      -15.860439    3.339461    3.041462
    133          1           0      -14.912717    3.997363    1.769915
    134          1           0      -13.152869    1.911302    2.894097
    135          1           0      -14.882869    3.014135    5.043819
    136          1           0      -13.156475    2.886771    5.273991
    137          1           0      -14.003357    1.440121    4.915549
    138          1           0      -11.620410    3.271973    2.982024
    139          1           0      -12.471410    4.439814    3.878921
    140          1           0      -12.748718    4.371063    2.061868
 ---------------------------------------------------------------------

 SCF Done:  E(RwB97XD) =  -3007.84542582     A.U. after   19 cycles

 Excitation energies and oscillator strengths:

 Excited State   1:      Singlet-A      1.6980 eV  730.17 nm  f=0.3728  <S**2>=0.000
     245 -> 248        0.19621
     246 -> 247        0.68024
     245 <- 248        0.11837
 This state for optimization and/or second-order correction.
 Total Energy, E(TD-HF/TD-DFT) =  -3007.78302459
 Copying the excited state density for this state as the 1-particle RhoCI density.

 Excited State   2:      Singlet-A      2.1903 eV  566.06 nm  f=0.1017  <S**2>=0.000
     245 -> 247        0.63454
     246 -> 248       -0.29802

 Excited State   3:      Singlet-A      3.4419 eV  360.22 nm  f=0.0001  <S**2>=0.000
     241 -> 247       -0.19402
     244 -> 247        0.64800

 Excited State   4:      Singlet-A      3.5191 eV  352.32 nm  f=0.3496  <S**2>=0.000
     239 -> 247       -0.11063
     241 -> 247        0.35039
     243 -> 247        0.20459
     245 -> 247        0.19193
     246 -> 248        0.49394

 Excited State   5:      Singlet-A      3.5550 eV  348.76 nm  f=0.0377  <S**2>=0.000
     241 -> 247       -0.18843
     243 -> 247        0.51762
     243 -> 249       -0.27288
     243 -> 250       -0.22560
     246 -> 248       -0.15278

 The electronic state is 1-A.
 Alpha  occ. eigenvalues --  -46.95445 -19.30726 -19.30561 -19.24771 -19.24667
 Alpha  occ. eigenvalues --  -19.24659 -19.22884 -14.46490 -14.46204 -14.44442
 Alpha  occ. eigenvalues --  -14.43213 -10.43350 -10.43325 -10.39629 -10.37994
 Alpha  occ. eigenvalues --  -10.35728 -10.35584 -10.35527 -10.35089 -10.34593
 Alpha  occ. eigenvalues --  -10.34445 -10.34327 -10.33856 -10.33665 -10.33231
 Alpha  occ. eigenvalues --  -10.32148 -10.32074 -10.32059 -10.31990 -10.31780
 Alpha  occ. eigenvalues --  -10.31717 -10.31707 -10.31658 -10.31489 -10.31435
 Alpha  occ. eigenvalues --  -10.31281 -10.30857 -10.30706 -10.30494 -10.30494
 Alpha  occ. eigenvalues --  -10.30455 -10.30384 -10.30308 -10.30006 -10.29947
 Alpha  occ. eigenvalues --  -10.29848 -10.29834 -10.29509 -10.29451 -10.29445
 Alpha  occ. eigenvalues --  -10.29364 -10.29196 -10.29137 -10.29091 -10.28957
 Alpha  occ. eigenvalues --  -10.28887 -10.28885 -10.28741 -10.28637 -10.28588
 Alpha  occ. eigenvalues --  -10.28513 -10.28487 -10.28286 -10.28155 -10.28082
 Alpha  occ. eigenvalues --  -10.27899  -3.21319  -1.94918  -1.94436  -1.94283
 Alpha  occ. eigenvalues --   -1.19903  -1.15400  -1.14130  -1.11439  -1.10538
 Alpha  occ. eigenvalues --   -1.07317  -1.06703  -1.05633  -1.05451  -1.04034
 Alpha  occ. eigenvalues --   -0.94665  -0.92443  -0.91324  -0.91161  -0.90936
 Alpha  occ. eigenvalues --   -0.90466  -0.90341  -0.89451  -0.89233  -0.89040
 Alpha  occ. eigenvalues --   -0.88700  -0.87356  -0.86387  -0.85782  -0.85209
 Alpha  occ. eigenvalues --   -0.84424  -0.84050  -0.83183  -0.82575  -0.82429
 Alpha  occ. eigenvalues --   -0.81548  -0.80456  -0.79858  -0.79261  -0.78151
 Alpha  occ. eigenvalues --   -0.77466  -0.77277  -0.77181  -0.76676  -0.76144
 Alpha  occ. eigenvalues --   -0.75611  -0.74929  -0.74228  -0.72286  -0.70849
 Alpha  occ. eigenvalues --   -0.70651  -0.70309  -0.69415  -0.68612  -0.67750
 Alpha  occ. eigenvalues --   -0.67551  -0.67186  -0.67052  -0.66510  -0.66016
 Alpha  occ. eigenvalues --   -0.65898  -0.65051  -0.64434  -0.63819  -0.62579
 Alpha  occ. eigenvalues --   -0.62085  -0.61441  -0.61049  -0.60662  -0.60186
 Alpha  occ. eigenvalues --   -0.59700  -0.59295  -0.58357  -0.57711  -0.57246
 Alpha  occ. eigenvalues --   -0.57102  -0.56585  -0.56071  -0.55823  -0.55551
 Alpha  occ. eigenvalues --   -0.55307  -0.55228  -0.55025  -0.54832  -0.54749
 Alpha  occ. eigenvalues --   -0.54700  -0.54505  -0.53856  -0.53798  -0.53508
 Alpha  occ. eigenvalues --   -0.53333  -0.53238  -0.52981  -0.52691  -0.52438
 Alpha  occ. eigenvalues --   -0.52411  -0.52239  -0.52152  -0.51731  -0.51693
 Alpha  occ. eigenvalues --   -0.51546  -0.51370  -0.51188  -0.50882  -0.50554
 Alpha  occ. eigenvalues --   -0.50236  -0.50165  -0.50011  -0.49733  -0.49637
 Alpha  occ. eigenvalues --   -0.49450  -0.49007  -0.48717  -0.48610  -0.48474
 Alpha  occ. eigenvalues --   -0.47961  -0.47814  -0.47731  -0.47673  -0.47375
 Alpha  occ. eigenvalues --   -0.47279  -0.47200  -0.47005  -0.46980  -0.46603
 Alpha  occ. eigenvalues --   -0.46568  -0.46368  -0.46219  -0.46088  -0.45971
 Alpha  occ. eigenvalues --   -0.45823  -0.45694  -0.45603  -0.45388  -0.45291
 Alpha  occ. eigenvalues --   -0.44967  -0.44793  -0.44684  -0.44444  -0.44193
 Alpha  occ. eigenvalues --   -0.44127  -0.43805  -0.43320  -0.43073  -0.42749
 Alpha  occ. eigenvalues --   -0.42650  -0.42499  -0.42378  -0.42227  -0.41863
 Alpha  occ. eigenvalues --   -0.41627  -0.41513  -0.41373  -0.40725  -0.40654
 Alpha  occ. eigenvalues --   -0.40457  -0.40093  -0.39931  -0.39288  -0.39161
 Alpha  occ. eigenvalues --   -0.39070  -0.39038  -0.38457  -0.38310  -0.38208
 Alpha  occ. eigenvalues --   -0.38108  -0.37438  -0.36356  -0.36107  -0.35866
 Alpha  occ. eigenvalues --   -0.35632  -0.35488  -0.35269  -0.33591  -0.33283
 Alpha  occ. eigenvalues --   -0.32670  -0.32038  -0.32005  -0.31206  -0.25887
 Alpha  occ. eigenvalues --   -0.23017
 Alpha virt. eigenvalues --   -0.06827   0.00129   0.02468   0.04727   0.05533
 Alpha virt. eigenvalues --    0.05900   0.06150   0.08037   0.08456   0.09776
 Alpha virt. eigenvalues --    0.10702   0.11533   0.11576   0.11886   0.12517

 Mulliken charges:
               1
     1  Mg   0.938160
     2  C    0.030250
     3  C   -0.092572
     4  C   -0.082077
     5  C   -0.070076
     6  N   -0.353428
     7  C   -0.025158
     8  C   -0.091912
     9  C   -0.116695
    10  C    0.108981
    11  C   -0.003244
    12  C    0.039790
    13  C   -0.041437
    14  C    0.243782
    15  O   -0.246534
    16  O   -0.345134
    17  N   -0.480918
    18  C    0.159095
    19  C   -0.155780
    20  C   -0.118851
    21  C    0.205653
    22  C    0.047582
    23  C    0.066442
    24  O   -0.204055
    25  C   -0.033305
    26  N   -0.351556
    27  C    0.042119
    28  C   -0.083563
    29  C   -0.017357
    30  C   -0.028809
    31  C   -0.000337
    32  C   -0.026497
    33  C   -0.050274
    34  N   -0.401796
    35  C    0.186989
    36  C   -0.186651
    37  C   -0.007380
    38  C    0.134402
    39  C    0.092535
    40  C    0.092000
    41  O   -0.202094
    42  C   -0.057165
    43  C    0.299060
    44  O   -0.305100
    45  O   -0.378422
    46  C    0.137471
    47  C    0.260401
    48  C   -0.147961
    49  C   -0.199606
    50  C    0.023131
    51  C    0.030559
    52  C   -0.027431
    53  C   -0.015484
    54  C   -0.182842
    55  C    0.005186
    56  C    0.019457
    57  C   -0.012418
    58  C    0.007232
    59  C   -0.206591
    60  C    0.006201
    61  C   -0.010967
    62  C   -0.017121
    63  C    0.026827
    64  C   -0.222997
    65  C   -0.002097
    66  C    0.001528
    67  H   -0.016057
    68  H    0.031143
    69  H   -0.016467
    70  H    0.048881
    71  H    0.037318
    72  H    0.043248
    73  H    0.038413
    74  H    0.037776
    75  H    0.023175
    76  H    0.045472
    77  H    0.027271
    78  H    0.062990
    79  H    0.037441
    80  H    0.047233
    81  H    0.067203
    82  H    0.056645
    83  H    0.066702
    84  H    0.048072
    85  H    0.044056
    86  H    0.037392
    87  H    0.020588
    88  H    0.043457
    89  H    0.042160
    90  H    0.039422
    91  H    0.035317
    92  H    0.036340
    93  H    0.039558
    94  H    0.033514
    95  H    0.019717
    96  H    0.058105
    97  H    0.057337
    98  H    0.091128
    99  H    0.060693
   100  H    0.056261
   101  H    0.052915
   102  H    0.068624
   103  H    0.046878
   104  H    0.024059
   105  H    0.021367
   106  H    0.039742
   107  H    0.057806
   108  H    0.031543
   109  H    0.007408
   110  H    0.023072
   111  H    0.020720
   112  H    0.021046
   113  H    0.009358
   114  H    0.022654
   115  H    0.016532
   116  H    0.020663
   117  H    0.035705
   118  H    0.008107
   119  H    0.016241
   120  H    0.024983
   121  H    0.034128
   122  H    0.001334
   123  H    0.016254
   124  H    0.012078
   125  H    0.038601
   126  H    0.029105
   127  H    0.031493
   128  H    0.005394
   129  H    0.009404
   130  H    0.013991
   131  H    0.021098
   132  H    0.018210
   133  H    0.011694
   134  H    0.027277
   135  H    0.030995
   136  H    0.008270
   137  H    0.033285
   138  H    0.023028
   139  H    0.021468
   140  H    0.040829
 Sum of Mulliken charges =  -0.00000

 Dipole moment (field-independent basis, Debye):
    X=             -2.8219    Y=              5.1610    Z=             -0.7779  Tot=              5.9333
 Quadrupole moment (field-independent basis, Debye-Ang):
   XX=           -369.4007   YY=           -420.1704   ZZ=           -399.5626
   XY=             16.9902   XZ=             23.3402   YZ=              1.6965

 Normal termination of Gaussian 16 at Thu May  5 07:14:33 2022.
