 Gaussian 16, Revision A.03,
 Gaussian 16:  ES64L-G16RevA.03 25-Dec-2016

 --------------------
 #p ZINDO=(nstates=5)
 --------------------

 ----------------------------
 step_701_chromophore_7 ZINDO
 ----------------------------
 Symbolic Z-matrix:
 Charge =  0 Multiplicity = 1

                         Standard orientation:
 ---------------------------------------------------------------------
 Center     Atomic      Atomic             Coordinates (Angstroms)
 Number     Number       Type             X           Y           Z
 ---------------------------------------------------------------------
      1         12           0        6.027016    0.753148    0.102466
      2          6           0        3.779801   -2.038799    0.163940
      3          6           0        3.624945    2.577650   -1.300441
      4          6           0        8.225325    3.259766    0.123837
      5          6           0        8.486579   -1.479299    1.159415
      6          7           0        3.948801    0.153405   -0.521589
      7          6           0        3.179267   -0.887444   -0.161711
      8          6           0        1.732548   -0.633007   -0.633785
      9          6           0        1.786605    0.856035   -1.173886
     10          6           0        3.237786    1.225946   -1.038643
     11          6           0        1.307013    1.013923   -2.688308
     12          6           0        0.686203   -0.796028    0.521865
     13          6           0       -0.779379   -0.946768    0.048809
     14          6           0       -1.500033   -2.279104    0.207065
     15          8           0       -1.338399   -3.041886    1.141951
     16          8           0       -2.607405   -2.271283   -0.563595
     17          7           0        5.901525    2.678989   -0.487434
     18          6           0        4.853380    3.250272   -1.073309
     19          6           0        5.138101    4.664471   -1.288612
     20          6           0        6.512405    4.844270   -0.843375
     21          6           0        6.981443    3.495209   -0.430069
     22          6           0        4.088681    5.539696   -1.936830
     23          6           0        7.427925    6.070143   -0.939576
     24          8           0        8.571954    6.103503   -0.579110
     25          6           0        6.778172    7.290019   -1.591446
     26          7           0        8.195369    0.832807    0.380831
     27          6           0        8.836917    2.023266    0.475275
     28          6           0       10.205354    1.844569    1.108692
     29          6           0       10.275696    0.397009    1.486444
     30          6           0        8.888956   -0.158310    1.028009
     31          6           0       11.396890    2.364285    0.179056
     32          6           0       10.588782    0.094921    3.013518
     33          6           0       11.550841   -0.987848    3.371040
     34          7           0        6.168698   -1.379095    0.436651
     35          6           0        7.302825   -2.129121    0.850041
     36          6           0        6.910291   -3.504747    1.044311
     37          6           0        5.525567   -3.531566    0.734362
     38          6           0        5.124695   -2.190960    0.427826
     39          6           0        7.752158   -4.585604    1.511380
     40          6           0        4.333931   -4.343464    0.631993
     41          8           0        4.172921   -5.542251    0.762266
     42          6           0        3.152781   -3.410349    0.283793
     43          6           0        2.514132   -3.851159   -0.951903
     44          8           0        2.973522   -3.556852   -2.109993
     45          8           0        1.252959   -4.446189   -0.685633
     46          6           0        0.469142   -4.616008   -1.978183
     47          6           0       -3.457255   -3.421844   -0.552079
     48          6           0       -4.869486   -2.969959   -0.557400
     49          6           0       -5.925113   -3.719121   -0.705154
     50          6           0       -5.907924   -5.267460   -0.993737
     51          6           0       -7.351826   -3.244551   -0.494647
     52          6           0       -7.912050   -2.265095   -1.559849
     53          6           0       -8.178305   -0.831561   -0.956222
     54          6           0       -9.550076   -0.302138   -1.327978
     55          6           0       -9.349530    0.404952   -2.697763
     56          6           0      -10.015679    0.719961   -0.210741
     57          6           0      -11.544238    0.459501    0.166236
     58          6           0      -12.489710    1.620929   -0.220486
     59          6           0      -13.965932    1.156298   -0.615042
     60          6           0      -14.297324    0.923259   -2.145650
     61          6           0      -14.927505    2.161288   -0.040093
     62          6           0      -15.406141    1.968425    1.413966
     63          6           0      -15.001146    3.118860    2.408656
     64          6           0      -13.692148    2.809000    3.195494
     65          6           0      -13.988656    2.505165    4.682912
     66          6           0      -12.560831    3.822551    2.984719
     67          1           0        2.838936    3.211374   -1.717251
     68          1           0        8.900684    4.089152    0.345692
     69          1           0        9.349362   -2.002994    1.576748
     70          1           0        1.406513   -1.283660   -1.444398
     71          1           0        1.192488    1.526251   -0.551737
     72          1           0        0.617783    0.249808   -3.047556
     73          1           0        2.107482    0.920018   -3.422518
     74          1           0        0.988752    2.045042   -2.843255
     75          1           0        0.620747    0.082436    1.165235
     76          1           0        1.066947   -1.647272    1.084936
     77          1           0       -0.835999   -0.671143   -1.004445
     78          1           0       -1.312575   -0.079003    0.435288
     79          1           0        4.148205    6.598556   -1.685556
     80          1           0        3.083120    5.255799   -1.625001
     81          1           0        4.141155    5.373105   -3.012845
     82          1           0        7.527450    8.055823   -1.794227
     83          1           0        5.913684    7.704994   -1.073331
     84          1           0        6.375534    6.862147   -2.509830
     85          1           0       10.311051    2.450409    2.009347
     86          1           0       10.962912   -0.112634    0.811923
     87          1           0       11.985670    1.485393   -0.085273
     88          1           0       12.038478    3.154856    0.568295
     89          1           0       11.188379    2.767419   -0.812131
     90          1           0        9.652046   -0.233231    3.465641
     91          1           0       10.971901    0.987490    3.507920
     92          1           0       12.331353   -1.138154    2.625137
     93          1           0       10.966783   -1.886251    3.568459
     94          1           0       12.068985   -0.727899    4.294536
     95          1           0        8.693457   -4.145853    1.840320
     96          1           0        7.974162   -5.298050    0.715629
     97          1           0        7.272578   -5.172612    2.294484
     98          1           0        2.398290   -3.469714    1.068195
     99          1           0       -0.485361   -5.068689   -1.707877
    100          1           0        0.958418   -5.319250   -2.652244
    101          1           0        0.372870   -3.732735   -2.610502
    102          1           0       -3.295370   -4.005952    0.353197
    103          1           0       -3.287652   -4.069342   -1.411405
    104          1           0       -5.070352   -1.899486   -0.590091
    105          1           0       -4.920120   -5.631778   -1.273422
    106          1           0       -6.474453   -5.432979   -1.910240
    107          1           0       -6.402550   -5.762825   -0.157993
    108          1           0       -7.467615   -2.830693    0.507447
    109          1           0       -8.055453   -4.060717   -0.332970
    110          1           0       -8.774952   -2.567918   -2.152489
    111          1           0       -7.146325   -2.150565   -2.327621
    112          1           0       -7.357322   -0.172211   -1.235548
    113          1           0       -8.095362   -0.976378    0.120555
    114          1           0      -10.195892   -1.180490   -1.307965
    115          1           0      -10.192467    1.069079   -2.890386
    116          1           0       -9.453358   -0.263752   -3.551700
    117          1           0       -8.432214    0.967535   -2.869577
    118          1           0       -9.928012    1.729049   -0.615644
    119          1           0       -9.263790    0.732422    0.577755
    120          1           0      -11.501991    0.539506    1.253464
    121          1           0      -11.919273   -0.523818   -0.116836
    122          1           0      -12.179906    2.030069   -1.181129
    123          1           0      -12.438875    2.511432    0.406135
    124          1           0      -14.150055    0.173441   -0.182802
    125          1           0      -15.013032    0.102188   -2.121174
    126          1           0      -13.367415    0.702253   -2.669194
    127          1           0      -14.773890    1.813976   -2.556652
    128          1           0      -15.867013    2.176732   -0.591470
    129          1           0      -14.482538    3.121518   -0.300900
    130          1           0      -14.935868    1.040256    1.737043
    131          1           0      -16.478312    1.773699    1.441862
    132          1           0      -15.860439    3.339461    3.041462
    133          1           0      -14.912717    3.997363    1.769915
    134          1           0      -13.152869    1.911302    2.894097
    135          1           0      -14.882869    3.014135    5.043819
    136          1           0      -13.156475    2.886771    5.273991
    137          1           0      -14.003357    1.440121    4.915549
    138          1           0      -11.620410    3.271973    2.982024
    139          1           0      -12.471410    4.439814    3.878921
    140          1           0      -12.748718    4.371063    2.061868
 ---------------------------------------------------------------------

 SCF Done:  E(RZINDO/S) =  -474.334933176     A.U. after   20 cycles

 Excitation energies and oscillator strengths:

 Excited State   1:      Singlet-A      1.2727 eV  974.19 nm  f=0.5791  <S**2>=0.000
     175 ->178         0.19890
     176 ->177         0.66116
 This state for optimization and/or second-order correction.
 Total Energy, E(CIS/TDA) =  -474.288162857
 Copying the excited state density for this state as the 1-particle RhoCI density.

 Excited State   2:      Singlet-A      1.9203 eV  645.65 nm  f=0.0427  <S**2>=0.000
     175 ->177         0.54598
     176 ->178        -0.42413

 Excited State   3:      Singlet-A      2.9885 eV  414.87 nm  f=0.5950  <S**2>=0.000
     168 ->177        -0.13017
     168 ->179         0.15274
     168 ->181        -0.10252
     168 ->185         0.11463
     169 ->179         0.10363
     170 ->177         0.15609
     170 ->179         0.15009
     170 ->182        -0.11822
     171 ->177         0.15420
     175 ->177         0.28604
     176 ->178         0.39423

 Excited State   4:      Singlet-A      3.0091 eV  412.03 nm  f=0.0734  <S**2>=0.000
     168 ->177         0.13299
     168 ->179        -0.10565
     168 ->181         0.10930
     170 ->177         0.24925
     170 ->179         0.27188
     170 ->181         0.16421
     170 ->182        -0.20607
     170 ->185         0.13631
     170 ->187         0.12389
     176 ->178        -0.11668
     176 ->179        -0.26594

 Excited State   5:      Singlet-A      3.0408 eV  407.73 nm  f=0.1986  <S**2>=0.000
     168 ->179         0.14431
     168 ->185         0.10249
     170 ->177         0.14190
     170 ->179         0.14173
     170 ->182        -0.11184
     175 ->177        -0.17432
     176 ->178        -0.24707
     176 ->179         0.43793

 The electronic state is 1-A.
 Alpha  occ. eigenvalues --   -1.84045  -1.82225  -1.79822  -1.75488  -1.71249
 Alpha  occ. eigenvalues --   -1.68532  -1.64577  -1.61168  -1.60104  -1.57668
 Alpha  occ. eigenvalues --   -1.53891  -1.51813  -1.49051  -1.48689  -1.47611
 Alpha  occ. eigenvalues --   -1.44295  -1.41188  -1.40126  -1.39116  -1.38992
 Alpha  occ. eigenvalues --   -1.35917  -1.34580  -1.32458  -1.31741  -1.28868
 Alpha  occ. eigenvalues --   -1.27849  -1.25286  -1.23052  -1.21660  -1.18611
 Alpha  occ. eigenvalues --   -1.18177  -1.15706  -1.14849  -1.13678  -1.12785
 Alpha  occ. eigenvalues --   -1.11561  -1.10701  -1.10315  -1.05431  -1.03763
 Alpha  occ. eigenvalues --   -1.03335  -1.01447  -1.00150  -0.98420  -0.96099
 Alpha  occ. eigenvalues --   -0.95588  -0.94853  -0.93221  -0.92861  -0.92291
 Alpha  occ. eigenvalues --   -0.91409  -0.90340  -0.90060  -0.88848  -0.86864
 Alpha  occ. eigenvalues --   -0.85813  -0.85200  -0.84130  -0.82429  -0.80568
 Alpha  occ. eigenvalues --   -0.80231  -0.78791  -0.76952  -0.76158  -0.75876
 Alpha  occ. eigenvalues --   -0.75568  -0.75035  -0.73887  -0.73453  -0.72808
 Alpha  occ. eigenvalues --   -0.72478  -0.72301  -0.71564  -0.71100  -0.70610
 Alpha  occ. eigenvalues --   -0.70202  -0.69641  -0.69050  -0.68874  -0.68019
 Alpha  occ. eigenvalues --   -0.66978  -0.66642  -0.66488  -0.66033  -0.65899
 Alpha  occ. eigenvalues --   -0.65728  -0.64530  -0.64053  -0.63191  -0.63096
 Alpha  occ. eigenvalues --   -0.62662  -0.62227  -0.61938  -0.61759  -0.61472
 Alpha  occ. eigenvalues --   -0.61294  -0.60951  -0.60589  -0.60476  -0.60200
 Alpha  occ. eigenvalues --   -0.59786  -0.59305  -0.58486  -0.58192  -0.58029
 Alpha  occ. eigenvalues --   -0.57912  -0.57558  -0.57437  -0.56953  -0.56659
 Alpha  occ. eigenvalues --   -0.56539  -0.55587  -0.55295  -0.54988  -0.54485
 Alpha  occ. eigenvalues --   -0.54038  -0.53901  -0.53380  -0.52927  -0.52626
 Alpha  occ. eigenvalues --   -0.52493  -0.52436  -0.51941  -0.51629  -0.51562
 Alpha  occ. eigenvalues --   -0.51131  -0.51061  -0.50948  -0.50699  -0.50299
 Alpha  occ. eigenvalues --   -0.50114  -0.49716  -0.49459  -0.49052  -0.48979
 Alpha  occ. eigenvalues --   -0.48679  -0.48392  -0.48134  -0.47661  -0.47341
 Alpha  occ. eigenvalues --   -0.47221  -0.47017  -0.46892  -0.46726  -0.46577
 Alpha  occ. eigenvalues --   -0.46276  -0.46243  -0.45937  -0.45894  -0.45356
 Alpha  occ. eigenvalues --   -0.45008  -0.44749  -0.44568  -0.44507  -0.44410
 Alpha  occ. eigenvalues --   -0.43723  -0.42390  -0.42324  -0.42061  -0.41923
 Alpha  occ. eigenvalues --   -0.41710  -0.41018  -0.40677  -0.39125  -0.39051
 Alpha  occ. eigenvalues --   -0.38100  -0.36566  -0.35747  -0.34837  -0.34133
 Alpha  occ. eigenvalues --   -0.33287  -0.32450  -0.32390  -0.31819  -0.26411
 Alpha  occ. eigenvalues --   -0.21709
 Alpha virt. eigenvalues --   -0.08245  -0.02051  -0.00490   0.00851   0.01107
 Alpha virt. eigenvalues --    0.02284   0.02394   0.03064   0.04913   0.05503
 Alpha virt. eigenvalues --    0.06508   0.06932   0.07354   0.08124   0.08418

 Mulliken charges:
               1
     1  Mg   0.429651
     2  C   -0.019803
     3  C   -0.102381
     4  C   -0.056379
     5  C   -0.041162
     6  N   -0.294748
     7  C    0.121459
     8  C   -0.001655
     9  C   -0.000265
    10  C    0.149577
    11  C   -0.057688
    12  C   -0.030587
    13  C   -0.002079
    14  C    0.468196
    15  O   -0.505010
    16  O   -0.266188
    17  N   -0.305035
    18  C    0.130201
    19  C    0.004067
    20  C   -0.057521
    21  C    0.134936
    22  C   -0.037419
    23  C    0.333539
    24  O   -0.503155
    25  C   -0.036196
    26  N   -0.262319
    27  C    0.141762
    28  C    0.020212
    29  C    0.004801
    30  C    0.085781
    31  C   -0.062796
    32  C   -0.030070
    33  C   -0.053052
    34  N   -0.332379
    35  C    0.068823
    36  C    0.046408
    37  C   -0.075919
    38  C    0.130709
    39  C   -0.031946
    40  C    0.338439
    41  O   -0.528473
    42  C    0.059850
    43  C    0.490522
    44  O   -0.546199
    45  O   -0.258768
    46  C    0.070271
    47  C    0.111481
    48  C   -0.073100
    49  C   -0.012653
    50  C   -0.054330
    51  C   -0.021485
    52  C   -0.041225
    53  C   -0.039401
    54  C   -0.011380
    55  C   -0.053866
    56  C   -0.046738
    57  C   -0.036762
    58  C   -0.041426
    59  C   -0.017734
    60  C   -0.060365
    61  C   -0.031447
    62  C   -0.039094
    63  C   -0.031164
    64  C   -0.013400
    65  C   -0.058902
    66  C   -0.058423
    67  H    0.023878
    68  H    0.049622
    69  H    0.020330
    70  H    0.045120
    71  H    0.031040
    72  H    0.027363
    73  H    0.021200
    74  H    0.018476
    75  H    0.022815
    76  H    0.033119
    77  H    0.023905
    78  H    0.047721
    79  H    0.025336
    80  H    0.024731
    81  H    0.037205
    82  H    0.037985
    83  H    0.040687
    84  H    0.031042
    85  H    0.031121
    86  H    0.033916
    87  H    0.015146
    88  H    0.026066
    89  H    0.024846
    90  H    0.022304
    91  H    0.019838
    92  H    0.020867
    93  H    0.020468
    94  H    0.014636
    95  H    0.018375
    96  H    0.037197
    97  H    0.036610
    98  H    0.057180
    99  H    0.033355
   100  H    0.042561
   101  H    0.046348
   102  H    0.059855
   103  H    0.045473
   104  H    0.032339
   105  H    0.021784
   106  H    0.022257
   107  H    0.036128
   108  H    0.021790
   109  H    0.012585
   110  H    0.025613
   111  H    0.010269
   112  H    0.020551
   113  H    0.011205
   114  H    0.034549
   115  H    0.006179
   116  H    0.010596
   117  H    0.029529
   118  H    0.014284
   119  H    0.027216
   120  H    0.010730
   121  H    0.036472
   122  H    0.007330
   123  H    0.034452
   124  H    0.014159
   125  H    0.023071
   126  H    0.022866
   127  H    0.022736
   128  H    0.003131
   129  H    0.018558
   130  H    0.014659
   131  H    0.019085
   132  H    0.020329
   133  H    0.016558
   134  H    0.020820
   135  H    0.021323
   136  H    0.009794
   137  H    0.019965
   138  H    0.015816
   139  H    0.018554
   140  H    0.026381
 Sum of Mulliken charges =  -0.00000

 Dipole moment (field-independent basis, Debye):
    X=             -4.2639    Y=              7.8094    Z=             -1.1796  Tot=              8.9755
 N-N= 4.221010439736D+03 E-N= 0.000000000000D+00  KE=-9.116610620289D+03
 Leave Link  601 at Thu May  5 07:26:46 2022, MaxMem=  6710886400 cpu:               0.8 elap:               0.0
 (Enter /sw/apps/gaussian-16.0/g16/l9999.exe)
 1\1\GINC-BP1-COMPUTE192\SP\RZINDO CIS\STO-3G\C55H74Mg1N4O6\OF15641\05-
 May-2022\0\\#p ZINDO=(nstates=5)\\step_701_chromophore_7 ZINDO\\0,1\Mg
 ,0,25.484,-0.73,29.493\C,0,27.76,-0.812,32.261\C,0,22.964,-0.486,31.65
 1\C,0,23.494,-0.654,26.819\C,0,28.243,-1.433,27.482\N,0,25.517,-0.735,
 31.744\C,0,26.509,-0.496,32.618\C,0,25.907,-0.307,34.026\C,0,24.346,-0
 .298,33.752\C,0,24.247,-0.573,32.277\C,0,23.536,-1.395,34.582\C,0,26.3
 86,1.019,34.711\C,0,26.149,1.078,36.239\C,0,27.331,1.026,37.198\O,0,28

 Normal termination of Gaussian 16 at Thu May  5 07:26:47 2022.
