 Gaussian 16, Revision A.03,
 Gaussian 16:  ES64L-G16RevA.03 25-Dec-2016

 ------------------------------
 #p blyp/Def2SVP td=(nstates=5)
 ------------------------------

 --------------------------------------------------
 step_1151_chromophore_9 TDDFT with blyp functional
 --------------------------------------------------
 Symbolic Z-matrix:
 Charge =  0 Multiplicity = 1

                         Standard orientation:
 ---------------------------------------------------------------------
 Center     Atomic      Atomic             Coordinates (Angstroms)
 Number     Number       Type             X           Y           Z
 ---------------------------------------------------------------------
      1         12           0       -5.099487    0.716359   -0.048392
      2          6           0       -3.576349   -2.603313    0.008906
      3          6           0       -1.943687    2.020736    0.014782
      4          6           0       -6.507897    3.738517   -0.028022
      5          6           0       -8.138004   -0.836945    0.378146
      6          7           0       -3.031321   -0.259559   -0.040914
      7          6           0       -2.646221   -1.600825   -0.037907
      8          6           0       -1.118137   -1.656283   -0.214591
      9          6           0       -0.573733   -0.170630   -0.061324
     10          6           0       -1.923042    0.582594    0.115259
     11          6           0        0.362296    0.019519    1.223337
     12          6           0       -0.625240   -2.441829   -1.508931
     13          6           0        0.467167   -3.464539   -1.254492
     14          6           0        1.591877   -3.105489   -0.284910
     15          8           0        1.535650   -3.319128    0.958591
     16          8           0        2.708738   -2.703131   -0.986265
     17          7           0       -4.311043    2.670815    0.052702
     18          6           0       -2.983157    3.038563    0.024650
     19          6           0       -2.912313    4.484676   -0.065612
     20          6           0       -4.191987    5.050799   -0.000763
     21          6           0       -5.081374    3.832660    0.121600
     22          6           0       -1.630079    5.206171   -0.387286
     23          6           0       -4.533731    6.510294   -0.074255
     24          8           0       -5.688431    6.845623   -0.136866
     25          6           0       -3.535389    7.588825   -0.066236
     26          7           0       -6.998401    1.382586    0.263184
     27          6           0       -7.328612    2.651711    0.104949
     28          6           0       -8.827452    2.875816    0.306216
     29          6           0       -9.316360    1.418168    0.577392
     30          6           0       -8.091074    0.602897    0.412486
     31          6           0       -9.199930    3.805360    1.538508
     32          6           0      -10.533066    1.046052   -0.215122
     33          6           0      -10.376035    0.784960   -1.674405
     34          7           0       -5.743319   -1.301573    0.073584
     35          6           0       -7.059292   -1.777270    0.121281
     36          6           0       -7.094846   -3.217322    0.078022
     37          6           0       -5.735638   -3.544012   -0.010434
     38          6           0       -4.970112   -2.372424    0.046350
     39          6           0       -8.250128   -4.097313    0.277986
     40          6           0       -4.876830   -4.693810    0.061494
     41          8           0       -5.057316   -5.895884    0.195084
     42          6           0       -3.454246   -4.149321   -0.117686
     43          6           0       -2.500245   -4.705499    0.904524
     44          8           0       -2.231494   -4.167070    1.997877
     45          8           0       -1.835751   -5.837494    0.507963
     46          6           0       -0.585982   -6.288454    1.231870
     47          6           0        3.852115   -2.447248   -0.143603
     48          6           0        5.067183   -1.927728   -0.907683
     49          6           0        6.023512   -2.557958   -1.576431
     50          6           0        6.080814   -4.060591   -1.760016
     51          6           0        7.289340   -1.838527   -2.082798
     52          6           0        7.078054   -1.043060   -3.331852
     53          6           0        8.454329   -0.355482   -3.788754
     54          6           0        8.565262    1.184432   -3.487661
     55          6           0        7.689154    1.919531   -4.547712
     56          6           0       10.060679    1.745234   -3.493594
     57          6           0       10.309659    2.746699   -2.324693
     58          6           0       11.132609    2.114557   -1.170499
     59          6           0       10.278177    2.057811    0.119488
     60          6           0        9.989070    3.385497    0.756928
     61          6           0       10.855964    0.994542    1.104444
     62          6           0        9.879518    0.803398    2.257101
     63          6           0       10.457502    1.518157    3.538241
     64          6           0       10.062273    0.630893    4.764370
     65          6           0        9.933162    1.492725    5.981053
     66          6           0       11.074149   -0.561322    4.999018
     67          1           0       -0.958000    2.486360    0.075819
     68          1           0       -6.987598    4.718237   -0.077247
     69          1           0       -9.152608   -1.239691    0.389297
     70          1           0       -0.820700   -2.346694    0.574521
     71          1           0        0.001980    0.041297   -0.962610
     72          1           0       -0.057471    0.799427    1.858279
     73          1           0        1.439191    0.172773    1.154224
     74          1           0        0.296006   -0.929721    1.755863
     75          1           0       -0.195894   -1.678802   -2.158148
     76          1           0       -1.514481   -2.874369   -1.965410
     77          1           0        0.899863   -3.561962   -2.249623
     78          1           0       -0.022640   -4.400309   -0.984875
     79          1           0       -1.431452    5.972185    0.362676
     80          1           0       -1.561614    5.708800   -1.352212
     81          1           0       -0.784387    4.524481   -0.472736
     82          1           0       -2.787010    7.532237    0.724977
     83          1           0       -4.059656    8.531761    0.089588
     84          1           0       -3.063221    7.612115   -1.048397
     85          1           0       -9.341196    3.206674   -0.597170
     86          1           0       -9.722673    1.285170    1.580658
     87          1           0       -9.891611    3.464848    2.309366
     88          1           0       -9.722716    4.628996    1.052180
     89          1           0       -8.362026    4.247676    2.077503
     90          1           0      -11.219403    1.874335   -0.036046
     91          1           0      -11.057180    0.286268    0.364716
     92          1           0      -11.043102    1.524511   -2.117528
     93          1           0      -10.662988   -0.251188   -1.853315
     94          1           0       -9.394073    0.862695   -2.141349
     95          1           0       -9.010031   -3.684584    0.941944
     96          1           0       -7.958132   -5.105069    0.573052
     97          1           0       -8.680024   -4.176325   -0.720145
     98          1           0       -3.240581   -4.352579   -1.166912
     99          1           0       -0.388120   -7.349760    1.081504
    100          1           0       -0.607928   -6.071561    2.299724
    101          1           0        0.290923   -5.795987    0.814899
    102          1           0        4.147356   -3.438893    0.200969
    103          1           0        3.677748   -1.833003    0.738857
    104          1           0        5.242189   -0.868994   -0.714787
    105          1           0        6.752793   -4.422732   -0.982360
    106          1           0        6.453202   -4.360262   -2.740296
    107          1           0        5.086712   -4.490191   -1.630474
    108          1           0        8.026983   -2.624876   -2.242605
    109          1           0        7.703236   -1.245711   -1.267432
    110          1           0        6.251169   -0.349084   -3.179198
    111          1           0        6.825794   -1.658312   -4.196161
    112          1           0        8.530292   -0.552906   -4.857012
    113          1           0        9.268390   -0.857427   -3.266552
    114          1           0        8.090743    1.502567   -2.560385
    115          1           0        8.261523    2.549976   -5.227774
    116          1           0        6.997109    2.583604   -4.028718
    117          1           0        7.092008    1.284420   -5.201703
    118          1           0       10.357249    2.243811   -4.417170
    119          1           0       10.642053    0.825360   -3.555590
    120          1           0        9.428019    3.273576   -1.960434
    121          1           0       10.910482    3.541978   -2.766485
    122          1           0       12.050484    2.667193   -0.970507
    123          1           0       11.275588    1.071491   -1.451287
    124          1           0        9.302907    1.626729   -0.110159
    125          1           0       10.897382    3.528512    1.341769
    126          1           0        9.092783    3.397037    1.377583
    127          1           0       10.049433    4.151596   -0.015428
    128          1           0       11.835769    1.324473    1.450236
    129          1           0       10.943121    0.040936    0.583502
    130          1           0        9.693400   -0.241281    2.504705
    131          1           0        8.903816    1.232381    2.026033
    132          1           0       10.160723    2.564960    3.607963
    133          1           0       11.544204    1.606168    3.510422
    134          1           0        9.087068    0.167505    4.618091
    135          1           0       10.695768    1.123565    6.666256
    136          1           0        8.965739    1.345982    6.462675
    137          1           0       10.195884    2.550007    5.987503
    138          1           0       10.975599   -1.487833    4.433639
    139          1           0       11.029621   -0.689961    6.080411
    140          1           0       12.055395   -0.177728    4.717818
 ---------------------------------------------------------------------

 SCF Done:  E(RB-LYP) =  -3007.37359509     A.U. after   21 cycles

 Excitation energies and oscillator strengths:

 Excited State   1:      Singlet-A      1.7774 eV  697.57 nm  f=0.2933  <S**2>=0.000
     245 -> 248        0.18514
     246 -> 247        0.69082
     246 <- 247       -0.15288
 This state for optimization and/or second-order correction.
 Total Energy, E(TD-HF/TD-DFT) =  -3007.30827758
 Copying the excited state density for this state as the 1-particle RhoCI density.

 Excited State   2:      Singlet-A      1.8957 eV  654.01 nm  f=0.0290  <S**2>=0.000
     244 -> 247        0.56350
     245 -> 247        0.40877
     246 -> 248       -0.10704

 Excited State   3:      Singlet-A      2.0135 eV  615.75 nm  f=0.0557  <S**2>=0.000
     243 -> 247        0.29891
     244 -> 247       -0.38876
     245 -> 247        0.46205
     246 -> 248       -0.18622

 Excited State   4:      Singlet-A      2.0280 eV  611.37 nm  f=0.0133  <S**2>=0.000
     243 -> 247        0.63989
     244 -> 247        0.16641
     245 -> 247       -0.22343
     246 -> 248        0.10010

 Excited State   5:      Singlet-A      2.5175 eV  492.49 nm  f=0.0076  <S**2>=0.000
     240 -> 247        0.23638
     241 -> 247        0.54115
     242 -> 247       -0.38348

 The electronic state is 1-A.
 Alpha  occ. eigenvalues --  -46.27115 -18.83734 -18.81228 -18.77991 -18.75555
 Alpha  occ. eigenvalues --  -18.75336 -18.75256 -14.03078 -14.02968 -14.01226
 Alpha  occ. eigenvalues --  -14.00491 -10.05316 -10.03629  -9.99666  -9.98983
 Alpha  occ. eigenvalues --   -9.98344  -9.97159  -9.97049  -9.96324  -9.96277
 Alpha  occ. eigenvalues --   -9.96075  -9.95872  -9.95773  -9.95410  -9.94484
 Alpha  occ. eigenvalues --   -9.94050  -9.93950  -9.93880  -9.93734  -9.93609
 Alpha  occ. eigenvalues --   -9.93599  -9.93587  -9.93349  -9.93162  -9.93149
 Alpha  occ. eigenvalues --   -9.93134  -9.92997  -9.92881  -9.92839  -9.92764
 Alpha  occ. eigenvalues --   -9.92523  -9.92518  -9.92386  -9.92365  -9.92132
 Alpha  occ. eigenvalues --   -9.92116  -9.92070  -9.91975  -9.91962  -9.91916
 Alpha  occ. eigenvalues --   -9.91880  -9.91722  -9.91628  -9.91568  -9.91485
 Alpha  occ. eigenvalues --   -9.91448  -9.91275  -9.91126  -9.91087  -9.90963
 Alpha  occ. eigenvalues --   -9.90901  -9.90884  -9.90696  -9.90616  -9.90439
 Alpha  occ. eigenvalues --   -9.90210  -2.91693  -1.72132  -1.71548  -1.71425
 Alpha  occ. eigenvalues --   -0.98533  -0.95662  -0.92794  -0.90994  -0.89718
 Alpha  occ. eigenvalues --   -0.87508  -0.87240  -0.86045  -0.84449  -0.83445
 Alpha  occ. eigenvalues --   -0.75079  -0.74169  -0.73450  -0.73379  -0.72555
 Alpha  occ. eigenvalues --   -0.71774  -0.71346  -0.70972  -0.70746  -0.70348
 Alpha  occ. eigenvalues --   -0.69456  -0.68894  -0.67960  -0.67062  -0.66889
 Alpha  occ. eigenvalues --   -0.66330  -0.65837  -0.65358  -0.64907  -0.64178
 Alpha  occ. eigenvalues --   -0.64145  -0.62568  -0.61910  -0.61720  -0.60792
 Alpha  occ. eigenvalues --   -0.60395  -0.59972  -0.59872  -0.59697  -0.58872
 Alpha  occ. eigenvalues --   -0.58441  -0.57718  -0.56500  -0.55926  -0.55535
 Alpha  occ. eigenvalues --   -0.54514  -0.53878  -0.52886  -0.52635  -0.51118
 Alpha  occ. eigenvalues --   -0.50953  -0.50800  -0.50571  -0.50177  -0.50029
 Alpha  occ. eigenvalues --   -0.49789  -0.49629  -0.48357  -0.47712  -0.46455
 Alpha  occ. eigenvalues --   -0.46386  -0.45909  -0.45553  -0.44883  -0.44432
 Alpha  occ. eigenvalues --   -0.44075  -0.43959  -0.42917  -0.42708  -0.42560
 Alpha  occ. eigenvalues --   -0.42352  -0.41797  -0.41697  -0.41410  -0.41271
 Alpha  occ. eigenvalues --   -0.41036  -0.40710  -0.40460  -0.40282  -0.39982
 Alpha  occ. eigenvalues --   -0.39943  -0.39746  -0.39403  -0.39293  -0.39174
 Alpha  occ. eigenvalues --   -0.38870  -0.38670  -0.38451  -0.38300  -0.38123
 Alpha  occ. eigenvalues --   -0.37885  -0.37675  -0.37562  -0.37214  -0.36910
 Alpha  occ. eigenvalues --   -0.36849  -0.36789  -0.36686  -0.36525  -0.36449
 Alpha  occ. eigenvalues --   -0.36155  -0.35995  -0.35767  -0.35613  -0.35546
 Alpha  occ. eigenvalues --   -0.35253  -0.35076  -0.34912  -0.34625  -0.34524
 Alpha  occ. eigenvalues --   -0.34421  -0.34277  -0.33844  -0.33808  -0.33689
 Alpha  occ. eigenvalues --   -0.33545  -0.33504  -0.33332  -0.33243  -0.32893
 Alpha  occ. eigenvalues --   -0.32844  -0.32742  -0.32500  -0.32386  -0.32293
 Alpha  occ. eigenvalues --   -0.32107  -0.31935  -0.31674  -0.31621  -0.31458
 Alpha  occ. eigenvalues --   -0.31297  -0.31187  -0.31099  -0.30866  -0.30828
 Alpha  occ. eigenvalues --   -0.30667  -0.30479  -0.29893  -0.29830  -0.29628
 Alpha  occ. eigenvalues --   -0.29495  -0.29431  -0.29218  -0.29080  -0.28616
 Alpha  occ. eigenvalues --   -0.28530  -0.28388  -0.28300  -0.28134  -0.27878
 Alpha  occ. eigenvalues --   -0.27657  -0.27552  -0.26728  -0.26689  -0.26525
 Alpha  occ. eigenvalues --   -0.26353  -0.25855  -0.25736  -0.25577  -0.25229
 Alpha  occ. eigenvalues --   -0.25096  -0.24650  -0.23804  -0.23455  -0.23019
 Alpha  occ. eigenvalues --   -0.22833  -0.22688  -0.21904  -0.21362  -0.20876
 Alpha  occ. eigenvalues --   -0.20608  -0.20295  -0.18821  -0.18456  -0.16928
 Alpha  occ. eigenvalues --   -0.15624
 Alpha virt. eigenvalues --   -0.11459  -0.06740  -0.05794  -0.04918  -0.04448
 Alpha virt. eigenvalues --   -0.03126  -0.02846  -0.02015  -0.01444   0.00513
 Alpha virt. eigenvalues --    0.01271   0.01594   0.01748   0.02415   0.02991

 Mulliken charges:
               1
     1  Mg   0.698528
     2  C   -0.007476
     3  C   -0.039712
     4  C   -0.042546
     5  C   -0.071124
     6  N   -0.233177
     7  C   -0.089866
     8  C   -0.009318
     9  C   -0.009718
    10  C    0.064132
    11  C    0.095320
    12  C    0.087514
    13  C    0.150810
    14  C    0.118421
    15  O   -0.230956
    16  O   -0.248555
    17  N   -0.303108
    18  C    0.107138
    19  C   -0.121465
    20  C    0.060398
    21  C    0.069212
    22  C    0.157095
    23  C   -0.104972
    24  O   -0.147800
    25  C    0.150358
    26  N   -0.224510
    27  C    0.050484
    28  C    0.029169
    29  C    0.044073
    30  C    0.036471
    31  C    0.102206
    32  C    0.036186
    33  C    0.103664
    34  N   -0.226531
    35  C    0.090550
    36  C   -0.158911
    37  C    0.061403
    38  C    0.066201
    39  C    0.189752
    40  C   -0.067174
    41  O   -0.131090
    42  C    0.088056
    43  C    0.149182
    44  O   -0.203262
    45  O   -0.281534
    46  C    0.214237
    47  C    0.309396
    48  C   -0.100422
    49  C   -0.143776
    50  C    0.135638
    51  C    0.126745
    52  C    0.092388
    53  C    0.091269
    54  C   -0.077025
    55  C    0.089288
    56  C    0.107956
    57  C    0.085929
    58  C    0.144931
    59  C   -0.161233
    60  C    0.145274
    61  C    0.116110
    62  C    0.087583
    63  C    0.069724
    64  C   -0.092865
    65  C    0.120520
    66  C    0.098487
    67  H   -0.055209
    68  H   -0.042308
    69  H   -0.063575
    70  H    0.012172
    71  H   -0.015311
    72  H   -0.006916
    73  H   -0.012281
    74  H    0.006411
    75  H   -0.025357
    76  H   -0.016275
    77  H   -0.012059
    78  H    0.004482
    79  H   -0.006773
    80  H   -0.001005
    81  H   -0.024434
    82  H    0.005368
    83  H   -0.009712
    84  H    0.007143
    85  H   -0.016186
    86  H   -0.028231
    87  H   -0.007230
    88  H   -0.013005
    89  H    0.007113
    90  H   -0.038900
    91  H   -0.031655
    92  H   -0.005114
    93  H   -0.006663
    94  H    0.001088
    95  H   -0.000712
    96  H    0.010115
    97  H   -0.004914
    98  H    0.015934
    99  H    0.012718
   100  H    0.031558
   101  H    0.010251
   102  H   -0.021254
   103  H    0.006742
   104  H   -0.045083
   105  H    0.010699
   106  H   -0.001920
   107  H   -0.004254
   108  H   -0.044500
   109  H   -0.017255
   110  H   -0.022016
   111  H   -0.037017
   112  H   -0.025948
   113  H   -0.031460
   114  H   -0.028682
   115  H   -0.023160
   116  H   -0.024393
   117  H   -0.018120
   118  H   -0.036019
   119  H   -0.039716
   120  H   -0.019588
   121  H   -0.047158
   122  H   -0.031183
   123  H   -0.035176
   124  H   -0.045834
   125  H   -0.030811
   126  H    0.003544
   127  H   -0.023075
   128  H   -0.032870
   129  H   -0.046771
   130  H   -0.032345
   131  H   -0.031808
   132  H   -0.030283
   133  H   -0.035405
   134  H   -0.031465
   135  H   -0.047464
   136  H   -0.014244
   137  H   -0.019488
   138  H   -0.006189
   139  H   -0.010263
   140  H   -0.022970
 Sum of Mulliken charges =  -0.00000

 Dipole moment (field-independent basis, Debye):
    X=              3.7686    Y=              2.5384    Z=             -3.6471  Tot=              5.8264
 Quadrupole moment (field-independent basis, Debye-Ang):
   XX=           -362.3884   YY=           -430.2326   ZZ=           -409.2362
   XY=            -13.1598   XZ=             -0.9975   YZ=             11.5966

 Normal termination of Gaussian 16 at Wed Apr 27 13:12:41 2022.
