 Gaussian 16, Revision A.03,
 Gaussian 16:  ES64L-G16RevA.03 25-Dec-2016

 -----------------------------------
 #p cam-b3lyp/Def2SVP td=(nstates=5)
 -----------------------------------

 -------------------------------------------------------
 step_1151_chromophore_9 TDDFT with cam-b3lyp functional
 -------------------------------------------------------
 Symbolic Z-matrix:
 Charge =  0 Multiplicity = 1

                         Standard orientation:
 ---------------------------------------------------------------------
 Center     Atomic      Atomic             Coordinates (Angstroms)
 Number     Number       Type             X           Y           Z
 ---------------------------------------------------------------------
      1         12           0       -5.099487    0.716359   -0.048392
      2          6           0       -3.576349   -2.603313    0.008906
      3          6           0       -1.943687    2.020736    0.014782
      4          6           0       -6.507897    3.738517   -0.028022
      5          6           0       -8.138004   -0.836945    0.378146
      6          7           0       -3.031321   -0.259559   -0.040914
      7          6           0       -2.646221   -1.600825   -0.037907
      8          6           0       -1.118137   -1.656283   -0.214591
      9          6           0       -0.573733   -0.170630   -0.061324
     10          6           0       -1.923042    0.582594    0.115259
     11          6           0        0.362296    0.019519    1.223337
     12          6           0       -0.625240   -2.441829   -1.508931
     13          6           0        0.467167   -3.464539   -1.254492
     14          6           0        1.591877   -3.105489   -0.284910
     15          8           0        1.535650   -3.319128    0.958591
     16          8           0        2.708738   -2.703131   -0.986265
     17          7           0       -4.311043    2.670815    0.052702
     18          6           0       -2.983157    3.038563    0.024650
     19          6           0       -2.912313    4.484676   -0.065612
     20          6           0       -4.191987    5.050799   -0.000763
     21          6           0       -5.081374    3.832660    0.121600
     22          6           0       -1.630079    5.206171   -0.387286
     23          6           0       -4.533731    6.510294   -0.074255
     24          8           0       -5.688431    6.845623   -0.136866
     25          6           0       -3.535389    7.588825   -0.066236
     26          7           0       -6.998401    1.382586    0.263184
     27          6           0       -7.328612    2.651711    0.104949
     28          6           0       -8.827452    2.875816    0.306216
     29          6           0       -9.316360    1.418168    0.577392
     30          6           0       -8.091074    0.602897    0.412486
     31          6           0       -9.199930    3.805360    1.538508
     32          6           0      -10.533066    1.046052   -0.215122
     33          6           0      -10.376035    0.784960   -1.674405
     34          7           0       -5.743319   -1.301573    0.073584
     35          6           0       -7.059292   -1.777270    0.121281
     36          6           0       -7.094846   -3.217322    0.078022
     37          6           0       -5.735638   -3.544012   -0.010434
     38          6           0       -4.970112   -2.372424    0.046350
     39          6           0       -8.250128   -4.097313    0.277986
     40          6           0       -4.876830   -4.693810    0.061494
     41          8           0       -5.057316   -5.895884    0.195084
     42          6           0       -3.454246   -4.149321   -0.117686
     43          6           0       -2.500245   -4.705499    0.904524
     44          8           0       -2.231494   -4.167070    1.997877
     45          8           0       -1.835751   -5.837494    0.507963
     46          6           0       -0.585982   -6.288454    1.231870
     47          6           0        3.852115   -2.447248   -0.143603
     48          6           0        5.067183   -1.927728   -0.907683
     49          6           0        6.023512   -2.557958   -1.576431
     50          6           0        6.080814   -4.060591   -1.760016
     51          6           0        7.289340   -1.838527   -2.082798
     52          6           0        7.078054   -1.043060   -3.331852
     53          6           0        8.454329   -0.355482   -3.788754
     54          6           0        8.565262    1.184432   -3.487661
     55          6           0        7.689154    1.919531   -4.547712
     56          6           0       10.060679    1.745234   -3.493594
     57          6           0       10.309659    2.746699   -2.324693
     58          6           0       11.132609    2.114557   -1.170499
     59          6           0       10.278177    2.057811    0.119488
     60          6           0        9.989070    3.385497    0.756928
     61          6           0       10.855964    0.994542    1.104444
     62          6           0        9.879518    0.803398    2.257101
     63          6           0       10.457502    1.518157    3.538241
     64          6           0       10.062273    0.630893    4.764370
     65          6           0        9.933162    1.492725    5.981053
     66          6           0       11.074149   -0.561322    4.999018
     67          1           0       -0.958000    2.486360    0.075819
     68          1           0       -6.987598    4.718237   -0.077247
     69          1           0       -9.152608   -1.239691    0.389297
     70          1           0       -0.820700   -2.346694    0.574521
     71          1           0        0.001980    0.041297   -0.962610
     72          1           0       -0.057471    0.799427    1.858279
     73          1           0        1.439191    0.172773    1.154224
     74          1           0        0.296006   -0.929721    1.755863
     75          1           0       -0.195894   -1.678802   -2.158148
     76          1           0       -1.514481   -2.874369   -1.965410
     77          1           0        0.899863   -3.561962   -2.249623
     78          1           0       -0.022640   -4.400309   -0.984875
     79          1           0       -1.431452    5.972185    0.362676
     80          1           0       -1.561614    5.708800   -1.352212
     81          1           0       -0.784387    4.524481   -0.472736
     82          1           0       -2.787010    7.532237    0.724977
     83          1           0       -4.059656    8.531761    0.089588
     84          1           0       -3.063221    7.612115   -1.048397
     85          1           0       -9.341196    3.206674   -0.597170
     86          1           0       -9.722673    1.285170    1.580658
     87          1           0       -9.891611    3.464848    2.309366
     88          1           0       -9.722716    4.628996    1.052180
     89          1           0       -8.362026    4.247676    2.077503
     90          1           0      -11.219403    1.874335   -0.036046
     91          1           0      -11.057180    0.286268    0.364716
     92          1           0      -11.043102    1.524511   -2.117528
     93          1           0      -10.662988   -0.251188   -1.853315
     94          1           0       -9.394073    0.862695   -2.141349
     95          1           0       -9.010031   -3.684584    0.941944
     96          1           0       -7.958132   -5.105069    0.573052
     97          1           0       -8.680024   -4.176325   -0.720145
     98          1           0       -3.240581   -4.352579   -1.166912
     99          1           0       -0.388120   -7.349760    1.081504
    100          1           0       -0.607928   -6.071561    2.299724
    101          1           0        0.290923   -5.795987    0.814899
    102          1           0        4.147356   -3.438893    0.200969
    103          1           0        3.677748   -1.833003    0.738857
    104          1           0        5.242189   -0.868994   -0.714787
    105          1           0        6.752793   -4.422732   -0.982360
    106          1           0        6.453202   -4.360262   -2.740296
    107          1           0        5.086712   -4.490191   -1.630474
    108          1           0        8.026983   -2.624876   -2.242605
    109          1           0        7.703236   -1.245711   -1.267432
    110          1           0        6.251169   -0.349084   -3.179198
    111          1           0        6.825794   -1.658312   -4.196161
    112          1           0        8.530292   -0.552906   -4.857012
    113          1           0        9.268390   -0.857427   -3.266552
    114          1           0        8.090743    1.502567   -2.560385
    115          1           0        8.261523    2.549976   -5.227774
    116          1           0        6.997109    2.583604   -4.028718
    117          1           0        7.092008    1.284420   -5.201703
    118          1           0       10.357249    2.243811   -4.417170
    119          1           0       10.642053    0.825360   -3.555590
    120          1           0        9.428019    3.273576   -1.960434
    121          1           0       10.910482    3.541978   -2.766485
    122          1           0       12.050484    2.667193   -0.970507
    123          1           0       11.275588    1.071491   -1.451287
    124          1           0        9.302907    1.626729   -0.110159
    125          1           0       10.897382    3.528512    1.341769
    126          1           0        9.092783    3.397037    1.377583
    127          1           0       10.049433    4.151596   -0.015428
    128          1           0       11.835769    1.324473    1.450236
    129          1           0       10.943121    0.040936    0.583502
    130          1           0        9.693400   -0.241281    2.504705
    131          1           0        8.903816    1.232381    2.026033
    132          1           0       10.160723    2.564960    3.607963
    133          1           0       11.544204    1.606168    3.510422
    134          1           0        9.087068    0.167505    4.618091
    135          1           0       10.695768    1.123565    6.666256
    136          1           0        8.965739    1.345982    6.462675
    137          1           0       10.195884    2.550007    5.987503
    138          1           0       10.975599   -1.487833    4.433639
    139          1           0       11.029621   -0.689961    6.080411
    140          1           0       12.055395   -0.177728    4.717818
 ---------------------------------------------------------------------

 SCF Done:  E(RCAM-B3LYP) =  -3007.16529345     A.U. after   19 cycles

 Excitation energies and oscillator strengths:

 Excited State   1:      Singlet-A      1.6708 eV  742.07 nm  f=0.3769  <S**2>=0.000
     245 -> 248        0.17845
     246 -> 247        0.68628
     245 <- 248        0.10803
 This state for optimization and/or second-order correction.
 Total Energy, E(TD-HF/TD-DFT) =  -3007.10389336
 Copying the excited state density for this state as the 1-particle RhoCI density.

 Excited State   2:      Singlet-A      2.1643 eV  572.86 nm  f=0.1380  <S**2>=0.000
     245 -> 247        0.64795
     246 -> 248       -0.27152

 Excited State   3:      Singlet-A      3.3786 eV  366.97 nm  f=0.0021  <S**2>=0.000
     243 -> 247       -0.15522
     244 -> 247        0.66880

 Excited State   4:      Singlet-A      3.4895 eV  355.30 nm  f=0.3730  <S**2>=0.000
     242 -> 247        0.30519
     243 -> 247        0.21201
     245 -> 247        0.19557
     246 -> 248        0.54338

 Excited State   5:      Singlet-A      3.5681 eV  347.48 nm  f=0.0088  <S**2>=0.000
     241 -> 247       -0.11484
     242 -> 247        0.42696
     242 -> 249        0.19950
     242 -> 250       -0.18820
     243 -> 247       -0.39091
     243 -> 249       -0.10367
     244 -> 247       -0.12076
     246 -> 248       -0.10883

 The electronic state is 1-A.
 Alpha  occ. eigenvalues --  -46.88667 -19.26637 -19.24047 -19.20973 -19.18783
 Alpha  occ. eigenvalues --  -19.18528 -19.18276 -14.41926 -14.41912 -14.39876
 Alpha  occ. eigenvalues --  -14.38802 -10.40769 -10.39058 -10.34962 -10.34142
 Alpha  occ. eigenvalues --  -10.32416 -10.31810 -10.31173 -10.31028 -10.30567
 Alpha  occ. eigenvalues --  -10.30507 -10.30456 -10.30265 -10.29421 -10.28741
 Alpha  occ. eigenvalues --  -10.28612 -10.28316 -10.28050 -10.27738 -10.27693
 Alpha  occ. eigenvalues --  -10.27625 -10.27558 -10.27537 -10.27526 -10.27387
 Alpha  occ. eigenvalues --  -10.27310 -10.27273 -10.27033 -10.26957 -10.26374
 Alpha  occ. eigenvalues --  -10.26310 -10.26216 -10.26165 -10.26122 -10.26036
 Alpha  occ. eigenvalues --  -10.25868 -10.25865 -10.25854 -10.25680 -10.25673
 Alpha  occ. eigenvalues --  -10.25615 -10.25593 -10.25291 -10.25238 -10.25173
 Alpha  occ. eigenvalues --  -10.25115 -10.24991 -10.24818 -10.24720 -10.24655
 Alpha  occ. eigenvalues --  -10.24625 -10.24484 -10.24297 -10.24290 -10.24274
 Alpha  occ. eigenvalues --  -10.23775  -3.17150  -1.92065  -1.91588  -1.91465
 Alpha  occ. eigenvalues --   -1.16925  -1.14038  -1.11482  -1.09253  -1.07573
 Alpha  occ. eigenvalues --   -1.05253  -1.04989  -1.03533  -1.02200  -1.01008
 Alpha  occ. eigenvalues --   -0.92097  -0.91042  -0.90316  -0.90074  -0.89313
 Alpha  occ. eigenvalues --   -0.88464  -0.88156  -0.87562  -0.87411  -0.87006
 Alpha  occ. eigenvalues --   -0.85958  -0.85189  -0.84285  -0.83200  -0.82955
 Alpha  occ. eigenvalues --   -0.82455  -0.82159  -0.81282  -0.80789  -0.79918
 Alpha  occ. eigenvalues --   -0.79904  -0.78351  -0.77525  -0.77223  -0.76157
 Alpha  occ. eigenvalues --   -0.75713  -0.75330  -0.75208  -0.74964  -0.74104
 Alpha  occ. eigenvalues --   -0.73521  -0.72732  -0.71428  -0.70615  -0.70347
 Alpha  occ. eigenvalues --   -0.69195  -0.68603  -0.67436  -0.67036  -0.65196
 Alpha  occ. eigenvalues --   -0.64979  -0.64884  -0.64575  -0.64148  -0.63958
 Alpha  occ. eigenvalues --   -0.63813  -0.63625  -0.62217  -0.61241  -0.60211
 Alpha  occ. eigenvalues --   -0.59973  -0.59422  -0.59106  -0.58210  -0.57823
 Alpha  occ. eigenvalues --   -0.57559  -0.57216  -0.56085  -0.55946  -0.55765
 Alpha  occ. eigenvalues --   -0.55423  -0.54880  -0.54588  -0.54392  -0.54088
 Alpha  occ. eigenvalues --   -0.53868  -0.53487  -0.53216  -0.53113  -0.52959
 Alpha  occ. eigenvalues --   -0.52697  -0.52299  -0.52173  -0.52009  -0.51733
 Alpha  occ. eigenvalues --   -0.51639  -0.51043  -0.50785  -0.50661  -0.50611
 Alpha  occ. eigenvalues --   -0.50390  -0.50182  -0.49878  -0.49812  -0.49443
 Alpha  occ. eigenvalues --   -0.49224  -0.49027  -0.48937  -0.48792  -0.48775
 Alpha  occ. eigenvalues --   -0.48446  -0.48224  -0.47929  -0.47884  -0.47716
 Alpha  occ. eigenvalues --   -0.47554  -0.47178  -0.47076  -0.46562  -0.46394
 Alpha  occ. eigenvalues --   -0.46247  -0.46085  -0.45780  -0.45573  -0.45383
 Alpha  occ. eigenvalues --   -0.45356  -0.45210  -0.45027  -0.44970  -0.44672
 Alpha  occ. eigenvalues --   -0.44625  -0.44237  -0.44145  -0.43962  -0.43814
 Alpha  occ. eigenvalues --   -0.43687  -0.43607  -0.43586  -0.43385  -0.43165
 Alpha  occ. eigenvalues --   -0.42976  -0.42671  -0.42483  -0.42448  -0.42197
 Alpha  occ. eigenvalues --   -0.42097  -0.41756  -0.41309  -0.41030  -0.40828
 Alpha  occ. eigenvalues --   -0.40681  -0.40663  -0.40516  -0.40320  -0.39995
 Alpha  occ. eigenvalues --   -0.39733  -0.39497  -0.39256  -0.39231  -0.38969
 Alpha  occ. eigenvalues --   -0.38566  -0.38356  -0.37943  -0.37824  -0.37457
 Alpha  occ. eigenvalues --   -0.37161  -0.36863  -0.36482  -0.36083  -0.35925
 Alpha  occ. eigenvalues --   -0.35815  -0.35164  -0.35068  -0.34646  -0.34135
 Alpha  occ. eigenvalues --   -0.33080  -0.33028  -0.32466  -0.31494  -0.31422
 Alpha  occ. eigenvalues --   -0.31258  -0.30451  -0.30121  -0.29449  -0.23669
 Alpha  occ. eigenvalues --   -0.20956
 Alpha virt. eigenvalues --   -0.08688  -0.01500   0.00586   0.02465   0.02852
 Alpha virt. eigenvalues --    0.03195   0.04244   0.04954   0.05534   0.06580
 Alpha virt. eigenvalues --    0.07554   0.08097   0.08773   0.09096   0.09371

 Mulliken charges:
               1
     1  Mg   0.831641
     2  C   -0.032041
     3  C   -0.053667
     4  C   -0.064648
     5  C   -0.070509
     6  N   -0.300627
     7  C   -0.042874
     8  C   -0.058347
     9  C   -0.065818
    10  C    0.086310
    11  C    0.040732
    12  C    0.040093
    13  C    0.084097
    14  C    0.190956
    15  O   -0.270993
    16  O   -0.311307
    17  N   -0.386861
    18  C    0.114994
    19  C   -0.127377
    20  C   -0.009004
    21  C    0.104283
    22  C    0.098160
    23  C   -0.024713
    24  O   -0.187390
    25  C    0.063832
    26  N   -0.301808
    27  C    0.071606
    28  C   -0.030472
    29  C   -0.009348
    30  C    0.049780
    31  C    0.044734
    32  C   -0.016432
    33  C    0.035162
    34  N   -0.314458
    35  C    0.092144
    36  C   -0.152623
    37  C   -0.023025
    38  C    0.102599
    39  C    0.131718
    40  C    0.037550
    41  O   -0.171140
    42  C    0.008327
    43  C    0.235154
    44  O   -0.241283
    45  O   -0.347179
    46  C    0.182204
    47  C    0.275750
    48  C   -0.121056
    49  C   -0.163532
    50  C    0.071880
    51  C    0.068712
    52  C    0.038563
    53  C    0.038039
    54  C   -0.128885
    55  C    0.032855
    56  C    0.055938
    57  C    0.026565
    58  C    0.091524
    59  C   -0.208852
    60  C    0.082480
    61  C    0.063185
    62  C    0.027058
    63  C    0.022620
    64  C   -0.154436
    65  C    0.055370
    66  C    0.041809
    67  H   -0.024860
    68  H   -0.002227
    69  H   -0.029411
    70  H    0.045016
    71  H    0.019049
    72  H    0.018562
    73  H    0.011200
    74  H    0.032943
    75  H    0.004381
    76  H    0.014929
    77  H    0.025172
    78  H    0.032855
    79  H    0.019261
    80  H    0.027134
    81  H    0.005876
    82  H    0.033961
    83  H    0.027666
    84  H    0.035357
    85  H    0.017875
    86  H    0.007490
    87  H    0.017925
    88  H    0.010819
    89  H    0.032272
    90  H   -0.009022
    91  H   -0.002509
    92  H    0.018147
    93  H    0.017161
    94  H    0.024911
    95  H    0.023709
    96  H    0.038539
    97  H    0.021540
    98  H    0.055859
    99  H    0.035675
   100  H    0.057472
   101  H    0.026632
   102  H    0.008180
   103  H    0.034191
   104  H   -0.013694
   105  H    0.034551
   106  H    0.022312
   107  H    0.020070
   108  H   -0.012886
   109  H    0.010599
   110  H    0.004674
   111  H   -0.006809
   112  H    0.002769
   113  H   -0.005314
   114  H   -0.000034
   115  H    0.001127
   116  H   -0.000799
   117  H    0.005383
   118  H   -0.006571
   119  H   -0.010685
   120  H    0.006398
   121  H   -0.015072
   122  H   -0.002259
   123  H   -0.007084
   124  H   -0.017773
   125  H   -0.007203
   126  H    0.026558
   127  H    0.002467
   128  H   -0.005788
   129  H   -0.015812
   130  H   -0.002878
   131  H   -0.003632
   132  H   -0.002401
   133  H   -0.008728
   134  H    0.000153
   135  H   -0.021136
   136  H    0.011007
   137  H    0.006587
   138  H    0.017420
   139  H    0.013325
   140  H   -0.000289
 Sum of Mulliken charges =  -0.00000

 Dipole moment (field-independent basis, Debye):
    X=              4.1352    Y=              3.4547    Z=             -3.7594  Tot=              6.5702
 Quadrupole moment (field-independent basis, Debye-Ang):
   XX=           -362.4712   YY=           -425.4917   ZZ=           -409.4665
   XY=            -16.2131   XZ=             -0.8138   YZ=             12.2271

 Normal termination of Gaussian 16 at Wed Apr 27 12:15:08 2022.
