 Gaussian 16, Revision A.03,
 Gaussian 16:  ES64L-G16RevA.03 25-Dec-2016

 ---------------------------------
 #p PBE1PBE/Def2SVP td=(nstates=5)
 ---------------------------------

 -----------------------------------------------------
 step_1151_chromophore_9 TDDFT with PBE1PBE functional
 -----------------------------------------------------
 Symbolic Z-matrix:
 Charge =  0 Multiplicity = 1

                         Standard orientation:
 ---------------------------------------------------------------------
 Center     Atomic      Atomic             Coordinates (Angstroms)
 Number     Number       Type             X           Y           Z
 ---------------------------------------------------------------------
      1         12           0       -5.099487    0.716359   -0.048392
      2          6           0       -3.576349   -2.603313    0.008906
      3          6           0       -1.943687    2.020736    0.014782
      4          6           0       -6.507897    3.738517   -0.028022
      5          6           0       -8.138004   -0.836945    0.378146
      6          7           0       -3.031321   -0.259559   -0.040914
      7          6           0       -2.646221   -1.600825   -0.037907
      8          6           0       -1.118137   -1.656283   -0.214591
      9          6           0       -0.573733   -0.170630   -0.061324
     10          6           0       -1.923042    0.582594    0.115259
     11          6           0        0.362296    0.019519    1.223337
     12          6           0       -0.625240   -2.441829   -1.508931
     13          6           0        0.467167   -3.464539   -1.254492
     14          6           0        1.591877   -3.105489   -0.284910
     15          8           0        1.535650   -3.319128    0.958591
     16          8           0        2.708738   -2.703131   -0.986265
     17          7           0       -4.311043    2.670815    0.052702
     18          6           0       -2.983157    3.038563    0.024650
     19          6           0       -2.912313    4.484676   -0.065612
     20          6           0       -4.191987    5.050799   -0.000763
     21          6           0       -5.081374    3.832660    0.121600
     22          6           0       -1.630079    5.206171   -0.387286
     23          6           0       -4.533731    6.510294   -0.074255
     24          8           0       -5.688431    6.845623   -0.136866
     25          6           0       -3.535389    7.588825   -0.066236
     26          7           0       -6.998401    1.382586    0.263184
     27          6           0       -7.328612    2.651711    0.104949
     28          6           0       -8.827452    2.875816    0.306216
     29          6           0       -9.316360    1.418168    0.577392
     30          6           0       -8.091074    0.602897    0.412486
     31          6           0       -9.199930    3.805360    1.538508
     32          6           0      -10.533066    1.046052   -0.215122
     33          6           0      -10.376035    0.784960   -1.674405
     34          7           0       -5.743319   -1.301573    0.073584
     35          6           0       -7.059292   -1.777270    0.121281
     36          6           0       -7.094846   -3.217322    0.078022
     37          6           0       -5.735638   -3.544012   -0.010434
     38          6           0       -4.970112   -2.372424    0.046350
     39          6           0       -8.250128   -4.097313    0.277986
     40          6           0       -4.876830   -4.693810    0.061494
     41          8           0       -5.057316   -5.895884    0.195084
     42          6           0       -3.454246   -4.149321   -0.117686
     43          6           0       -2.500245   -4.705499    0.904524
     44          8           0       -2.231494   -4.167070    1.997877
     45          8           0       -1.835751   -5.837494    0.507963
     46          6           0       -0.585982   -6.288454    1.231870
     47          6           0        3.852115   -2.447248   -0.143603
     48          6           0        5.067183   -1.927728   -0.907683
     49          6           0        6.023512   -2.557958   -1.576431
     50          6           0        6.080814   -4.060591   -1.760016
     51          6           0        7.289340   -1.838527   -2.082798
     52          6           0        7.078054   -1.043060   -3.331852
     53          6           0        8.454329   -0.355482   -3.788754
     54          6           0        8.565262    1.184432   -3.487661
     55          6           0        7.689154    1.919531   -4.547712
     56          6           0       10.060679    1.745234   -3.493594
     57          6           0       10.309659    2.746699   -2.324693
     58          6           0       11.132609    2.114557   -1.170499
     59          6           0       10.278177    2.057811    0.119488
     60          6           0        9.989070    3.385497    0.756928
     61          6           0       10.855964    0.994542    1.104444
     62          6           0        9.879518    0.803398    2.257101
     63          6           0       10.457502    1.518157    3.538241
     64          6           0       10.062273    0.630893    4.764370
     65          6           0        9.933162    1.492725    5.981053
     66          6           0       11.074149   -0.561322    4.999018
     67          1           0       -0.958000    2.486360    0.075819
     68          1           0       -6.987598    4.718237   -0.077247
     69          1           0       -9.152608   -1.239691    0.389297
     70          1           0       -0.820700   -2.346694    0.574521
     71          1           0        0.001980    0.041297   -0.962610
     72          1           0       -0.057471    0.799427    1.858279
     73          1           0        1.439191    0.172773    1.154224
     74          1           0        0.296006   -0.929721    1.755863
     75          1           0       -0.195894   -1.678802   -2.158148
     76          1           0       -1.514481   -2.874369   -1.965410
     77          1           0        0.899863   -3.561962   -2.249623
     78          1           0       -0.022640   -4.400309   -0.984875
     79          1           0       -1.431452    5.972185    0.362676
     80          1           0       -1.561614    5.708800   -1.352212
     81          1           0       -0.784387    4.524481   -0.472736
     82          1           0       -2.787010    7.532237    0.724977
     83          1           0       -4.059656    8.531761    0.089588
     84          1           0       -3.063221    7.612115   -1.048397
     85          1           0       -9.341196    3.206674   -0.597170
     86          1           0       -9.722673    1.285170    1.580658
     87          1           0       -9.891611    3.464848    2.309366
     88          1           0       -9.722716    4.628996    1.052180
     89          1           0       -8.362026    4.247676    2.077503
     90          1           0      -11.219403    1.874335   -0.036046
     91          1           0      -11.057180    0.286268    0.364716
     92          1           0      -11.043102    1.524511   -2.117528
     93          1           0      -10.662988   -0.251188   -1.853315
     94          1           0       -9.394073    0.862695   -2.141349
     95          1           0       -9.010031   -3.684584    0.941944
     96          1           0       -7.958132   -5.105069    0.573052
     97          1           0       -8.680024   -4.176325   -0.720145
     98          1           0       -3.240581   -4.352579   -1.166912
     99          1           0       -0.388120   -7.349760    1.081504
    100          1           0       -0.607928   -6.071561    2.299724
    101          1           0        0.290923   -5.795987    0.814899
    102          1           0        4.147356   -3.438893    0.200969
    103          1           0        3.677748   -1.833003    0.738857
    104          1           0        5.242189   -0.868994   -0.714787
    105          1           0        6.752793   -4.422732   -0.982360
    106          1           0        6.453202   -4.360262   -2.740296
    107          1           0        5.086712   -4.490191   -1.630474
    108          1           0        8.026983   -2.624876   -2.242605
    109          1           0        7.703236   -1.245711   -1.267432
    110          1           0        6.251169   -0.349084   -3.179198
    111          1           0        6.825794   -1.658312   -4.196161
    112          1           0        8.530292   -0.552906   -4.857012
    113          1           0        9.268390   -0.857427   -3.266552
    114          1           0        8.090743    1.502567   -2.560385
    115          1           0        8.261523    2.549976   -5.227774
    116          1           0        6.997109    2.583604   -4.028718
    117          1           0        7.092008    1.284420   -5.201703
    118          1           0       10.357249    2.243811   -4.417170
    119          1           0       10.642053    0.825360   -3.555590
    120          1           0        9.428019    3.273576   -1.960434
    121          1           0       10.910482    3.541978   -2.766485
    122          1           0       12.050484    2.667193   -0.970507
    123          1           0       11.275588    1.071491   -1.451287
    124          1           0        9.302907    1.626729   -0.110159
    125          1           0       10.897382    3.528512    1.341769
    126          1           0        9.092783    3.397037    1.377583
    127          1           0       10.049433    4.151596   -0.015428
    128          1           0       11.835769    1.324473    1.450236
    129          1           0       10.943121    0.040936    0.583502
    130          1           0        9.693400   -0.241281    2.504705
    131          1           0        8.903816    1.232381    2.026033
    132          1           0       10.160723    2.564960    3.607963
    133          1           0       11.544204    1.606168    3.510422
    134          1           0        9.087068    0.167505    4.618091
    135          1           0       10.695768    1.123565    6.666256
    136          1           0        8.965739    1.345982    6.462675
    137          1           0       10.195884    2.550007    5.987503
    138          1           0       10.975599   -1.487833    4.433639
    139          1           0       11.029621   -0.689961    6.080411
    140          1           0       12.055395   -0.177728    4.717818
 ---------------------------------------------------------------------

 SCF Done:  E(RPBE1PBE) =  -3005.35363429     A.U. after   15 cycles

 Excitation energies and oscillator strengths:

 Excited State   1:      Singlet-A      1.8246 eV  679.53 nm  f=0.3604  <S**2>=0.000
     245 -> 248        0.17058
     246 -> 247        0.69351
     246 <- 247       -0.11039
 This state for optimization and/or second-order correction.
 Total Energy, E(TD-HF/TD-DFT) =  -3005.28658284
 Copying the excited state density for this state as the 1-particle RhoCI density.

 Excited State   2:      Singlet-A      2.1794 eV  568.89 nm  f=0.1311  <S**2>=0.000
     245 -> 247        0.65688
     246 -> 248       -0.24905

 Excited State   3:      Singlet-A      2.9588 eV  419.04 nm  f=0.0001  <S**2>=0.000
     243 -> 247        0.25696
     244 -> 247        0.63095

 Excited State   4:      Singlet-A      3.0938 eV  400.75 nm  f=0.0029  <S**2>=0.000
     242 -> 247        0.14151
     243 -> 247        0.61926
     244 -> 247       -0.28633

 Excited State   5:      Singlet-A      3.2115 eV  386.06 nm  f=0.0003  <S**2>=0.000
     241 -> 247        0.67042
     241 -> 248        0.10340
     241 -> 249       -0.15942

 The electronic state is 1-A.
 Alpha  occ. eigenvalues --  -46.92061 -19.27305 -19.24728 -19.21273 -19.18842
 Alpha  occ. eigenvalues --  -19.18816 -19.18614 -14.41437 -14.41395 -14.39462
 Alpha  occ. eigenvalues --  -14.38525 -10.37820 -10.36106 -10.31939 -10.31355
 Alpha  occ. eigenvalues --  -10.29794 -10.29451 -10.28598 -10.28440 -10.28409
 Alpha  occ. eigenvalues --  -10.28267 -10.28031 -10.27848 -10.27355 -10.26402
 Alpha  occ. eigenvalues --  -10.26210 -10.25996 -10.25828 -10.25398 -10.25345
 Alpha  occ. eigenvalues --  -10.25256 -10.25189 -10.25186 -10.25176 -10.25168
 Alpha  occ. eigenvalues --  -10.25092 -10.24971 -10.24898 -10.24257 -10.24037
 Alpha  occ. eigenvalues --  -10.23980 -10.23765 -10.23748 -10.23587 -10.23471
 Alpha  occ. eigenvalues --  -10.23453 -10.23410 -10.23348 -10.23341 -10.23272
 Alpha  occ. eigenvalues --  -10.23185 -10.23121 -10.22899 -10.22741 -10.22687
 Alpha  occ. eigenvalues --  -10.22672 -10.22552 -10.22367 -10.22210 -10.22204
 Alpha  occ. eigenvalues --  -10.22143 -10.22133 -10.21855 -10.21846 -10.21691
 Alpha  occ. eigenvalues --  -10.21160  -3.14125  -1.86982  -1.86482  -1.86363
 Alpha  occ. eigenvalues --   -1.11731  -1.08821  -1.06097  -1.04089  -1.02401
 Alpha  occ. eigenvalues --   -0.99887  -0.99824  -0.98331  -0.96725  -0.95581
 Alpha  occ. eigenvalues --   -0.86532  -0.85184  -0.84388  -0.84385  -0.83499
 Alpha  occ. eigenvalues --   -0.82557  -0.82380  -0.81726  -0.81673  -0.81306
 Alpha  occ. eigenvalues --   -0.80263  -0.79385  -0.78479  -0.77431  -0.77261
 Alpha  occ. eigenvalues --   -0.76674  -0.76273  -0.75513  -0.75074  -0.74235
 Alpha  occ. eigenvalues --   -0.74084  -0.72623  -0.71781  -0.71520  -0.70484
 Alpha  occ. eigenvalues --   -0.69920  -0.69434  -0.69304  -0.69289  -0.68275
 Alpha  occ. eigenvalues --   -0.67826  -0.67183  -0.65802  -0.65012  -0.64666
 Alpha  occ. eigenvalues --   -0.63404  -0.63015  -0.61898  -0.61242  -0.59676
 Alpha  occ. eigenvalues --   -0.59435  -0.59155  -0.59027  -0.58678  -0.58550
 Alpha  occ. eigenvalues --   -0.57959  -0.57799  -0.56401  -0.55893  -0.54652
 Alpha  occ. eigenvalues --   -0.54361  -0.54010  -0.53668  -0.52818  -0.52319
 Alpha  occ. eigenvalues --   -0.52117  -0.51563  -0.50629  -0.50523  -0.50288
 Alpha  occ. eigenvalues --   -0.49953  -0.49455  -0.48967  -0.48862  -0.48478
 Alpha  occ. eigenvalues --   -0.48371  -0.47981  -0.47692  -0.47586  -0.47306
 Alpha  occ. eigenvalues --   -0.47262  -0.46890  -0.46686  -0.46566  -0.46305
 Alpha  occ. eigenvalues --   -0.46173  -0.45607  -0.45321  -0.45214  -0.45168
 Alpha  occ. eigenvalues --   -0.45063  -0.44656  -0.44413  -0.44291  -0.44022
 Alpha  occ. eigenvalues --   -0.43834  -0.43596  -0.43504  -0.43430  -0.43378
 Alpha  occ. eigenvalues --   -0.43087  -0.42888  -0.42594  -0.42480  -0.42381
 Alpha  occ. eigenvalues --   -0.42203  -0.41844  -0.41693  -0.41253  -0.41054
 Alpha  occ. eigenvalues --   -0.40836  -0.40762  -0.40540  -0.40251  -0.40126
 Alpha  occ. eigenvalues --   -0.39961  -0.39916  -0.39831  -0.39685  -0.39428
 Alpha  occ. eigenvalues --   -0.39380  -0.38944  -0.38905  -0.38747  -0.38594
 Alpha  occ. eigenvalues --   -0.38407  -0.38329  -0.38239  -0.38164  -0.37980
 Alpha  occ. eigenvalues --   -0.37750  -0.37431  -0.37285  -0.37256  -0.37046
 Alpha  occ. eigenvalues --   -0.36821  -0.36520  -0.36127  -0.35754  -0.35713
 Alpha  occ. eigenvalues --   -0.35518  -0.35420  -0.35349  -0.35072  -0.34934
 Alpha  occ. eigenvalues --   -0.34623  -0.34328  -0.34185  -0.34024  -0.33958
 Alpha  occ. eigenvalues --   -0.33344  -0.33127  -0.32935  -0.32786  -0.32280
 Alpha  occ. eigenvalues --   -0.32024  -0.31760  -0.31268  -0.31180  -0.30973
 Alpha  occ. eigenvalues --   -0.30730  -0.30144  -0.30046  -0.29536  -0.29329
 Alpha  occ. eigenvalues --   -0.28146  -0.28000  -0.27790  -0.26870  -0.26645
 Alpha  occ. eigenvalues --   -0.26055  -0.25806  -0.25441  -0.25048  -0.20602
 Alpha  occ. eigenvalues --   -0.18567
 Alpha virt. eigenvalues --   -0.11097  -0.05026  -0.03551  -0.01911  -0.01709
 Alpha virt. eigenvalues --   -0.00185   0.00103   0.00557   0.01195   0.03303
 Alpha virt. eigenvalues --    0.04120   0.04347   0.04790   0.05271   0.05996

 Mulliken charges:
               1
     1  Mg   0.981661
     2  C   -0.041099
     3  C   -0.051034
     4  C   -0.059531
     5  C   -0.057220
     6  N   -0.396832
     7  C    0.029689
     8  C   -0.111125
     9  C   -0.150672
    10  C    0.119567
    11  C   -0.012368
    12  C   -0.009412
    13  C   -0.000869
    14  C    0.253619
    15  O   -0.301807
    16  O   -0.341926
    17  N   -0.492838
    18  C    0.137262
    19  C   -0.159069
    20  C   -0.064451
    21  C    0.145680
    22  C    0.043467
    23  C    0.026784
    24  O   -0.224949
    25  C   -0.010789
    26  N   -0.420863
    27  C    0.101652
    28  C   -0.110578
    29  C   -0.081212
    30  C    0.091189
    31  C   -0.009936
    32  C   -0.082085
    33  C   -0.035148
    34  N   -0.442016
    35  C    0.115586
    36  C   -0.172101
    37  C   -0.069043
    38  C    0.154436
    39  C    0.076948
    40  C    0.135048
    41  O   -0.217139
    42  C   -0.104573
    43  C    0.322747
    44  O   -0.274534
    45  O   -0.380186
    46  C    0.125978
    47  C    0.230755
    48  C   -0.125721
    49  C   -0.206170
    50  C    0.004877
    51  C    0.003284
    52  C   -0.022063
    53  C   -0.022733
    54  C   -0.210837
    55  C   -0.020771
    56  C    0.005309
    57  C   -0.039042
    58  C    0.034697
    59  C   -0.300674
    60  C    0.024251
    61  C    0.008783
    62  C   -0.038240
    63  C   -0.024187
    64  C   -0.252142
    65  C   -0.002247
    66  C   -0.018736
    67  H    0.007858
    68  H    0.029111
    69  H    0.002587
    70  H    0.086852
    71  H    0.053744
    72  H    0.046138
    73  H    0.038609
    74  H    0.059969
    75  H    0.037382
    76  H    0.048704
    77  H    0.058517
    78  H    0.069444
    79  H    0.046523
    80  H    0.053848
    81  H    0.032992
    82  H    0.059915
    83  H    0.054960
    84  H    0.062449
    85  H    0.054759
    86  H    0.045810
    87  H    0.043837
    88  H    0.038246
    89  H    0.059839
    90  H    0.026329
    91  H    0.029004
    92  H    0.045387
    93  H    0.044620
    94  H    0.053250
    95  H    0.050390
    96  H    0.066145
    97  H    0.051429
    98  H    0.092564
    99  H    0.057363
   100  H    0.077978
   101  H    0.050165
   102  H    0.036318
   103  H    0.059927
   104  H    0.016347
   105  H    0.063202
   106  H    0.050056
   107  H    0.048108
   108  H    0.019654
   109  H    0.043520
   110  H    0.036668
   111  H    0.026653
   112  H    0.035206
   113  H    0.026647
   114  H    0.037677
   115  H    0.028141
   116  H    0.026513
   117  H    0.032181
   118  H    0.024621
   119  H    0.020205
   120  H    0.037130
   121  H    0.019311
   122  H    0.029618
   123  H    0.026637
   124  H    0.025182
   125  H    0.022097
   126  H    0.052380
   127  H    0.031730
   128  H    0.026566
   129  H    0.017394
   130  H    0.030219
   131  H    0.028951
   132  H    0.028792
   133  H    0.022394
   134  H    0.038440
   135  H    0.006469
   136  H    0.038567
   137  H    0.033346
   138  H    0.043776
   139  H    0.040733
   140  H    0.027605
 Sum of Mulliken charges =  -0.00000

 Dipole moment (field-independent basis, Debye):
    X=              3.9753    Y=              3.1659    Z=             -3.7745  Tot=              6.3303
 Quadrupole moment (field-independent basis, Debye-Ang):
   XX=           -354.4493   YY=           -423.2170   ZZ=           -406.9495
   XY=            -15.1777   XZ=             -1.1512   YZ=             12.2758

 Normal termination of Gaussian 16 at Wed Apr 27 12:33:43 2022.
