 Gaussian 16, Revision A.03,
 Gaussian 16:  ES64L-G16RevA.03 25-Dec-2016

 --------------------------------
 #p wB97XD/Def2SVP td=(nstates=5)
 --------------------------------

 ----------------------------------------------------
 step_1151_chromophore_9 TDDFT with wB97XD functional
 ----------------------------------------------------
 Symbolic Z-matrix:
 Charge =  0 Multiplicity = 1

                         Standard orientation:
 ---------------------------------------------------------------------
 Center     Atomic      Atomic             Coordinates (Angstroms)
 Number     Number       Type             X           Y           Z
 ---------------------------------------------------------------------
      1         12           0       -5.099487    0.716359   -0.048392
      2          6           0       -3.576349   -2.603313    0.008906
      3          6           0       -1.943687    2.020736    0.014782
      4          6           0       -6.507897    3.738517   -0.028022
      5          6           0       -8.138004   -0.836945    0.378146
      6          7           0       -3.031321   -0.259559   -0.040914
      7          6           0       -2.646221   -1.600825   -0.037907
      8          6           0       -1.118137   -1.656283   -0.214591
      9          6           0       -0.573733   -0.170630   -0.061324
     10          6           0       -1.923042    0.582594    0.115259
     11          6           0        0.362296    0.019519    1.223337
     12          6           0       -0.625240   -2.441829   -1.508931
     13          6           0        0.467167   -3.464539   -1.254492
     14          6           0        1.591877   -3.105489   -0.284910
     15          8           0        1.535650   -3.319128    0.958591
     16          8           0        2.708738   -2.703131   -0.986265
     17          7           0       -4.311043    2.670815    0.052702
     18          6           0       -2.983157    3.038563    0.024650
     19          6           0       -2.912313    4.484676   -0.065612
     20          6           0       -4.191987    5.050799   -0.000763
     21          6           0       -5.081374    3.832660    0.121600
     22          6           0       -1.630079    5.206171   -0.387286
     23          6           0       -4.533731    6.510294   -0.074255
     24          8           0       -5.688431    6.845623   -0.136866
     25          6           0       -3.535389    7.588825   -0.066236
     26          7           0       -6.998401    1.382586    0.263184
     27          6           0       -7.328612    2.651711    0.104949
     28          6           0       -8.827452    2.875816    0.306216
     29          6           0       -9.316360    1.418168    0.577392
     30          6           0       -8.091074    0.602897    0.412486
     31          6           0       -9.199930    3.805360    1.538508
     32          6           0      -10.533066    1.046052   -0.215122
     33          6           0      -10.376035    0.784960   -1.674405
     34          7           0       -5.743319   -1.301573    0.073584
     35          6           0       -7.059292   -1.777270    0.121281
     36          6           0       -7.094846   -3.217322    0.078022
     37          6           0       -5.735638   -3.544012   -0.010434
     38          6           0       -4.970112   -2.372424    0.046350
     39          6           0       -8.250128   -4.097313    0.277986
     40          6           0       -4.876830   -4.693810    0.061494
     41          8           0       -5.057316   -5.895884    0.195084
     42          6           0       -3.454246   -4.149321   -0.117686
     43          6           0       -2.500245   -4.705499    0.904524
     44          8           0       -2.231494   -4.167070    1.997877
     45          8           0       -1.835751   -5.837494    0.507963
     46          6           0       -0.585982   -6.288454    1.231870
     47          6           0        3.852115   -2.447248   -0.143603
     48          6           0        5.067183   -1.927728   -0.907683
     49          6           0        6.023512   -2.557958   -1.576431
     50          6           0        6.080814   -4.060591   -1.760016
     51          6           0        7.289340   -1.838527   -2.082798
     52          6           0        7.078054   -1.043060   -3.331852
     53          6           0        8.454329   -0.355482   -3.788754
     54          6           0        8.565262    1.184432   -3.487661
     55          6           0        7.689154    1.919531   -4.547712
     56          6           0       10.060679    1.745234   -3.493594
     57          6           0       10.309659    2.746699   -2.324693
     58          6           0       11.132609    2.114557   -1.170499
     59          6           0       10.278177    2.057811    0.119488
     60          6           0        9.989070    3.385497    0.756928
     61          6           0       10.855964    0.994542    1.104444
     62          6           0        9.879518    0.803398    2.257101
     63          6           0       10.457502    1.518157    3.538241
     64          6           0       10.062273    0.630893    4.764370
     65          6           0        9.933162    1.492725    5.981053
     66          6           0       11.074149   -0.561322    4.999018
     67          1           0       -0.958000    2.486360    0.075819
     68          1           0       -6.987598    4.718237   -0.077247
     69          1           0       -9.152608   -1.239691    0.389297
     70          1           0       -0.820700   -2.346694    0.574521
     71          1           0        0.001980    0.041297   -0.962610
     72          1           0       -0.057471    0.799427    1.858279
     73          1           0        1.439191    0.172773    1.154224
     74          1           0        0.296006   -0.929721    1.755863
     75          1           0       -0.195894   -1.678802   -2.158148
     76          1           0       -1.514481   -2.874369   -1.965410
     77          1           0        0.899863   -3.561962   -2.249623
     78          1           0       -0.022640   -4.400309   -0.984875
     79          1           0       -1.431452    5.972185    0.362676
     80          1           0       -1.561614    5.708800   -1.352212
     81          1           0       -0.784387    4.524481   -0.472736
     82          1           0       -2.787010    7.532237    0.724977
     83          1           0       -4.059656    8.531761    0.089588
     84          1           0       -3.063221    7.612115   -1.048397
     85          1           0       -9.341196    3.206674   -0.597170
     86          1           0       -9.722673    1.285170    1.580658
     87          1           0       -9.891611    3.464848    2.309366
     88          1           0       -9.722716    4.628996    1.052180
     89          1           0       -8.362026    4.247676    2.077503
     90          1           0      -11.219403    1.874335   -0.036046
     91          1           0      -11.057180    0.286268    0.364716
     92          1           0      -11.043102    1.524511   -2.117528
     93          1           0      -10.662988   -0.251188   -1.853315
     94          1           0       -9.394073    0.862695   -2.141349
     95          1           0       -9.010031   -3.684584    0.941944
     96          1           0       -7.958132   -5.105069    0.573052
     97          1           0       -8.680024   -4.176325   -0.720145
     98          1           0       -3.240581   -4.352579   -1.166912
     99          1           0       -0.388120   -7.349760    1.081504
    100          1           0       -0.607928   -6.071561    2.299724
    101          1           0        0.290923   -5.795987    0.814899
    102          1           0        4.147356   -3.438893    0.200969
    103          1           0        3.677748   -1.833003    0.738857
    104          1           0        5.242189   -0.868994   -0.714787
    105          1           0        6.752793   -4.422732   -0.982360
    106          1           0        6.453202   -4.360262   -2.740296
    107          1           0        5.086712   -4.490191   -1.630474
    108          1           0        8.026983   -2.624876   -2.242605
    109          1           0        7.703236   -1.245711   -1.267432
    110          1           0        6.251169   -0.349084   -3.179198
    111          1           0        6.825794   -1.658312   -4.196161
    112          1           0        8.530292   -0.552906   -4.857012
    113          1           0        9.268390   -0.857427   -3.266552
    114          1           0        8.090743    1.502567   -2.560385
    115          1           0        8.261523    2.549976   -5.227774
    116          1           0        6.997109    2.583604   -4.028718
    117          1           0        7.092008    1.284420   -5.201703
    118          1           0       10.357249    2.243811   -4.417170
    119          1           0       10.642053    0.825360   -3.555590
    120          1           0        9.428019    3.273576   -1.960434
    121          1           0       10.910482    3.541978   -2.766485
    122          1           0       12.050484    2.667193   -0.970507
    123          1           0       11.275588    1.071491   -1.451287
    124          1           0        9.302907    1.626729   -0.110159
    125          1           0       10.897382    3.528512    1.341769
    126          1           0        9.092783    3.397037    1.377583
    127          1           0       10.049433    4.151596   -0.015428
    128          1           0       11.835769    1.324473    1.450236
    129          1           0       10.943121    0.040936    0.583502
    130          1           0        9.693400   -0.241281    2.504705
    131          1           0        8.903816    1.232381    2.026033
    132          1           0       10.160723    2.564960    3.607963
    133          1           0       11.544204    1.606168    3.510422
    134          1           0        9.087068    0.167505    4.618091
    135          1           0       10.695768    1.123565    6.666256
    136          1           0        8.965739    1.345982    6.462675
    137          1           0       10.195884    2.550007    5.987503
    138          1           0       10.975599   -1.487833    4.433639
    139          1           0       11.029621   -0.689961    6.080411
    140          1           0       12.055395   -0.177728    4.717818
 ---------------------------------------------------------------------

 SCF Done:  E(RwB97XD) =  -3007.86542828     A.U. after   20 cycles

 Excitation energies and oscillator strengths:

 Excited State   1:      Singlet-A      1.6133 eV  768.54 nm  f=0.3755  <S**2>=0.000
     245 -> 248        0.18415
     246 -> 247        0.68406
     245 <- 248        0.11749
 This state for optimization and/or second-order correction.
 Total Energy, E(TD-HF/TD-DFT) =  -3007.80614241
 Copying the excited state density for this state as the 1-particle RhoCI density.

 Excited State   2:      Singlet-A      2.1079 eV  588.18 nm  f=0.1345  <S**2>=0.000
     245 -> 247        0.64591
     246 -> 248       -0.27440

 Excited State   3:      Singlet-A      3.4066 eV  363.95 nm  f=0.0046  <S**2>=0.000
     242 -> 247       -0.17172
     243 -> 247        0.11276
     244 -> 247        0.65187

 Excited State   4:      Singlet-A      3.5041 eV  353.82 nm  f=0.4012  <S**2>=0.000
     242 -> 247        0.32069
     243 -> 247       -0.11292
     244 -> 247        0.12184
     245 -> 247        0.19900
     246 -> 248        0.55272
     245 <- 247       -0.10187

 Excited State   5:      Singlet-A      3.6148 eV  342.99 nm  f=0.0066  <S**2>=0.000
     242 -> 247        0.28333
     242 -> 249        0.15667
     242 -> 250       -0.14951
     243 -> 247        0.49861
     243 -> 249        0.20110
     243 -> 250       -0.18139

 The electronic state is 1-A.
 Alpha  occ. eigenvalues --  -46.95008 -19.31859 -19.29259 -19.25917 -19.23819
 Alpha  occ. eigenvalues --  -19.23464 -19.23295 -14.46537 -14.46504 -14.44508
 Alpha  occ. eigenvalues --  -14.43385 -10.44600 -10.42903 -10.38928 -10.38117
 Alpha  occ. eigenvalues --  -10.36301 -10.35913 -10.35147 -10.34946 -10.34616
 Alpha  occ. eigenvalues --  -10.34533 -10.34464 -10.34285 -10.33420 -10.32932
 Alpha  occ. eigenvalues --  -10.32692 -10.32348 -10.31997 -10.31732 -10.31731
 Alpha  occ. eigenvalues --  -10.31701 -10.31606 -10.31574 -10.31508 -10.31452
 Alpha  occ. eigenvalues --  -10.31408 -10.31327 -10.31105 -10.30935 -10.30315
 Alpha  occ. eigenvalues --  -10.30201 -10.30143 -10.30123 -10.30057 -10.29967
 Alpha  occ. eigenvalues --  -10.29934 -10.29827 -10.29787 -10.29590 -10.29547
 Alpha  occ. eigenvalues --  -10.29508 -10.29504 -10.29252 -10.29118 -10.29113
 Alpha  occ. eigenvalues --  -10.28954 -10.28915 -10.28748 -10.28575 -10.28573
 Alpha  occ. eigenvalues --  -10.28554 -10.28321 -10.28272 -10.28211 -10.28124
 Alpha  occ. eigenvalues --  -10.27580  -3.20937  -1.94540  -1.94041  -1.93923
 Alpha  occ. eigenvalues --   -1.19105  -1.16189  -1.13718  -1.11457  -1.09749
 Alpha  occ. eigenvalues --   -1.07252  -1.07163  -1.05544  -1.04270  -1.03025
 Alpha  occ. eigenvalues --   -0.94065  -0.92855  -0.92066  -0.91909  -0.91151
 Alpha  occ. eigenvalues --   -0.90233  -0.90112  -0.89367  -0.89342  -0.88939
 Alpha  occ. eigenvalues --   -0.87894  -0.87046  -0.86152  -0.85078  -0.84838
 Alpha  occ. eigenvalues --   -0.84344  -0.84096  -0.83179  -0.82699  -0.81857
 Alpha  occ. eigenvalues --   -0.81747  -0.80324  -0.79438  -0.79123  -0.78075
 Alpha  occ. eigenvalues --   -0.77572  -0.77137  -0.77002  -0.76891  -0.75944
 Alpha  occ. eigenvalues --   -0.75438  -0.74703  -0.73384  -0.72532  -0.72277
 Alpha  occ. eigenvalues --   -0.71070  -0.70599  -0.69462  -0.68897  -0.67168
 Alpha  occ. eigenvalues --   -0.66882  -0.66807  -0.66509  -0.66127  -0.65969
 Alpha  occ. eigenvalues --   -0.65633  -0.65456  -0.64048  -0.63237  -0.62228
 Alpha  occ. eigenvalues --   -0.61867  -0.61391  -0.61084  -0.60175  -0.59770
 Alpha  occ. eigenvalues --   -0.59561  -0.59080  -0.58068  -0.57907  -0.57712
 Alpha  occ. eigenvalues --   -0.57343  -0.56853  -0.56449  -0.56297  -0.55951
 Alpha  occ. eigenvalues --   -0.55782  -0.55429  -0.55125  -0.55032  -0.54889
 Alpha  occ. eigenvalues --   -0.54589  -0.54191  -0.54064  -0.53930  -0.53640
 Alpha  occ. eigenvalues --   -0.53518  -0.52944  -0.52680  -0.52568  -0.52503
 Alpha  occ. eigenvalues --   -0.52315  -0.52159  -0.51826  -0.51739  -0.51334
 Alpha  occ. eigenvalues --   -0.51142  -0.50932  -0.50817  -0.50731  -0.50670
 Alpha  occ. eigenvalues --   -0.50363  -0.50123  -0.49851  -0.49787  -0.49634
 Alpha  occ. eigenvalues --   -0.49457  -0.49092  -0.48974  -0.48497  -0.48348
 Alpha  occ. eigenvalues --   -0.48089  -0.47967  -0.47721  -0.47454  -0.47293
 Alpha  occ. eigenvalues --   -0.47206  -0.47127  -0.46923  -0.46859  -0.46594
 Alpha  occ. eigenvalues --   -0.46511  -0.46101  -0.46045  -0.45874  -0.45747
 Alpha  occ. eigenvalues --   -0.45597  -0.45516  -0.45488  -0.45290  -0.45087
 Alpha  occ. eigenvalues --   -0.44987  -0.44570  -0.44438  -0.44351  -0.44176
 Alpha  occ. eigenvalues --   -0.43960  -0.43635  -0.43151  -0.42873  -0.42725
 Alpha  occ. eigenvalues --   -0.42603  -0.42520  -0.42445  -0.42181  -0.41908
 Alpha  occ. eigenvalues --   -0.41670  -0.41370  -0.41176  -0.41074  -0.40888
 Alpha  occ. eigenvalues --   -0.40415  -0.40194  -0.39876  -0.39738  -0.39320
 Alpha  occ. eigenvalues --   -0.39063  -0.38770  -0.38316  -0.38223  -0.37840
 Alpha  occ. eigenvalues --   -0.37670  -0.37155  -0.36928  -0.36573  -0.36134
 Alpha  occ. eigenvalues --   -0.34973  -0.34856  -0.34726  -0.33536  -0.33434
 Alpha  occ. eigenvalues --   -0.33379  -0.32508  -0.32238  -0.31590  -0.25589
 Alpha  occ. eigenvalues --   -0.22754
 Alpha virt. eigenvalues --   -0.07044   0.00420   0.02654   0.04633   0.05102
 Alpha virt. eigenvalues --    0.06216   0.06509   0.07183   0.07879   0.09474
 Alpha virt. eigenvalues --    0.10798   0.11006   0.11657   0.12007   0.12782

 Mulliken charges:
               1
     1  Mg   0.971067
     2  C   -0.042626
     3  C   -0.064943
     4  C   -0.074169
     5  C   -0.071670
     6  N   -0.366839
     7  C   -0.000397
     8  C   -0.086323
     9  C   -0.123102
    10  C    0.110234
    11  C   -0.003211
    12  C   -0.000004
    13  C    0.029167
    14  C    0.237313
    15  O   -0.296557
    16  O   -0.340703
    17  N   -0.465142
    18  C    0.132032
    19  C   -0.146899
    20  C   -0.054767
    21  C    0.133910
    22  C    0.054267
    23  C    0.024365
    24  O   -0.219265
    25  C   -0.000826
    26  N   -0.381987
    27  C    0.089637
    28  C   -0.085732
    29  C   -0.055508
    30  C    0.071738
    31  C   -0.001066
    32  C   -0.062135
    33  C   -0.023460
    34  N   -0.403330
    35  C    0.103708
    36  C   -0.165306
    37  C   -0.067849
    38  C    0.137656
    39  C    0.085520
    40  C    0.115162
    41  O   -0.207706
    42  C   -0.065749
    43  C    0.298678
    44  O   -0.268634
    45  O   -0.377831
    46  C    0.145728
    47  C    0.246482
    48  C   -0.140177
    49  C   -0.191033
    50  C    0.019109
    51  C    0.022866
    52  C   -0.009259
    53  C   -0.001481
    54  C   -0.183496
    55  C   -0.012074
    56  C    0.019883
    57  C   -0.023074
    58  C    0.051223
    59  C   -0.258809
    60  C    0.032837
    61  C    0.022948
    62  C   -0.018508
    63  C   -0.011857
    64  C   -0.218649
    65  C    0.007717
    66  C   -0.005690
    67  H   -0.001667
    68  H    0.024374
    69  H   -0.005138
    70  H    0.063514
    71  H    0.044948
    72  H    0.039902
    73  H    0.034157
    74  H    0.054572
    75  H    0.028812
    76  H    0.039895
    77  H    0.053684
    78  H    0.054538
    79  H    0.040420
    80  H    0.049666
    81  H    0.029734
    82  H    0.055379
    83  H    0.054501
    84  H    0.057545
    85  H    0.044705
    86  H    0.034335
    87  H    0.039351
    88  H    0.032386
    89  H    0.053584
    90  H    0.015803
    91  H    0.021714
    92  H    0.040481
    93  H    0.039582
    94  H    0.045964
    95  H    0.045252
    96  H    0.062848
    97  H    0.045192
    98  H    0.084833
    99  H    0.054204
   100  H    0.074986
   101  H    0.041336
   102  H    0.029424
   103  H    0.056094
   104  H    0.012842
   105  H    0.057211
   106  H    0.044653
   107  H    0.042487
   108  H    0.011445
   109  H    0.035002
   110  H    0.027364
   111  H    0.019460
   112  H    0.027228
   113  H    0.015426
   114  H    0.022452
   115  H    0.022021
   116  H    0.021157
   117  H    0.025681
   118  H    0.017470
   119  H    0.010770
   120  H    0.026038
   121  H    0.012485
   122  H    0.022801
   123  H    0.014047
   124  H    0.005355
   125  H    0.012448
   126  H    0.047496
   127  H    0.025542
   128  H    0.015355
   129  H    0.009938
   130  H    0.020797
   131  H    0.018234
   132  H    0.019251
   133  H    0.010789
   134  H    0.026704
   135  H   -0.001446
   136  H    0.033932
   137  H    0.028446
   138  H    0.039509
   139  H    0.033595
   140  H    0.019695
 Sum of Mulliken charges =  -0.00000

 Dipole moment (field-independent basis, Debye):
    X=              4.2107    Y=              3.6191    Z=             -3.8123  Tot=              6.7351
 Quadrupole moment (field-independent basis, Debye-Ang):
   XX=           -357.4886   YY=           -420.8422   ZZ=           -406.6055
   XY=            -16.7690   XZ=             -0.9000   YZ=             12.2726

 Normal termination of Gaussian 16 at Wed Apr 27 12:59:00 2022.
