 Gaussian 16, Revision A.03,
 Gaussian 16:  ES64L-G16RevA.03 25-Dec-2016

 --------------------
 #p ZINDO=(nstates=5)
 --------------------

 -----------------------------
 step_1151_chromophore_9 ZINDO
 -----------------------------
 Symbolic Z-matrix:
 Charge =  0 Multiplicity = 1

                         Standard orientation:
 ---------------------------------------------------------------------
 Center     Atomic      Atomic             Coordinates (Angstroms)
 Number     Number       Type             X           Y           Z
 ---------------------------------------------------------------------
      1         12           0       -5.099487    0.716359   -0.048392
      2          6           0       -3.576349   -2.603313    0.008906
      3          6           0       -1.943687    2.020736    0.014782
      4          6           0       -6.507897    3.738517   -0.028022
      5          6           0       -8.138004   -0.836945    0.378146
      6          7           0       -3.031321   -0.259559   -0.040914
      7          6           0       -2.646221   -1.600825   -0.037907
      8          6           0       -1.118137   -1.656283   -0.214591
      9          6           0       -0.573733   -0.170630   -0.061324
     10          6           0       -1.923042    0.582594    0.115259
     11          6           0        0.362296    0.019519    1.223337
     12          6           0       -0.625240   -2.441829   -1.508931
     13          6           0        0.467167   -3.464539   -1.254492
     14          6           0        1.591877   -3.105489   -0.284910
     15          8           0        1.535650   -3.319128    0.958591
     16          8           0        2.708738   -2.703131   -0.986265
     17          7           0       -4.311043    2.670815    0.052702
     18          6           0       -2.983157    3.038563    0.024650
     19          6           0       -2.912313    4.484676   -0.065612
     20          6           0       -4.191987    5.050799   -0.000763
     21          6           0       -5.081374    3.832660    0.121600
     22          6           0       -1.630079    5.206171   -0.387286
     23          6           0       -4.533731    6.510294   -0.074255
     24          8           0       -5.688431    6.845623   -0.136866
     25          6           0       -3.535389    7.588825   -0.066236
     26          7           0       -6.998401    1.382586    0.263184
     27          6           0       -7.328612    2.651711    0.104949
     28          6           0       -8.827452    2.875816    0.306216
     29          6           0       -9.316360    1.418168    0.577392
     30          6           0       -8.091074    0.602897    0.412486
     31          6           0       -9.199930    3.805360    1.538508
     32          6           0      -10.533066    1.046052   -0.215122
     33          6           0      -10.376035    0.784960   -1.674405
     34          7           0       -5.743319   -1.301573    0.073584
     35          6           0       -7.059292   -1.777270    0.121281
     36          6           0       -7.094846   -3.217322    0.078022
     37          6           0       -5.735638   -3.544012   -0.010434
     38          6           0       -4.970112   -2.372424    0.046350
     39          6           0       -8.250128   -4.097313    0.277986
     40          6           0       -4.876830   -4.693810    0.061494
     41          8           0       -5.057316   -5.895884    0.195084
     42          6           0       -3.454246   -4.149321   -0.117686
     43          6           0       -2.500245   -4.705499    0.904524
     44          8           0       -2.231494   -4.167070    1.997877
     45          8           0       -1.835751   -5.837494    0.507963
     46          6           0       -0.585982   -6.288454    1.231870
     47          6           0        3.852115   -2.447248   -0.143603
     48          6           0        5.067183   -1.927728   -0.907683
     49          6           0        6.023512   -2.557958   -1.576431
     50          6           0        6.080814   -4.060591   -1.760016
     51          6           0        7.289340   -1.838527   -2.082798
     52          6           0        7.078054   -1.043060   -3.331852
     53          6           0        8.454329   -0.355482   -3.788754
     54          6           0        8.565262    1.184432   -3.487661
     55          6           0        7.689154    1.919531   -4.547712
     56          6           0       10.060679    1.745234   -3.493594
     57          6           0       10.309659    2.746699   -2.324693
     58          6           0       11.132609    2.114557   -1.170499
     59          6           0       10.278177    2.057811    0.119488
     60          6           0        9.989070    3.385497    0.756928
     61          6           0       10.855964    0.994542    1.104444
     62          6           0        9.879518    0.803398    2.257101
     63          6           0       10.457502    1.518157    3.538241
     64          6           0       10.062273    0.630893    4.764370
     65          6           0        9.933162    1.492725    5.981053
     66          6           0       11.074149   -0.561322    4.999018
     67          1           0       -0.958000    2.486360    0.075819
     68          1           0       -6.987598    4.718237   -0.077247
     69          1           0       -9.152608   -1.239691    0.389297
     70          1           0       -0.820700   -2.346694    0.574521
     71          1           0        0.001980    0.041297   -0.962610
     72          1           0       -0.057471    0.799427    1.858279
     73          1           0        1.439191    0.172773    1.154224
     74          1           0        0.296006   -0.929721    1.755863
     75          1           0       -0.195894   -1.678802   -2.158148
     76          1           0       -1.514481   -2.874369   -1.965410
     77          1           0        0.899863   -3.561962   -2.249623
     78          1           0       -0.022640   -4.400309   -0.984875
     79          1           0       -1.431452    5.972185    0.362676
     80          1           0       -1.561614    5.708800   -1.352212
     81          1           0       -0.784387    4.524481   -0.472736
     82          1           0       -2.787010    7.532237    0.724977
     83          1           0       -4.059656    8.531761    0.089588
     84          1           0       -3.063221    7.612115   -1.048397
     85          1           0       -9.341196    3.206674   -0.597170
     86          1           0       -9.722673    1.285170    1.580658
     87          1           0       -9.891611    3.464848    2.309366
     88          1           0       -9.722716    4.628996    1.052180
     89          1           0       -8.362026    4.247676    2.077503
     90          1           0      -11.219403    1.874335   -0.036046
     91          1           0      -11.057180    0.286268    0.364716
     92          1           0      -11.043102    1.524511   -2.117528
     93          1           0      -10.662988   -0.251188   -1.853315
     94          1           0       -9.394073    0.862695   -2.141349
     95          1           0       -9.010031   -3.684584    0.941944
     96          1           0       -7.958132   -5.105069    0.573052
     97          1           0       -8.680024   -4.176325   -0.720145
     98          1           0       -3.240581   -4.352579   -1.166912
     99          1           0       -0.388120   -7.349760    1.081504
    100          1           0       -0.607928   -6.071561    2.299724
    101          1           0        0.290923   -5.795987    0.814899
    102          1           0        4.147356   -3.438893    0.200969
    103          1           0        3.677748   -1.833003    0.738857
    104          1           0        5.242189   -0.868994   -0.714787
    105          1           0        6.752793   -4.422732   -0.982360
    106          1           0        6.453202   -4.360262   -2.740296
    107          1           0        5.086712   -4.490191   -1.630474
    108          1           0        8.026983   -2.624876   -2.242605
    109          1           0        7.703236   -1.245711   -1.267432
    110          1           0        6.251169   -0.349084   -3.179198
    111          1           0        6.825794   -1.658312   -4.196161
    112          1           0        8.530292   -0.552906   -4.857012
    113          1           0        9.268390   -0.857427   -3.266552
    114          1           0        8.090743    1.502567   -2.560385
    115          1           0        8.261523    2.549976   -5.227774
    116          1           0        6.997109    2.583604   -4.028718
    117          1           0        7.092008    1.284420   -5.201703
    118          1           0       10.357249    2.243811   -4.417170
    119          1           0       10.642053    0.825360   -3.555590
    120          1           0        9.428019    3.273576   -1.960434
    121          1           0       10.910482    3.541978   -2.766485
    122          1           0       12.050484    2.667193   -0.970507
    123          1           0       11.275588    1.071491   -1.451287
    124          1           0        9.302907    1.626729   -0.110159
    125          1           0       10.897382    3.528512    1.341769
    126          1           0        9.092783    3.397037    1.377583
    127          1           0       10.049433    4.151596   -0.015428
    128          1           0       11.835769    1.324473    1.450236
    129          1           0       10.943121    0.040936    0.583502
    130          1           0        9.693400   -0.241281    2.504705
    131          1           0        8.903816    1.232381    2.026033
    132          1           0       10.160723    2.564960    3.607963
    133          1           0       11.544204    1.606168    3.510422
    134          1           0        9.087068    0.167505    4.618091
    135          1           0       10.695768    1.123565    6.666256
    136          1           0        8.965739    1.345982    6.462675
    137          1           0       10.195884    2.550007    5.987503
    138          1           0       10.975599   -1.487833    4.433639
    139          1           0       11.029621   -0.689961    6.080411
    140          1           0       12.055395   -0.177728    4.717818
 ---------------------------------------------------------------------

 SCF Done:  E(RZINDO/S) =  -474.224401896     A.U. after   20 cycles

 Excitation energies and oscillator strengths:

 Excited State   1:      Singlet-A      1.2336 eV 1005.07 nm  f=0.6019  <S**2>=0.000
     175 ->178        -0.19287
     176 ->177         0.66223
 This state for optimization and/or second-order correction.
 Total Energy, E(CIS/TDA) =  -474.179068161
 Copying the excited state density for this state as the 1-particle RhoCI density.

 Excited State   2:      Singlet-A      1.8949 eV  654.32 nm  f=0.0565  <S**2>=0.000
     175 ->177         0.55451
     176 ->178         0.41246

 Excited State   3:      Singlet-A      2.9585 eV  419.08 nm  f=0.0952  <S**2>=0.000
     168 ->177         0.27338
     168 ->178        -0.17515
     168 ->179        -0.38008
     168 ->181         0.27987
     168 ->186        -0.23940
     168 ->187         0.11430
     175 ->177         0.10892
     176 ->178        -0.16153

 Excited State   4:      Singlet-A      2.9742 eV  416.87 nm  f=0.7361  <S**2>=0.000
     168 ->177         0.10321
     168 ->179        -0.12979
     168 ->181         0.10943
     169 ->179        -0.11358
     169 ->181        -0.10378
     175 ->177        -0.30232
     176 ->178         0.44670
     176 ->179         0.26177

 Excited State   5:      Singlet-A      3.0272 eV  409.56 nm  f=0.1106  <S**2>=0.000
     169 ->177         0.29596
     169 ->179         0.28357
     169 ->181         0.34169
     169 ->186         0.15958
     169 ->187         0.15004
     169 ->201         0.10368
     170 ->179         0.10439
     175 ->177        -0.11754
     176 ->178         0.16811

 The electronic state is 1-A.
 Alpha  occ. eigenvalues --   -1.84788  -1.82697  -1.76831  -1.73224  -1.69233
 Alpha  occ. eigenvalues --   -1.68619  -1.66861  -1.62010  -1.60427  -1.58275
 Alpha  occ. eigenvalues --   -1.56104  -1.51782  -1.50822  -1.48478  -1.47392
 Alpha  occ. eigenvalues --   -1.42397  -1.41074  -1.40188  -1.40052  -1.37809
 Alpha  occ. eigenvalues --   -1.35430  -1.33736  -1.32769  -1.30943  -1.27533
 Alpha  occ. eigenvalues --   -1.25536  -1.23882  -1.21702  -1.20940  -1.18031
 Alpha  occ. eigenvalues --   -1.16530  -1.15695  -1.14411  -1.13759  -1.13493
 Alpha  occ. eigenvalues --   -1.12936  -1.10645  -1.09911  -1.05230  -1.04548
 Alpha  occ. eigenvalues --   -1.02644  -1.01845  -0.99951  -0.98486  -0.97298
 Alpha  occ. eigenvalues --   -0.96294  -0.95301  -0.93949  -0.93115  -0.91831
 Alpha  occ. eigenvalues --   -0.91207  -0.89558  -0.88311  -0.86774  -0.86735
 Alpha  occ. eigenvalues --   -0.85610  -0.84973  -0.83171  -0.81359  -0.81291
 Alpha  occ. eigenvalues --   -0.79001  -0.78064  -0.77639  -0.77384  -0.77249
 Alpha  occ. eigenvalues --   -0.76368  -0.75748  -0.75075  -0.74273  -0.73971
 Alpha  occ. eigenvalues --   -0.73374  -0.72318  -0.71989  -0.71887  -0.71287
 Alpha  occ. eigenvalues --   -0.70203  -0.69272  -0.68999  -0.68825  -0.68084
 Alpha  occ. eigenvalues --   -0.67719  -0.66653  -0.66393  -0.65723  -0.65493
 Alpha  occ. eigenvalues --   -0.64678  -0.64505  -0.64164  -0.63495  -0.63291
 Alpha  occ. eigenvalues --   -0.62741  -0.62409  -0.62202  -0.62086  -0.61724
 Alpha  occ. eigenvalues --   -0.61428  -0.61218  -0.60808  -0.59886  -0.59720
 Alpha  occ. eigenvalues --   -0.59176  -0.58883  -0.58451  -0.58142  -0.57874
 Alpha  occ. eigenvalues --   -0.57698  -0.57441  -0.57258  -0.57184  -0.56795
 Alpha  occ. eigenvalues --   -0.56072  -0.55215  -0.54788  -0.54544  -0.54450
 Alpha  occ. eigenvalues --   -0.54212  -0.53921  -0.53900  -0.52668  -0.52620
 Alpha  occ. eigenvalues --   -0.52374  -0.52228  -0.52009  -0.51985  -0.51531
 Alpha  occ. eigenvalues --   -0.50797  -0.50741  -0.50470  -0.50006  -0.49868
 Alpha  occ. eigenvalues --   -0.49648  -0.49538  -0.49325  -0.48909  -0.48727
 Alpha  occ. eigenvalues --   -0.48622  -0.48395  -0.48241  -0.47885  -0.47605
 Alpha  occ. eigenvalues --   -0.47151  -0.47052  -0.46914  -0.46327  -0.46219
 Alpha  occ. eigenvalues --   -0.46112  -0.45981  -0.45715  -0.45347  -0.45327
 Alpha  occ. eigenvalues --   -0.45030  -0.44978  -0.44620  -0.44084  -0.43689
 Alpha  occ. eigenvalues --   -0.43366  -0.43356  -0.43055  -0.42925  -0.41913
 Alpha  occ. eigenvalues --   -0.41462  -0.40400  -0.40335  -0.39323  -0.38116
 Alpha  occ. eigenvalues --   -0.37688  -0.36922  -0.35588  -0.34338  -0.34150
 Alpha  occ. eigenvalues --   -0.33582  -0.33457  -0.32402  -0.32235  -0.26459
 Alpha  occ. eigenvalues --   -0.21714
 Alpha virt. eigenvalues --   -0.08555  -0.02025  -0.00275   0.00601   0.01460
 Alpha virt. eigenvalues --    0.02571   0.02820   0.02847   0.04654   0.05085
 Alpha virt. eigenvalues --    0.06447   0.06914   0.07058   0.07905   0.08098

 Mulliken charges:
               1
     1  Mg   0.428370
     2  C   -0.043288
     3  C   -0.085890
     4  C   -0.058478
     5  C   -0.071766
     6  N   -0.304746
     7  C    0.129201
     8  C   -0.010324
     9  C    0.008118
    10  C    0.138327
    11  C   -0.062694
    12  C   -0.022711
    13  C    0.009272
    14  C    0.467767
    15  O   -0.520340
    16  O   -0.252373
    17  N   -0.323240
    18  C    0.116934
    19  C    0.021798
    20  C   -0.037178
    21  C    0.118575
    22  C   -0.047951
    23  C    0.342121
    24  O   -0.517243
    25  C   -0.023933
    26  N   -0.238137
    27  C    0.151665
    28  C   -0.000065
    29  C    0.002943
    30  C    0.111981
    31  C   -0.057131
    32  C   -0.022771
    33  C   -0.051410
    34  N   -0.319707
    35  C    0.064686
    36  C    0.042029
    37  C   -0.068145
    38  C    0.132331
    39  C   -0.031199
    40  C    0.334095
    41  O   -0.533125
    42  C    0.058340
    43  C    0.491335
    44  O   -0.529835
    45  O   -0.274536
    46  C    0.076068
    47  C    0.104938
    48  C   -0.095611
    49  C    0.004386
    50  C   -0.041959
    51  C   -0.013491
    52  C   -0.028358
    53  C   -0.038612
    54  C   -0.018533
    55  C   -0.062457
    56  C   -0.038933
    57  C   -0.036106
    58  C   -0.035865
    59  C   -0.014884
    60  C   -0.056993
    61  C   -0.036750
    62  C   -0.039530
    63  C   -0.039999
    64  C   -0.006466
    65  C   -0.061625
    66  C   -0.064675
    67  H    0.017211
    68  H    0.039251
    69  H    0.027205
    70  H    0.047729
    71  H    0.038578
    72  H    0.021880
    73  H    0.027679
    74  H    0.029560
    75  H    0.019378
    76  H    0.028579
    77  H    0.024975
    78  H    0.049475
    79  H    0.028722
    80  H    0.029092
    81  H    0.019006
    82  H    0.033918
    83  H    0.034088
    84  H    0.041561
    85  H    0.039360
    86  H    0.027642
    87  H    0.026594
    88  H    0.011574
    89  H    0.028498
    90  H    0.005014
    91  H    0.014213
    92  H    0.020075
    93  H    0.018765
    94  H    0.025838
    95  H    0.030395
    96  H    0.038587
    97  H    0.029341
    98  H    0.058777
    99  H    0.035591
   100  H    0.057515
   101  H    0.038024
   102  H    0.036290
   103  H    0.054377
   104  H    0.014737
   105  H    0.033081
   106  H    0.024989
   107  H    0.021320
   108  H    0.015145
   109  H    0.024746
   110  H    0.027019
   111  H    0.018156
   112  H    0.022290
   113  H    0.016199
   114  H    0.027944
   115  H    0.015519
   116  H    0.010226
   117  H    0.017458
   118  H    0.017371
   119  H    0.021951
   120  H    0.030421
   121  H    0.005811
   122  H    0.028243
   123  H    0.021441
   124  H    0.007817
   125  H    0.014809
   126  H    0.030912
   127  H    0.018595
   128  H    0.023397
   129  H    0.011232
   130  H    0.019274
   131  H    0.020740
   132  H    0.020713
   133  H    0.018683
   134  H    0.018849
   135  H    0.007479
   136  H    0.016370
   137  H    0.022920
   138  H    0.025955
   139  H    0.023401
   140  H    0.014214
 Sum of Mulliken charges =  -0.00000

 Dipole moment (field-independent basis, Debye):
    X=              5.2577    Y=              5.2646    Z=             -5.5375  Tot=              9.2748
 N-N= 4.371454885690D+03 E-N= 0.000000000000D+00  KE=-9.417532568683D+03
 Leave Link  601 at Wed Apr 27 13:12:49 2022, MaxMem=  6710886400 cpu:               0.8 elap:               0.0
 (Enter /sw/apps/gaussian-16.0/g16/l9999.exe)
 1\1\GINC-BP1-COMPUTE198\SP\RZINDO CIS\STO-3G\C55H74Mg1N4O6\OF15641\27-
 Apr-2022\0\\#p ZINDO=(nstates=5)\\step_1151_chromophore_9 ZINDO\\0,1\M
 g,0,36.041,1.078,29.846\C,0,33.938,2.152,32.633\C,0,38.71,1.237,31.971
 \C,0,37.956,0.167,27.273\C,0,33.29,1.466,27.819\N,0,36.211,1.6,32.066\
 C,0,35.246,1.984,32.998\C,0,35.916,2.031,34.383\C,0,37.482,1.885,34.15
 2\C,0,37.499,1.69,32.609\C,0,38.298,3.196,34.574\C,0,35.283,1.047,35.4
 63\C,0,34.975,1.688,36.804\C,0,35.98,2.68,37.387\O,0,35.959,3.919,37.1

 Normal termination of Gaussian 16 at Wed Apr 27 13:12:49 2022.
