 Gaussian 16, Revision A.03,
 Gaussian 16:  ES64L-G16RevA.03 25-Dec-2016

 ------------------------------
 #p blyp/Def2SVP td=(nstates=5)
 ------------------------------

 --------------------------------------------------
 step_1651_chromophore_7 TDDFT with blyp functional
 --------------------------------------------------
 Symbolic Z-matrix:
 Charge =  0 Multiplicity = 1

                         Standard orientation:
 ---------------------------------------------------------------------
 Center     Atomic      Atomic             Coordinates (Angstroms)
 Number     Number       Type             X           Y           Z
 ---------------------------------------------------------------------
      1         12           0        6.261843    0.703545    0.123181
      2          6           0        4.049211   -2.013890    0.017448
      3          6           0        3.887355    2.774590   -1.173168
      4          6           0        8.480838    3.271039    0.398733
      5          6           0        8.765282   -1.550914    1.013230
      6          7           0        4.216155    0.330210   -0.562061
      7          6           0        3.459728   -0.831067   -0.393661
      8          6           0        1.994132   -0.561717   -0.756904
      9          6           0        2.056428    0.964384   -1.219642
     10          6           0        3.453582    1.437387   -0.920562
     11          6           0        1.660917    1.167497   -2.684996
     12          6           0        1.002466   -0.927469    0.422576
     13          6           0       -0.450317   -0.581480    0.148868
     14          6           0       -1.464434   -1.495470    0.701770
     15          8           0       -1.407330   -1.853426    1.910261
     16          8           0       -2.428732   -1.799271   -0.244220
     17          7           0        6.239643    2.702710   -0.577446
     18          6           0        5.194368    3.341174   -1.105394
     19          6           0        5.671596    4.638353   -1.488514
     20          6           0        7.020061    4.808680   -1.007120
     21          6           0        7.300353    3.588923   -0.287534
     22          6           0        4.689635    5.677660   -2.285691
     23          6           0        7.933186    5.997444   -1.083289
     24          8           0        9.131719    5.954076   -0.735370
     25          6           0        7.281280    7.318875   -1.675255
     26          7           0        8.404117    0.789331    0.480164
     27          6           0        9.056819    2.039528    0.690942
     28          6           0       10.385431    1.795489    1.518736
     29          6           0       10.454391    0.263395    1.693792
     30          6           0        9.104992   -0.187243    0.999290
     31          6           0       11.722544    2.326676    0.864230
     32          6           0       10.587485   -0.256009    3.125922
     33          6           0       11.595874   -1.344438    3.358042
     34          7           0        6.427109   -1.344654    0.470230
     35          6           0        7.505049   -2.133365    0.720712
     36          6           0        7.122927   -3.532845    0.774098
     37          6           0        5.736095   -3.576920    0.626674
     38          6           0        5.404100   -2.198008    0.364154
     39          6           0        8.029902   -4.724963    1.011590
     40          6           0        4.602155   -4.347094    0.658149
     41          8           0        4.362030   -5.476394    1.057989
     42          6           0        3.406822   -3.400629    0.261849
     43          6           0        2.744863   -4.034913   -0.904505
     44          8           0        3.206323   -3.909110   -2.048146
     45          8           0        1.609986   -4.658582   -0.616692
     46          6           0        0.764045   -5.096577   -1.736225
     47          6           0       -3.567872   -2.476108    0.321502
     48          6           0       -4.620460   -2.407429   -0.706232
     49          6           0       -5.692446   -3.145888   -0.876293
     50          6           0       -5.784513   -4.609816   -0.428190
     51          6           0       -6.793823   -2.655838   -1.692455
     52          6           0       -7.863317   -2.039869   -0.772307
     53          6           0       -8.381399   -0.610550   -1.257163
     54          6           0       -9.849365   -0.677416   -1.743460
     55          6           0       -9.945410   -0.488705   -3.197124
     56          6           0      -10.785377    0.190909   -0.931009
     57          6           0      -12.275404   -0.248037   -1.070587
     58          6           0      -13.124698    0.980114   -1.422042
     59          6           0      -14.536150    0.888464   -0.817111
     60          6           0      -15.488403    0.080804   -1.752651
     61          6           0      -15.096495    2.142088   -0.150258
     62          6           0      -14.526324    2.290774    1.329144
     63          6           0      -15.566984    2.093876    2.420669
     64          6           0      -15.536138    3.233258    3.513261
     65          6           0      -14.800566    2.682090    4.799690
     66          6           0      -16.884848    3.749959    3.990632
     67          1           0        3.069993    3.446967   -1.441935
     68          1           0        9.069139    4.107271    0.783118
     69          1           0        9.512116   -2.252080    1.390625
     70          1           0        1.792406   -1.340574   -1.492331
     71          1           0        1.452211    1.509393   -0.493246
     72          1           0        2.574282    1.099081   -3.275996
     73          1           0        1.392748    2.215921   -2.820870
     74          1           0        0.890374    0.450258   -2.965268
     75          1           0        1.280716   -0.363506    1.313392
     76          1           0        0.955370   -2.000950    0.608261
     77          1           0       -0.825001   -0.290294   -0.832198
     78          1           0       -0.690586    0.352760    0.657131
     79          1           0        3.702659    5.294336   -2.544446
     80          1           0        5.231269    5.883048   -3.208215
     81          1           0        4.456492    6.577829   -1.716581
     82          1           0        7.918815    8.202043   -1.638490
     83          1           0        6.404586    7.413946   -1.034952
     84          1           0        7.128466    7.219389   -2.749832
     85          1           0       10.184579    2.333471    2.445705
     86          1           0       11.223065   -0.177188    1.058643
     87          1           0       11.523610    2.640848   -0.161329
     88          1           0       12.601388    1.683305    0.904918
     89          1           0       11.976598    3.304676    1.273218
     90          1           0        9.602476   -0.654849    3.369220
     91          1           0       10.824529    0.570784    3.795472
     92          1           0       11.146330   -2.315608    3.565202
     93          1           0       12.295175   -1.082731    4.151537
     94          1           0       12.185959   -1.502575    2.456092
     95          1           0        8.701381   -4.895604    0.170135
     96          1           0        7.543775   -5.617072    1.407098
     97          1           0        8.622650   -4.430889    1.877891
     98          1           0        2.628628   -3.270094    1.013964
     99          1           0        1.040647   -4.785916   -2.743923
    100          1           0       -0.240927   -4.685473   -1.645024
    101          1           0        0.656117   -6.173222   -1.604977
    102          1           0       -4.019340   -1.950841    1.163103
    103          1           0       -3.212721   -3.489443    0.507941
    104          1           0       -4.662472   -1.433763   -1.195282
    105          1           0       -4.806552   -5.089052   -0.392973
    106          1           0       -6.308392   -5.202800   -1.177413
    107          1           0       -6.312556   -4.637220    0.525434
    108          1           0       -7.350253   -3.481431   -2.138020
    109          1           0       -6.471898   -1.938175   -2.447185
    110          1           0       -7.476406   -1.833275    0.225327
    111          1           0       -8.681660   -2.758376   -0.723435
    112          1           0       -7.652456   -0.277477   -1.994916
    113          1           0       -8.243974    0.166024   -0.504012
    114          1           0      -10.188646   -1.691853   -1.533686
    115          1           0       -9.504596   -1.298628   -3.778445
    116          1           0       -9.458202    0.424779   -3.537714
    117          1           0      -10.972799   -0.258874   -3.479394
    118          1           0      -10.655306    1.253570   -1.133637
    119          1           0      -10.549388   -0.046147    0.106669
    120          1           0      -12.466109   -0.856583   -0.185994
    121          1           0      -12.546862   -0.955080   -1.854534
    122          1           0      -13.327402    0.993801   -2.492141
    123          1           0      -12.671213    1.955597   -1.246309
    124          1           0      -14.335741    0.192582   -0.001588
    125          1           0      -16.217010    0.826217   -2.073170
    126          1           0      -15.945708   -0.764136   -1.238209
    127          1           0      -14.985378   -0.272051   -2.652776
    128          1           0      -16.177708    2.269221   -0.095034
    129          1           0      -14.790332    3.056717   -0.656327
    130          1           0      -14.011857    3.247911    1.415018
    131          1           0      -13.740572    1.550413    1.481979
    132          1           0      -15.276704    1.124497    2.826593
    133          1           0      -16.603299    1.965557    2.106316
    134          1           0      -15.089314    4.094687    3.016461
    135          1           0      -14.158493    3.518332    5.075215
    136          1           0      -14.190430    1.842246    4.468225
    137          1           0      -15.492516    2.490967    5.619582
    138          1           0      -17.130655    4.553673    3.297605
    139          1           0      -17.007071    3.891926    5.064689
    140          1           0      -17.618298    2.973162    3.776895
 ---------------------------------------------------------------------

 SCF Done:  E(RB-LYP) =  -3007.33443973     A.U. after   21 cycles

 Excitation energies and oscillator strengths:

 Excited State   1:      Singlet-A      1.7457 eV  710.22 nm  f=0.1429  <S**2>=0.000
     244 -> 247       -0.38092
     245 -> 247        0.23390
     245 -> 248        0.12041
     246 -> 247        0.53374
     246 <- 247       -0.11810
 This state for optimization and/or second-order correction.
 Total Energy, E(TD-HF/TD-DFT) =  -3007.27028596
 Copying the excited state density for this state as the 1-particle RhoCI density.

 Excited State   2:      Singlet-A      1.8204 eV  681.10 nm  f=0.1899  <S**2>=0.000
     244 -> 247        0.43563
     245 -> 247       -0.31943
     245 -> 248        0.11218
     246 -> 247        0.43737
     246 <- 247       -0.10544

 Excited State   3:      Singlet-A      1.8983 eV  653.13 nm  f=0.0060  <S**2>=0.000
     243 -> 247        0.68805
     244 -> 247       -0.11052

 Excited State   4:      Singlet-A      1.9937 eV  621.89 nm  f=0.0667  <S**2>=0.000
     243 -> 247        0.14131
     244 -> 247        0.38319
     245 -> 247        0.52330
     246 -> 248       -0.18245

 Excited State   5:      Singlet-A      2.3063 eV  537.60 nm  f=0.0000  <S**2>=0.000
     241 -> 247        0.70556

 The electronic state is 1-A.
 Alpha  occ. eigenvalues --  -46.27473 -18.83220 -18.82856 -18.76990 -18.75713
 Alpha  occ. eigenvalues --  -18.75463 -18.75240 -14.03269 -14.03265 -14.01330
 Alpha  occ. eigenvalues --  -14.00927 -10.04306 -10.03295 -10.00206  -9.99210
 Alpha  occ. eigenvalues --   -9.98110  -9.98031  -9.96943  -9.96796  -9.96629
 Alpha  occ. eigenvalues --   -9.96423  -9.95861  -9.95779  -9.95440  -9.95008
 Alpha  occ. eigenvalues --   -9.94612  -9.94363  -9.94274  -9.94248  -9.94211
 Alpha  occ. eigenvalues --   -9.93906  -9.93559  -9.93454  -9.93380  -9.93348
 Alpha  occ. eigenvalues --   -9.93240  -9.93236  -9.92724  -9.92689  -9.92688
 Alpha  occ. eigenvalues --   -9.92579  -9.92556  -9.92507  -9.92339  -9.92288
 Alpha  occ. eigenvalues --   -9.91965  -9.91942  -9.91920  -9.91755  -9.91697
 Alpha  occ. eigenvalues --   -9.91667  -9.91429  -9.91388  -9.91382  -9.91232
 Alpha  occ. eigenvalues --   -9.91231  -9.91224  -9.91155  -9.91044  -9.90973
 Alpha  occ. eigenvalues --   -9.90931  -9.90838  -9.90813  -9.90726  -9.90560
 Alpha  occ. eigenvalues --   -9.90486  -2.91991  -1.72427  -1.71845  -1.71724
 Alpha  occ. eigenvalues --   -0.98628  -0.98107  -0.91367  -0.90004  -0.89376
 Alpha  occ. eigenvalues --   -0.88590  -0.87325  -0.85657  -0.85223  -0.84384
 Alpha  occ. eigenvalues --   -0.75555  -0.74897  -0.73656  -0.72970  -0.72461
 Alpha  occ. eigenvalues --   -0.72331  -0.71807  -0.71128  -0.71041  -0.70302
 Alpha  occ. eigenvalues --   -0.69799  -0.68788  -0.68465  -0.67677  -0.67486
 Alpha  occ. eigenvalues --   -0.66924  -0.66036  -0.65424  -0.65185  -0.64346
 Alpha  occ. eigenvalues --   -0.63780  -0.63099  -0.62244  -0.61754  -0.60957
 Alpha  occ. eigenvalues --   -0.60847  -0.59943  -0.59852  -0.59694  -0.59289
 Alpha  occ. eigenvalues --   -0.58692  -0.58061  -0.57146  -0.56104  -0.55063
 Alpha  occ. eigenvalues --   -0.54342  -0.53849  -0.52900  -0.52165  -0.51679
 Alpha  occ. eigenvalues --   -0.51495  -0.51342  -0.51202  -0.50691  -0.50172
 Alpha  occ. eigenvalues --   -0.49861  -0.49469  -0.49072  -0.48993  -0.46848
 Alpha  occ. eigenvalues --   -0.46228  -0.46092  -0.45734  -0.45517  -0.44684
 Alpha  occ. eigenvalues --   -0.44334  -0.43680  -0.43443  -0.42688  -0.42584
 Alpha  occ. eigenvalues --   -0.42141  -0.41923  -0.41556  -0.41278  -0.41212
 Alpha  occ. eigenvalues --   -0.40874  -0.40802  -0.40267  -0.40219  -0.39940
 Alpha  occ. eigenvalues --   -0.39802  -0.39700  -0.39460  -0.39443  -0.39125
 Alpha  occ. eigenvalues --   -0.39073  -0.38815  -0.38673  -0.38340  -0.38270
 Alpha  occ. eigenvalues --   -0.38081  -0.37958  -0.37635  -0.37548  -0.37270
 Alpha  occ. eigenvalues --   -0.37117  -0.37041  -0.36860  -0.36532  -0.36255
 Alpha  occ. eigenvalues --   -0.36215  -0.36138  -0.35800  -0.35782  -0.35617
 Alpha  occ. eigenvalues --   -0.35456  -0.35285  -0.35073  -0.35005  -0.34803
 Alpha  occ. eigenvalues --   -0.34719  -0.34607  -0.34323  -0.34099  -0.34052
 Alpha  occ. eigenvalues --   -0.33997  -0.33776  -0.33701  -0.33382  -0.33344
 Alpha  occ. eigenvalues --   -0.32970  -0.32722  -0.32596  -0.32482  -0.32185
 Alpha  occ. eigenvalues --   -0.32111  -0.32029  -0.31945  -0.31630  -0.31577
 Alpha  occ. eigenvalues --   -0.31451  -0.31373  -0.31207  -0.31131  -0.30899
 Alpha  occ. eigenvalues --   -0.30613  -0.30368  -0.30220  -0.30013  -0.29814
 Alpha  occ. eigenvalues --   -0.29785  -0.29443  -0.29147  -0.29052  -0.29000
 Alpha  occ. eigenvalues --   -0.28951  -0.28320  -0.28161  -0.28074  -0.27738
 Alpha  occ. eigenvalues --   -0.27598  -0.27135  -0.26823  -0.26626  -0.26399
 Alpha  occ. eigenvalues --   -0.26159  -0.25929  -0.25812  -0.25519  -0.25190
 Alpha  occ. eigenvalues --   -0.25030  -0.24667  -0.23892  -0.23728  -0.23494
 Alpha  occ. eigenvalues --   -0.23355  -0.22305  -0.21833  -0.21474  -0.20635
 Alpha  occ. eigenvalues --   -0.20325  -0.20114  -0.18704  -0.18508  -0.17267
 Alpha  occ. eigenvalues --   -0.15940
 Alpha virt. eigenvalues --   -0.11849  -0.07023  -0.06516  -0.04699  -0.03928
 Alpha virt. eigenvalues --   -0.02585  -0.02044  -0.01671  -0.01350   0.00130
 Alpha virt. eigenvalues --    0.01525   0.01765   0.02163   0.02359   0.02725

 Mulliken charges:
               1
     1  Mg   0.671052
     2  C    0.070457
     3  C   -0.056233
     4  C   -0.019906
     5  C   -0.086617
     6  N   -0.255846
     7  C   -0.083815
     8  C    0.003839
     9  C    0.055844
    10  C    0.008166
    11  C    0.147821
    12  C    0.108304
    13  C    0.154718
    14  C    0.053270
    15  O   -0.235153
    16  O   -0.265345
    17  N   -0.291732
    18  C    0.154219
    19  C   -0.141947
    20  C    0.043576
    21  C    0.108490
    22  C    0.133724
    23  C   -0.065772
    24  O   -0.185528
    25  C    0.109136
    26  N   -0.201045
    27  C   -0.000379
    28  C    0.023860
    29  C    0.029557
    30  C   -0.000614
    31  C    0.112137
    32  C    0.105317
    33  C    0.068541
    34  N   -0.220132
    35  C    0.126893
    36  C   -0.196446
    37  C    0.183790
    38  C    0.020483
    39  C    0.177671
    40  C   -0.089942
    41  O   -0.131963
    42  C    0.035982
    43  C    0.087208
    44  O   -0.215576
    45  O   -0.228261
    46  C    0.205485
    47  C    0.351564
    48  C   -0.136387
    49  C   -0.150994
    50  C    0.140825
    51  C    0.182229
    52  C    0.032027
    53  C    0.105892
    54  C   -0.051056
    55  C    0.132352
    56  C    0.116302
    57  C    0.050051
    58  C    0.104018
    59  C   -0.089417
    60  C    0.107586
    61  C    0.137485
    62  C    0.035450
    63  C    0.102466
    64  C   -0.126085
    65  C    0.106758
    66  C    0.118187
    67  H   -0.063481
    68  H   -0.035556
    69  H   -0.072336
    70  H   -0.013898
    71  H   -0.031280
    72  H    0.000342
    73  H   -0.013999
    74  H    0.009812
    75  H   -0.017518
    76  H    0.018711
    77  H   -0.028965
    78  H   -0.005285
    79  H   -0.018065
    80  H    0.008714
    81  H    0.004779
    82  H   -0.015223
    83  H    0.016224
    84  H    0.011593
    85  H   -0.014596
    86  H   -0.019544
    87  H   -0.004109
    88  H    0.003860
    89  H   -0.014208
    90  H   -0.015609
    91  H   -0.019925
    92  H   -0.003474
    93  H   -0.008707
    94  H   -0.020950
    95  H    0.013120
    96  H    0.005195
    97  H   -0.012822
    98  H    0.002370
    99  H    0.029615
   100  H    0.005616
   101  H    0.025772
   102  H    0.015486
   103  H   -0.006807
   104  H   -0.051138
   105  H   -0.006165
   106  H   -0.013500
   107  H    0.005482
   108  H   -0.044862
   109  H   -0.016865
   110  H   -0.020481
   111  H   -0.020636
   112  H   -0.049980
   113  H   -0.043193
   114  H   -0.044925
   115  H   -0.015700
   116  H   -0.037179
   117  H   -0.032744
   118  H   -0.025540
   119  H   -0.037630
   120  H   -0.027270
   121  H   -0.025735
   122  H   -0.038698
   123  H   -0.036095
   124  H   -0.038223
   125  H   -0.018884
   126  H   -0.008672
   127  H   -0.021424
   128  H   -0.040195
   129  H   -0.045911
   130  H   -0.033706
   131  H   -0.027359
   132  H   -0.036308
   133  H   -0.033827
   134  H   -0.027820
   135  H   -0.016035
   136  H   -0.014054
   137  H   -0.003501
   138  H   -0.018466
   139  H   -0.009006
   140  H   -0.035146
 Sum of Mulliken charges =  -0.00000

 Dipole moment (field-independent basis, Debye):
    X=             -3.9114    Y=              2.1985    Z=             -0.1562  Tot=              4.4897
 Quadrupole moment (field-independent basis, Debye-Ang):
   XX=           -388.9552   YY=           -423.3276   ZZ=           -410.4001
   XY=              1.0397   XZ=             24.2915   YZ=              3.7820

 Normal termination of Gaussian 16 at Wed May  4 12:09:13 2022.
