 Gaussian 16, Revision A.03,
 Gaussian 16:  ES64L-G16RevA.03 25-Dec-2016

 -----------------------------------
 #p cam-b3lyp/Def2SVP td=(nstates=5)
 -----------------------------------

 -------------------------------------------------------
 step_1651_chromophore_7 TDDFT with cam-b3lyp functional
 -------------------------------------------------------
 Symbolic Z-matrix:
 Charge =  0 Multiplicity = 1

                         Standard orientation:
 ---------------------------------------------------------------------
 Center     Atomic      Atomic             Coordinates (Angstroms)
 Number     Number       Type             X           Y           Z
 ---------------------------------------------------------------------
      1         12           0        6.261843    0.703545    0.123181
      2          6           0        4.049211   -2.013890    0.017448
      3          6           0        3.887355    2.774590   -1.173168
      4          6           0        8.480838    3.271039    0.398733
      5          6           0        8.765282   -1.550914    1.013230
      6          7           0        4.216155    0.330210   -0.562061
      7          6           0        3.459728   -0.831067   -0.393661
      8          6           0        1.994132   -0.561717   -0.756904
      9          6           0        2.056428    0.964384   -1.219642
     10          6           0        3.453582    1.437387   -0.920562
     11          6           0        1.660917    1.167497   -2.684996
     12          6           0        1.002466   -0.927469    0.422576
     13          6           0       -0.450317   -0.581480    0.148868
     14          6           0       -1.464434   -1.495470    0.701770
     15          8           0       -1.407330   -1.853426    1.910261
     16          8           0       -2.428732   -1.799271   -0.244220
     17          7           0        6.239643    2.702710   -0.577446
     18          6           0        5.194368    3.341174   -1.105394
     19          6           0        5.671596    4.638353   -1.488514
     20          6           0        7.020061    4.808680   -1.007120
     21          6           0        7.300353    3.588923   -0.287534
     22          6           0        4.689635    5.677660   -2.285691
     23          6           0        7.933186    5.997444   -1.083289
     24          8           0        9.131719    5.954076   -0.735370
     25          6           0        7.281280    7.318875   -1.675255
     26          7           0        8.404117    0.789331    0.480164
     27          6           0        9.056819    2.039528    0.690942
     28          6           0       10.385431    1.795489    1.518736
     29          6           0       10.454391    0.263395    1.693792
     30          6           0        9.104992   -0.187243    0.999290
     31          6           0       11.722544    2.326676    0.864230
     32          6           0       10.587485   -0.256009    3.125922
     33          6           0       11.595874   -1.344438    3.358042
     34          7           0        6.427109   -1.344654    0.470230
     35          6           0        7.505049   -2.133365    0.720712
     36          6           0        7.122927   -3.532845    0.774098
     37          6           0        5.736095   -3.576920    0.626674
     38          6           0        5.404100   -2.198008    0.364154
     39          6           0        8.029902   -4.724963    1.011590
     40          6           0        4.602155   -4.347094    0.658149
     41          8           0        4.362030   -5.476394    1.057989
     42          6           0        3.406822   -3.400629    0.261849
     43          6           0        2.744863   -4.034913   -0.904505
     44          8           0        3.206323   -3.909110   -2.048146
     45          8           0        1.609986   -4.658582   -0.616692
     46          6           0        0.764045   -5.096577   -1.736225
     47          6           0       -3.567872   -2.476108    0.321502
     48          6           0       -4.620460   -2.407429   -0.706232
     49          6           0       -5.692446   -3.145888   -0.876293
     50          6           0       -5.784513   -4.609816   -0.428190
     51          6           0       -6.793823   -2.655838   -1.692455
     52          6           0       -7.863317   -2.039869   -0.772307
     53          6           0       -8.381399   -0.610550   -1.257163
     54          6           0       -9.849365   -0.677416   -1.743460
     55          6           0       -9.945410   -0.488705   -3.197124
     56          6           0      -10.785377    0.190909   -0.931009
     57          6           0      -12.275404   -0.248037   -1.070587
     58          6           0      -13.124698    0.980114   -1.422042
     59          6           0      -14.536150    0.888464   -0.817111
     60          6           0      -15.488403    0.080804   -1.752651
     61          6           0      -15.096495    2.142088   -0.150258
     62          6           0      -14.526324    2.290774    1.329144
     63          6           0      -15.566984    2.093876    2.420669
     64          6           0      -15.536138    3.233258    3.513261
     65          6           0      -14.800566    2.682090    4.799690
     66          6           0      -16.884848    3.749959    3.990632
     67          1           0        3.069993    3.446967   -1.441935
     68          1           0        9.069139    4.107271    0.783118
     69          1           0        9.512116   -2.252080    1.390625
     70          1           0        1.792406   -1.340574   -1.492331
     71          1           0        1.452211    1.509393   -0.493246
     72          1           0        2.574282    1.099081   -3.275996
     73          1           0        1.392748    2.215921   -2.820870
     74          1           0        0.890374    0.450258   -2.965268
     75          1           0        1.280716   -0.363506    1.313392
     76          1           0        0.955370   -2.000950    0.608261
     77          1           0       -0.825001   -0.290294   -0.832198
     78          1           0       -0.690586    0.352760    0.657131
     79          1           0        3.702659    5.294336   -2.544446
     80          1           0        5.231269    5.883048   -3.208215
     81          1           0        4.456492    6.577829   -1.716581
     82          1           0        7.918815    8.202043   -1.638490
     83          1           0        6.404586    7.413946   -1.034952
     84          1           0        7.128466    7.219389   -2.749832
     85          1           0       10.184579    2.333471    2.445705
     86          1           0       11.223065   -0.177188    1.058643
     87          1           0       11.523610    2.640848   -0.161329
     88          1           0       12.601388    1.683305    0.904918
     89          1           0       11.976598    3.304676    1.273218
     90          1           0        9.602476   -0.654849    3.369220
     91          1           0       10.824529    0.570784    3.795472
     92          1           0       11.146330   -2.315608    3.565202
     93          1           0       12.295175   -1.082731    4.151537
     94          1           0       12.185959   -1.502575    2.456092
     95          1           0        8.701381   -4.895604    0.170135
     96          1           0        7.543775   -5.617072    1.407098
     97          1           0        8.622650   -4.430889    1.877891
     98          1           0        2.628628   -3.270094    1.013964
     99          1           0        1.040647   -4.785916   -2.743923
    100          1           0       -0.240927   -4.685473   -1.645024
    101          1           0        0.656117   -6.173222   -1.604977
    102          1           0       -4.019340   -1.950841    1.163103
    103          1           0       -3.212721   -3.489443    0.507941
    104          1           0       -4.662472   -1.433763   -1.195282
    105          1           0       -4.806552   -5.089052   -0.392973
    106          1           0       -6.308392   -5.202800   -1.177413
    107          1           0       -6.312556   -4.637220    0.525434
    108          1           0       -7.350253   -3.481431   -2.138020
    109          1           0       -6.471898   -1.938175   -2.447185
    110          1           0       -7.476406   -1.833275    0.225327
    111          1           0       -8.681660   -2.758376   -0.723435
    112          1           0       -7.652456   -0.277477   -1.994916
    113          1           0       -8.243974    0.166024   -0.504012
    114          1           0      -10.188646   -1.691853   -1.533686
    115          1           0       -9.504596   -1.298628   -3.778445
    116          1           0       -9.458202    0.424779   -3.537714
    117          1           0      -10.972799   -0.258874   -3.479394
    118          1           0      -10.655306    1.253570   -1.133637
    119          1           0      -10.549388   -0.046147    0.106669
    120          1           0      -12.466109   -0.856583   -0.185994
    121          1           0      -12.546862   -0.955080   -1.854534
    122          1           0      -13.327402    0.993801   -2.492141
    123          1           0      -12.671213    1.955597   -1.246309
    124          1           0      -14.335741    0.192582   -0.001588
    125          1           0      -16.217010    0.826217   -2.073170
    126          1           0      -15.945708   -0.764136   -1.238209
    127          1           0      -14.985378   -0.272051   -2.652776
    128          1           0      -16.177708    2.269221   -0.095034
    129          1           0      -14.790332    3.056717   -0.656327
    130          1           0      -14.011857    3.247911    1.415018
    131          1           0      -13.740572    1.550413    1.481979
    132          1           0      -15.276704    1.124497    2.826593
    133          1           0      -16.603299    1.965557    2.106316
    134          1           0      -15.089314    4.094687    3.016461
    135          1           0      -14.158493    3.518332    5.075215
    136          1           0      -14.190430    1.842246    4.468225
    137          1           0      -15.492516    2.490967    5.619582
    138          1           0      -17.130655    4.553673    3.297605
    139          1           0      -17.007071    3.891926    5.064689
    140          1           0      -17.618298    2.973162    3.776895
 ---------------------------------------------------------------------

 SCF Done:  E(RCAM-B3LYP) =  -3007.12565372     A.U. after   19 cycles

 Excitation energies and oscillator strengths:

 Excited State   1:      Singlet-A      1.6799 eV  738.05 nm  f=0.3970  <S**2>=0.000
     245 -> 248        0.16692
     246 -> 247        0.68739
     245 <- 248        0.10382
 This state for optimization and/or second-order correction.
 Total Energy, E(TD-HF/TD-DFT) =  -3007.06391853
 Copying the excited state density for this state as the 1-particle RhoCI density.

 Excited State   2:      Singlet-A      2.1709 eV  571.11 nm  f=0.1324  <S**2>=0.000
     245 -> 247        0.65009
     246 -> 248       -0.26311

 Excited State   3:      Singlet-A      3.2778 eV  378.25 nm  f=0.0011  <S**2>=0.000
     241 -> 247       -0.10256
     244 -> 247        0.68045

 Excited State   4:      Singlet-A      3.3621 eV  368.77 nm  f=0.0002  <S**2>=0.000
     240 -> 247        0.56226
     240 -> 249       -0.30649
     240 -> 250        0.16344
     241 -> 247       -0.13248

 Excited State   5:      Singlet-A      3.4856 eV  355.70 nm  f=0.4043  <S**2>=0.000
     241 -> 247        0.26318
     242 -> 247       -0.14488
     242 -> 249       -0.12094
     245 -> 247        0.21174
     246 -> 248        0.56080

 The electronic state is 1-A.
 Alpha  occ. eigenvalues --  -46.88999 -19.26226 -19.25962 -19.20029 -19.18993
 Alpha  occ. eigenvalues --  -19.18623 -19.18429 -14.42222 -14.42004 -14.39948
 Alpha  occ. eigenvalues --  -14.39094 -10.39779 -10.38811 -10.35219 -10.34823
 Alpha  occ. eigenvalues --  -10.32151 -10.32138 -10.31596 -10.31186 -10.31066
 Alpha  occ. eigenvalues --  -10.30831 -10.30575 -10.29786 -10.29661 -10.29394
 Alpha  occ. eigenvalues --  -10.29177 -10.28757 -10.28256 -10.28244 -10.28160
 Alpha  occ. eigenvalues --  -10.27946 -10.27772 -10.27623 -10.27477 -10.27426
 Alpha  occ. eigenvalues --  -10.27209 -10.27071 -10.27032 -10.26674 -10.26606
 Alpha  occ. eigenvalues --  -10.26551 -10.26441 -10.26279 -10.26217 -10.26038
 Alpha  occ. eigenvalues --  -10.25930 -10.25724 -10.25618 -10.25511 -10.25478
 Alpha  occ. eigenvalues --  -10.25368 -10.25359 -10.25096 -10.25082 -10.25018
 Alpha  occ. eigenvalues --  -10.24943 -10.24879 -10.24869 -10.24847 -10.24707
 Alpha  occ. eigenvalues --  -10.24656 -10.24426 -10.24417 -10.24383 -10.24116
 Alpha  occ. eigenvalues --  -10.24055  -3.17416  -1.92330  -1.91843  -1.91737
 Alpha  occ. eigenvalues --   -1.17294  -1.16581  -1.10095  -1.08051  -1.07349
 Alpha  occ. eigenvalues --   -1.06700  -1.05329  -1.03214  -1.02620  -1.01789
 Alpha  occ. eigenvalues --   -0.92923  -0.91878  -0.90493  -0.89784  -0.89197
 Alpha  occ. eigenvalues --   -0.89064  -0.88511  -0.87775  -0.87643  -0.86929
 Alpha  occ. eigenvalues --   -0.86160  -0.85044  -0.84722  -0.83908  -0.83662
 Alpha  occ. eigenvalues --   -0.83006  -0.82062  -0.81267  -0.81046  -0.80162
 Alpha  occ. eigenvalues --   -0.79647  -0.78909  -0.77758  -0.77354  -0.76395
 Alpha  occ. eigenvalues --   -0.76279  -0.75234  -0.75178  -0.74960  -0.74563
 Alpha  occ. eigenvalues --   -0.73773  -0.73218  -0.72030  -0.70946  -0.69856
 Alpha  occ. eigenvalues --   -0.68959  -0.68411  -0.67246  -0.66496  -0.65912
 Alpha  occ. eigenvalues --   -0.65698  -0.65469  -0.65184  -0.64624  -0.64217
 Alpha  occ. eigenvalues --   -0.63751  -0.63441  -0.63011  -0.62769  -0.60429
 Alpha  occ. eigenvalues --   -0.59877  -0.59663  -0.59164  -0.58947  -0.58026
 Alpha  occ. eigenvalues --   -0.57981  -0.57154  -0.56574  -0.56107  -0.55740
 Alpha  occ. eigenvalues --   -0.55258  -0.55008  -0.54504  -0.54338  -0.54124
 Alpha  occ. eigenvalues --   -0.53701  -0.53494  -0.53391  -0.52922  -0.52701
 Alpha  occ. eigenvalues --   -0.52394  -0.52236  -0.52102  -0.52067  -0.51860
 Alpha  occ. eigenvalues --   -0.51510  -0.51376  -0.51197  -0.50909  -0.50632
 Alpha  occ. eigenvalues --   -0.50416  -0.50297  -0.49985  -0.49868  -0.49702
 Alpha  occ. eigenvalues --   -0.49418  -0.49360  -0.49209  -0.48898  -0.48576
 Alpha  occ. eigenvalues --   -0.48516  -0.48176  -0.48143  -0.47926  -0.47750
 Alpha  occ. eigenvalues --   -0.47640  -0.47443  -0.47042  -0.46963  -0.46913
 Alpha  occ. eigenvalues --   -0.46717  -0.46431  -0.46293  -0.45872  -0.45742
 Alpha  occ. eigenvalues --   -0.45705  -0.45681  -0.45462  -0.45257  -0.45165
 Alpha  occ. eigenvalues --   -0.45050  -0.44505  -0.44266  -0.44200  -0.44009
 Alpha  occ. eigenvalues --   -0.43822  -0.43636  -0.43457  -0.43260  -0.43119
 Alpha  occ. eigenvalues --   -0.42969  -0.42831  -0.42720  -0.42623  -0.42166
 Alpha  occ. eigenvalues --   -0.41881  -0.41808  -0.41559  -0.41528  -0.41267
 Alpha  occ. eigenvalues --   -0.40920  -0.40908  -0.40596  -0.40237  -0.40037
 Alpha  occ. eigenvalues --   -0.40026  -0.39295  -0.39182  -0.39081  -0.38677
 Alpha  occ. eigenvalues --   -0.38615  -0.37989  -0.37602  -0.37444  -0.37406
 Alpha  occ. eigenvalues --   -0.37248  -0.36884  -0.36625  -0.36255  -0.36204
 Alpha  occ. eigenvalues --   -0.35936  -0.35869  -0.34365  -0.34279  -0.33943
 Alpha  occ. eigenvalues --   -0.33889  -0.33455  -0.33026  -0.31622  -0.31124
 Alpha  occ. eigenvalues --   -0.31019  -0.30216  -0.30090  -0.29115  -0.24093
 Alpha  occ. eigenvalues --   -0.21229
 Alpha virt. eigenvalues --   -0.09052  -0.01578  -0.00144   0.02207   0.02461
 Alpha virt. eigenvalues --    0.03721   0.05523   0.05659   0.05808   0.06959
 Alpha virt. eigenvalues --    0.08003   0.08361   0.08537   0.08768   0.08908

 Mulliken charges:
               1
     1  Mg   0.802220
     2  C    0.035329
     3  C   -0.071540
     4  C   -0.035343
     5  C   -0.091601
     6  N   -0.329938
     7  C   -0.027622
     8  C   -0.040171
     9  C   -0.011212
    10  C    0.033358
    11  C    0.090297
    12  C    0.056393
    13  C    0.081387
    14  C    0.139915
    15  O   -0.275838
    16  O   -0.329872
    17  N   -0.375373
    18  C    0.156399
    19  C   -0.152004
    20  C   -0.026684
    21  C    0.124857
    22  C    0.085884
    23  C    0.008930
    24  O   -0.228472
    25  C    0.034556
    26  N   -0.271466
    27  C    0.016650
    28  C   -0.029439
    29  C   -0.025678
    30  C    0.026369
    31  C    0.054297
    32  C    0.043548
    33  C    0.004940
    34  N   -0.311103
    35  C    0.130171
    36  C   -0.178821
    37  C    0.099389
    38  C    0.060305
    39  C    0.125122
    40  C    0.003582
    41  O   -0.167244
    42  C   -0.034405
    43  C    0.174349
    44  O   -0.253451
    45  O   -0.291746
    46  C    0.168284
    47  C    0.311889
    48  C   -0.151029
    49  C   -0.175022
    50  C    0.080748
    51  C    0.112022
    52  C   -0.016252
    53  C    0.048514
    54  C   -0.108849
    55  C    0.076175
    56  C    0.061921
    57  C   -0.003485
    58  C    0.048923
    59  C   -0.143645
    60  C    0.051069
    61  C    0.080892
    62  C   -0.015786
    63  C    0.045995
    64  C   -0.181365
    65  C    0.048301
    66  C    0.056551
    67  H   -0.029974
    68  H    0.002859
    69  H   -0.035878
    70  H    0.019367
    71  H    0.003137
    72  H    0.027104
    73  H    0.010125
    74  H    0.030612
    75  H    0.015523
    76  H    0.042053
    77  H    0.008416
    78  H    0.027923
    79  H    0.007525
    80  H    0.030895
    81  H    0.027108
    82  H    0.018600
    83  H    0.039994
    84  H    0.038321
    85  H    0.018865
    86  H    0.015046
    87  H    0.022556
    88  H    0.026159
    89  H    0.010880
    90  H    0.015511
    91  H    0.010915
    92  H    0.018123
    93  H    0.017349
    94  H    0.002739
    95  H    0.041651
    96  H    0.036536
    97  H    0.012051
    98  H    0.046508
    99  H    0.057045
   100  H    0.026440
   101  H    0.048396
   102  H    0.044623
   103  H    0.021887
   104  H   -0.016458
   105  H    0.018169
   106  H    0.011926
   107  H    0.029691
   108  H   -0.012614
   109  H    0.013346
   110  H    0.007950
   111  H    0.005867
   112  H   -0.020453
   113  H   -0.011542
   114  H   -0.013572
   115  H    0.008247
   116  H   -0.011878
   117  H   -0.008562
   118  H    0.001717
   119  H   -0.007253
   120  H    0.001684
   121  H    0.000784
   122  H   -0.010289
   123  H   -0.007406
   124  H   -0.007150
   125  H    0.004712
   126  H    0.015324
   127  H    0.002084
   128  H   -0.009673
   129  H   -0.015653
   130  H   -0.005107
   131  H   -0.002108
   132  H   -0.007088
   133  H   -0.005754
   134  H    0.002314
   135  H    0.008377
   136  H    0.008256
   137  H    0.018983
   138  H    0.005967
   139  H    0.015751
   140  H   -0.010653
 Sum of Mulliken charges =  -0.00000

 Dipole moment (field-independent basis, Debye):
    X=             -4.0040    Y=              1.7841    Z=             -0.0733  Tot=              4.3841
 Quadrupole moment (field-independent basis, Debye-Ang):
   XX=           -386.2713   YY=           -419.7655   ZZ=           -410.6224
   XY=             -2.6375   XZ=             27.1105   YZ=              3.1927

 Normal termination of Gaussian 16 at Wed May  4 11:14:11 2022.
