 Gaussian 16, Revision A.03,
 Gaussian 16:  ES64L-G16RevA.03 25-Dec-2016

 ---------------------------------
 #p PBE1PBE/Def2SVP td=(nstates=5)
 ---------------------------------

 -----------------------------------------------------
 step_1651_chromophore_7 TDDFT with PBE1PBE functional
 -----------------------------------------------------
 Symbolic Z-matrix:
 Charge =  0 Multiplicity = 1

                         Standard orientation:
 ---------------------------------------------------------------------
 Center     Atomic      Atomic             Coordinates (Angstroms)
 Number     Number       Type             X           Y           Z
 ---------------------------------------------------------------------
      1         12           0        6.261843    0.703545    0.123181
      2          6           0        4.049211   -2.013890    0.017448
      3          6           0        3.887355    2.774590   -1.173168
      4          6           0        8.480838    3.271039    0.398733
      5          6           0        8.765282   -1.550914    1.013230
      6          7           0        4.216155    0.330210   -0.562061
      7          6           0        3.459728   -0.831067   -0.393661
      8          6           0        1.994132   -0.561717   -0.756904
      9          6           0        2.056428    0.964384   -1.219642
     10          6           0        3.453582    1.437387   -0.920562
     11          6           0        1.660917    1.167497   -2.684996
     12          6           0        1.002466   -0.927469    0.422576
     13          6           0       -0.450317   -0.581480    0.148868
     14          6           0       -1.464434   -1.495470    0.701770
     15          8           0       -1.407330   -1.853426    1.910261
     16          8           0       -2.428732   -1.799271   -0.244220
     17          7           0        6.239643    2.702710   -0.577446
     18          6           0        5.194368    3.341174   -1.105394
     19          6           0        5.671596    4.638353   -1.488514
     20          6           0        7.020061    4.808680   -1.007120
     21          6           0        7.300353    3.588923   -0.287534
     22          6           0        4.689635    5.677660   -2.285691
     23          6           0        7.933186    5.997444   -1.083289
     24          8           0        9.131719    5.954076   -0.735370
     25          6           0        7.281280    7.318875   -1.675255
     26          7           0        8.404117    0.789331    0.480164
     27          6           0        9.056819    2.039528    0.690942
     28          6           0       10.385431    1.795489    1.518736
     29          6           0       10.454391    0.263395    1.693792
     30          6           0        9.104992   -0.187243    0.999290
     31          6           0       11.722544    2.326676    0.864230
     32          6           0       10.587485   -0.256009    3.125922
     33          6           0       11.595874   -1.344438    3.358042
     34          7           0        6.427109   -1.344654    0.470230
     35          6           0        7.505049   -2.133365    0.720712
     36          6           0        7.122927   -3.532845    0.774098
     37          6           0        5.736095   -3.576920    0.626674
     38          6           0        5.404100   -2.198008    0.364154
     39          6           0        8.029902   -4.724963    1.011590
     40          6           0        4.602155   -4.347094    0.658149
     41          8           0        4.362030   -5.476394    1.057989
     42          6           0        3.406822   -3.400629    0.261849
     43          6           0        2.744863   -4.034913   -0.904505
     44          8           0        3.206323   -3.909110   -2.048146
     45          8           0        1.609986   -4.658582   -0.616692
     46          6           0        0.764045   -5.096577   -1.736225
     47          6           0       -3.567872   -2.476108    0.321502
     48          6           0       -4.620460   -2.407429   -0.706232
     49          6           0       -5.692446   -3.145888   -0.876293
     50          6           0       -5.784513   -4.609816   -0.428190
     51          6           0       -6.793823   -2.655838   -1.692455
     52          6           0       -7.863317   -2.039869   -0.772307
     53          6           0       -8.381399   -0.610550   -1.257163
     54          6           0       -9.849365   -0.677416   -1.743460
     55          6           0       -9.945410   -0.488705   -3.197124
     56          6           0      -10.785377    0.190909   -0.931009
     57          6           0      -12.275404   -0.248037   -1.070587
     58          6           0      -13.124698    0.980114   -1.422042
     59          6           0      -14.536150    0.888464   -0.817111
     60          6           0      -15.488403    0.080804   -1.752651
     61          6           0      -15.096495    2.142088   -0.150258
     62          6           0      -14.526324    2.290774    1.329144
     63          6           0      -15.566984    2.093876    2.420669
     64          6           0      -15.536138    3.233258    3.513261
     65          6           0      -14.800566    2.682090    4.799690
     66          6           0      -16.884848    3.749959    3.990632
     67          1           0        3.069993    3.446967   -1.441935
     68          1           0        9.069139    4.107271    0.783118
     69          1           0        9.512116   -2.252080    1.390625
     70          1           0        1.792406   -1.340574   -1.492331
     71          1           0        1.452211    1.509393   -0.493246
     72          1           0        2.574282    1.099081   -3.275996
     73          1           0        1.392748    2.215921   -2.820870
     74          1           0        0.890374    0.450258   -2.965268
     75          1           0        1.280716   -0.363506    1.313392
     76          1           0        0.955370   -2.000950    0.608261
     77          1           0       -0.825001   -0.290294   -0.832198
     78          1           0       -0.690586    0.352760    0.657131
     79          1           0        3.702659    5.294336   -2.544446
     80          1           0        5.231269    5.883048   -3.208215
     81          1           0        4.456492    6.577829   -1.716581
     82          1           0        7.918815    8.202043   -1.638490
     83          1           0        6.404586    7.413946   -1.034952
     84          1           0        7.128466    7.219389   -2.749832
     85          1           0       10.184579    2.333471    2.445705
     86          1           0       11.223065   -0.177188    1.058643
     87          1           0       11.523610    2.640848   -0.161329
     88          1           0       12.601388    1.683305    0.904918
     89          1           0       11.976598    3.304676    1.273218
     90          1           0        9.602476   -0.654849    3.369220
     91          1           0       10.824529    0.570784    3.795472
     92          1           0       11.146330   -2.315608    3.565202
     93          1           0       12.295175   -1.082731    4.151537
     94          1           0       12.185959   -1.502575    2.456092
     95          1           0        8.701381   -4.895604    0.170135
     96          1           0        7.543775   -5.617072    1.407098
     97          1           0        8.622650   -4.430889    1.877891
     98          1           0        2.628628   -3.270094    1.013964
     99          1           0        1.040647   -4.785916   -2.743923
    100          1           0       -0.240927   -4.685473   -1.645024
    101          1           0        0.656117   -6.173222   -1.604977
    102          1           0       -4.019340   -1.950841    1.163103
    103          1           0       -3.212721   -3.489443    0.507941
    104          1           0       -4.662472   -1.433763   -1.195282
    105          1           0       -4.806552   -5.089052   -0.392973
    106          1           0       -6.308392   -5.202800   -1.177413
    107          1           0       -6.312556   -4.637220    0.525434
    108          1           0       -7.350253   -3.481431   -2.138020
    109          1           0       -6.471898   -1.938175   -2.447185
    110          1           0       -7.476406   -1.833275    0.225327
    111          1           0       -8.681660   -2.758376   -0.723435
    112          1           0       -7.652456   -0.277477   -1.994916
    113          1           0       -8.243974    0.166024   -0.504012
    114          1           0      -10.188646   -1.691853   -1.533686
    115          1           0       -9.504596   -1.298628   -3.778445
    116          1           0       -9.458202    0.424779   -3.537714
    117          1           0      -10.972799   -0.258874   -3.479394
    118          1           0      -10.655306    1.253570   -1.133637
    119          1           0      -10.549388   -0.046147    0.106669
    120          1           0      -12.466109   -0.856583   -0.185994
    121          1           0      -12.546862   -0.955080   -1.854534
    122          1           0      -13.327402    0.993801   -2.492141
    123          1           0      -12.671213    1.955597   -1.246309
    124          1           0      -14.335741    0.192582   -0.001588
    125          1           0      -16.217010    0.826217   -2.073170
    126          1           0      -15.945708   -0.764136   -1.238209
    127          1           0      -14.985378   -0.272051   -2.652776
    128          1           0      -16.177708    2.269221   -0.095034
    129          1           0      -14.790332    3.056717   -0.656327
    130          1           0      -14.011857    3.247911    1.415018
    131          1           0      -13.740572    1.550413    1.481979
    132          1           0      -15.276704    1.124497    2.826593
    133          1           0      -16.603299    1.965557    2.106316
    134          1           0      -15.089314    4.094687    3.016461
    135          1           0      -14.158493    3.518332    5.075215
    136          1           0      -14.190430    1.842246    4.468225
    137          1           0      -15.492516    2.490967    5.619582
    138          1           0      -17.130655    4.553673    3.297605
    139          1           0      -17.007071    3.891926    5.064689
    140          1           0      -17.618298    2.973162    3.776895
 ---------------------------------------------------------------------

 SCF Done:  E(RPBE1PBE) =  -3005.31531624     A.U. after   16 cycles

 Excitation energies and oscillator strengths:

 Excited State   1:      Singlet-A      1.8240 eV  679.73 nm  f=0.3785  <S**2>=0.000
     245 -> 248        0.16175
     246 -> 247        0.69552
     246 <- 247       -0.11617
 This state for optimization and/or second-order correction.
 Total Energy, E(TD-HF/TD-DFT) =  -3005.24828492
 Copying the excited state density for this state as the 1-particle RhoCI density.

 Excited State   2:      Singlet-A      2.1678 eV  571.94 nm  f=0.1266  <S**2>=0.000
     245 -> 247        0.66160
     246 -> 248       -0.23245

 Excited State   3:      Singlet-A      2.9028 eV  427.11 nm  f=0.0008  <S**2>=0.000
     241 -> 247        0.58520
     241 -> 249       -0.15933
     244 -> 247        0.33261

 Excited State   4:      Singlet-A      2.9098 eV  426.10 nm  f=0.0042  <S**2>=0.000
     241 -> 247       -0.31623
     244 -> 247        0.61387

 Excited State   5:      Singlet-A      2.9702 eV  417.42 nm  f=0.0019  <S**2>=0.000
     243 -> 247        0.66301
     243 -> 248        0.10286
     243 -> 249        0.13360

 The electronic state is 1-A.
 Alpha  occ. eigenvalues --  -46.92410 -19.26910 -19.26496 -19.20336 -19.19077
 Alpha  occ. eigenvalues --  -19.19008 -19.18589 -14.41669 -14.41663 -14.39468
 Alpha  occ. eigenvalues --  -14.38945 -10.36815 -10.35719 -10.32593 -10.31726
 Alpha  occ. eigenvalues --  -10.29505 -10.29295 -10.29158 -10.29108 -10.28829
 Alpha  occ. eigenvalues --  -10.28619 -10.27985 -10.27720 -10.27201 -10.27190
 Alpha  occ. eigenvalues --  -10.26661 -10.26557 -10.26407 -10.26093 -10.26046
 Alpha  occ. eigenvalues --  -10.25528 -10.25438 -10.25296 -10.25281 -10.25252
 Alpha  occ. eigenvalues --  -10.24720 -10.24700 -10.24646 -10.24519 -10.24254
 Alpha  occ. eigenvalues --  -10.24062 -10.23860 -10.23808 -10.23580 -10.23575
 Alpha  occ. eigenvalues --  -10.23367 -10.23226 -10.23172 -10.23144 -10.23054
 Alpha  occ. eigenvalues --  -10.22915 -10.22721 -10.22700 -10.22689 -10.22682
 Alpha  occ. eigenvalues --  -10.22658 -10.22454 -10.22420 -10.22377 -10.22287
 Alpha  occ. eigenvalues --  -10.22219 -10.21956 -10.21834 -10.21821 -10.21466
 Alpha  occ. eigenvalues --  -10.21450  -3.14412  -1.87267  -1.86757  -1.86656
 Alpha  occ. eigenvalues --   -1.11994  -1.11393  -1.04630  -1.02980  -1.02172
 Alpha  occ. eigenvalues --   -1.01394  -0.99819  -0.97876  -0.97394  -0.96507
 Alpha  occ. eigenvalues --   -0.87156  -0.86039  -0.84614  -0.83977  -0.83419
 Alpha  occ. eigenvalues --   -0.83179  -0.82829  -0.82093  -0.81764  -0.81188
 Alpha  occ. eigenvalues --   -0.80479  -0.79489  -0.78999  -0.78137  -0.77907
 Alpha  occ. eigenvalues --   -0.77217  -0.76285  -0.75549  -0.75357  -0.74330
 Alpha  occ. eigenvalues --   -0.73948  -0.73108  -0.72152  -0.71622  -0.70664
 Alpha  occ. eigenvalues --   -0.70436  -0.69549  -0.69302  -0.69152  -0.68705
 Alpha  occ. eigenvalues --   -0.68123  -0.67577  -0.66462  -0.65295  -0.64298
 Alpha  occ. eigenvalues --   -0.63277  -0.62660  -0.61818  -0.60776  -0.60269
 Alpha  occ. eigenvalues --   -0.60046  -0.59845  -0.59730  -0.59193  -0.58347
 Alpha  occ. eigenvalues --   -0.58226  -0.57617  -0.57299  -0.57187  -0.54798
 Alpha  occ. eigenvalues --   -0.54391  -0.54231  -0.53781  -0.53468  -0.52438
 Alpha  occ. eigenvalues --   -0.52418  -0.51644  -0.51041  -0.50514  -0.50337
 Alpha  occ. eigenvalues --   -0.49877  -0.49532  -0.48982  -0.48866  -0.48746
 Alpha  occ. eigenvalues --   -0.48262  -0.47969  -0.47920  -0.47506  -0.47274
 Alpha  occ. eigenvalues --   -0.46925  -0.46756  -0.46579  -0.46567  -0.46361
 Alpha  occ. eigenvalues --   -0.46009  -0.45931  -0.45672  -0.45476  -0.45138
 Alpha  occ. eigenvalues --   -0.45057  -0.44968  -0.44574  -0.44531  -0.44287
 Alpha  occ. eigenvalues --   -0.43983  -0.43947  -0.43754  -0.43631  -0.43168
 Alpha  occ. eigenvalues --   -0.43126  -0.42942  -0.42721  -0.42557  -0.42348
 Alpha  occ. eigenvalues --   -0.42290  -0.42069  -0.41701  -0.41644  -0.41569
 Alpha  occ. eigenvalues --   -0.41416  -0.41088  -0.41081  -0.40617  -0.40402
 Alpha  occ. eigenvalues --   -0.40339  -0.40317  -0.40197  -0.39995  -0.39850
 Alpha  occ. eigenvalues --   -0.39692  -0.39216  -0.39012  -0.38884  -0.38761
 Alpha  occ. eigenvalues --   -0.38568  -0.38471  -0.38145  -0.38009  -0.37912
 Alpha  occ. eigenvalues --   -0.37726  -0.37659  -0.37534  -0.37396  -0.37178
 Alpha  occ. eigenvalues --   -0.36744  -0.36652  -0.36496  -0.36392  -0.36039
 Alpha  occ. eigenvalues --   -0.35752  -0.35683  -0.35396  -0.35119  -0.34844
 Alpha  occ. eigenvalues --   -0.34791  -0.34264  -0.34048  -0.33953  -0.33606
 Alpha  occ. eigenvalues --   -0.33430  -0.32797  -0.32497  -0.32443  -0.32313
 Alpha  occ. eigenvalues --   -0.32119  -0.31977  -0.31431  -0.31120  -0.31019
 Alpha  occ. eigenvalues --   -0.30994  -0.30697  -0.29461  -0.29302  -0.28838
 Alpha  occ. eigenvalues --   -0.28823  -0.28797  -0.27954  -0.27162  -0.26546
 Alpha  occ. eigenvalues --   -0.25770  -0.25369  -0.25279  -0.24965  -0.21002
 Alpha  occ. eigenvalues --   -0.18874
 Alpha virt. eigenvalues --   -0.11493  -0.05218  -0.04335  -0.02189  -0.00811
 Alpha virt. eigenvalues --   -0.00319   0.00973   0.01287   0.01474   0.03150
 Alpha virt. eigenvalues --    0.04154   0.04811   0.05017   0.05304   0.05666

 Mulliken charges:
               1
     1  Mg   0.949616
     2  C    0.030592
     3  C   -0.069741
     4  C   -0.039214
     5  C   -0.080491
     6  N   -0.430569
     7  C    0.048120
     8  C   -0.103292
     9  C   -0.098296
    10  C    0.075069
    11  C    0.028722
    12  C   -0.005594
    13  C    0.012424
    14  C    0.204740
    15  O   -0.305500
    16  O   -0.362033
    17  N   -0.486977
    18  C    0.185237
    19  C   -0.174832
    20  C   -0.073987
    21  C    0.155142
    22  C    0.027862
    23  C    0.057173
    24  O   -0.262307
    25  C   -0.038572
    26  N   -0.376539
    27  C    0.056753
    28  C   -0.108098
    29  C   -0.097398
    30  C    0.065852
    31  C   -0.002079
    32  C   -0.017791
    33  C   -0.066300
    34  N   -0.438721
    35  C    0.146536
    36  C   -0.190526
    37  C    0.060669
    38  C    0.099521
    39  C    0.074401
    40  C    0.083507
    41  O   -0.215450
    42  C   -0.143475
    43  C    0.269883
    44  O   -0.287610
    45  O   -0.328334
    46  C    0.114911
    47  C    0.270526
    48  C   -0.155677
    49  C   -0.225685
    50  C    0.020376
    51  C    0.042083
    52  C   -0.073087
    53  C   -0.000219
    54  C   -0.202250
    55  C    0.018423
    56  C    0.002932
    57  C   -0.060377
    58  C   -0.004434
    59  C   -0.232260
    60  C   -0.009131
    61  C    0.028184
    62  C   -0.078866
    63  C   -0.005286
    64  C   -0.270495
    65  C   -0.016280
    66  C   -0.004523
    67  H    0.004266
    68  H    0.034370
    69  H   -0.001641
    70  H    0.059170
    71  H    0.041865
    72  H    0.055834
    73  H    0.037819
    74  H    0.058479
    75  H    0.047709
    76  H    0.078953
    77  H    0.039909
    78  H    0.060996
    79  H    0.035148
    80  H    0.060195
    81  H    0.054815
    82  H    0.047223
    83  H    0.066678
    84  H    0.065027
    85  H    0.055550
    86  H    0.051957
    87  H    0.050284
    88  H    0.053086
    89  H    0.038427
    90  H    0.050424
    91  H    0.043009
    92  H    0.045031
    93  H    0.044872
    94  H    0.029889
    95  H    0.067701
    96  H    0.062040
    97  H    0.038041
    98  H    0.083120
    99  H    0.076667
   100  H    0.047560
   101  H    0.069829
   102  H    0.071529
   103  H    0.048611
   104  H    0.014116
   105  H    0.044784
   106  H    0.038353
   107  H    0.057243
   108  H    0.021334
   109  H    0.043609
   110  H    0.041261
   111  H    0.036784
   112  H    0.011279
   113  H    0.020130
   114  H    0.026446
   115  H    0.036600
   116  H    0.016584
   117  H    0.020759
   118  H    0.033012
   119  H    0.027937
   120  H    0.031703
   121  H    0.031723
   122  H    0.023919
   123  H    0.023698
   124  H    0.034920
   125  H    0.033096
   126  H    0.042317
   127  H    0.028536
   128  H    0.021835
   129  H    0.017648
   130  H    0.025907
   131  H    0.030545
   132  H    0.025351
   133  H    0.024873
   134  H    0.038581
   135  H    0.037226
   136  H    0.036193
   137  H    0.045594
   138  H    0.034187
   139  H    0.042620
   140  H    0.017898
 Sum of Mulliken charges =  -0.00000

 Dipole moment (field-independent basis, Debye):
    X=             -4.0574    Y=              2.3824    Z=             -0.1662  Tot=              4.7080
 Quadrupole moment (field-independent basis, Debye-Ang):
   XX=           -381.2481   YY=           -416.6368   ZZ=           -407.9971
   XY=              0.7812   XZ=             27.4528   YZ=              2.6580

 Normal termination of Gaussian 16 at Wed May  4 11:29:53 2022.
