 Gaussian 16, Revision A.03,
 Gaussian 16:  ES64L-G16RevA.03 25-Dec-2016

 --------------------------------
 #p wB97XD/Def2SVP td=(nstates=5)
 --------------------------------

 ----------------------------------------------------
 step_1651_chromophore_7 TDDFT with wB97XD functional
 ----------------------------------------------------
 Symbolic Z-matrix:
 Charge =  0 Multiplicity = 1

                         Standard orientation:
 ---------------------------------------------------------------------
 Center     Atomic      Atomic             Coordinates (Angstroms)
 Number     Number       Type             X           Y           Z
 ---------------------------------------------------------------------
      1         12           0        6.261843    0.703545    0.123181
      2          6           0        4.049211   -2.013890    0.017448
      3          6           0        3.887355    2.774590   -1.173168
      4          6           0        8.480838    3.271039    0.398733
      5          6           0        8.765282   -1.550914    1.013230
      6          7           0        4.216155    0.330210   -0.562061
      7          6           0        3.459728   -0.831067   -0.393661
      8          6           0        1.994132   -0.561717   -0.756904
      9          6           0        2.056428    0.964384   -1.219642
     10          6           0        3.453582    1.437387   -0.920562
     11          6           0        1.660917    1.167497   -2.684996
     12          6           0        1.002466   -0.927469    0.422576
     13          6           0       -0.450317   -0.581480    0.148868
     14          6           0       -1.464434   -1.495470    0.701770
     15          8           0       -1.407330   -1.853426    1.910261
     16          8           0       -2.428732   -1.799271   -0.244220
     17          7           0        6.239643    2.702710   -0.577446
     18          6           0        5.194368    3.341174   -1.105394
     19          6           0        5.671596    4.638353   -1.488514
     20          6           0        7.020061    4.808680   -1.007120
     21          6           0        7.300353    3.588923   -0.287534
     22          6           0        4.689635    5.677660   -2.285691
     23          6           0        7.933186    5.997444   -1.083289
     24          8           0        9.131719    5.954076   -0.735370
     25          6           0        7.281280    7.318875   -1.675255
     26          7           0        8.404117    0.789331    0.480164
     27          6           0        9.056819    2.039528    0.690942
     28          6           0       10.385431    1.795489    1.518736
     29          6           0       10.454391    0.263395    1.693792
     30          6           0        9.104992   -0.187243    0.999290
     31          6           0       11.722544    2.326676    0.864230
     32          6           0       10.587485   -0.256009    3.125922
     33          6           0       11.595874   -1.344438    3.358042
     34          7           0        6.427109   -1.344654    0.470230
     35          6           0        7.505049   -2.133365    0.720712
     36          6           0        7.122927   -3.532845    0.774098
     37          6           0        5.736095   -3.576920    0.626674
     38          6           0        5.404100   -2.198008    0.364154
     39          6           0        8.029902   -4.724963    1.011590
     40          6           0        4.602155   -4.347094    0.658149
     41          8           0        4.362030   -5.476394    1.057989
     42          6           0        3.406822   -3.400629    0.261849
     43          6           0        2.744863   -4.034913   -0.904505
     44          8           0        3.206323   -3.909110   -2.048146
     45          8           0        1.609986   -4.658582   -0.616692
     46          6           0        0.764045   -5.096577   -1.736225
     47          6           0       -3.567872   -2.476108    0.321502
     48          6           0       -4.620460   -2.407429   -0.706232
     49          6           0       -5.692446   -3.145888   -0.876293
     50          6           0       -5.784513   -4.609816   -0.428190
     51          6           0       -6.793823   -2.655838   -1.692455
     52          6           0       -7.863317   -2.039869   -0.772307
     53          6           0       -8.381399   -0.610550   -1.257163
     54          6           0       -9.849365   -0.677416   -1.743460
     55          6           0       -9.945410   -0.488705   -3.197124
     56          6           0      -10.785377    0.190909   -0.931009
     57          6           0      -12.275404   -0.248037   -1.070587
     58          6           0      -13.124698    0.980114   -1.422042
     59          6           0      -14.536150    0.888464   -0.817111
     60          6           0      -15.488403    0.080804   -1.752651
     61          6           0      -15.096495    2.142088   -0.150258
     62          6           0      -14.526324    2.290774    1.329144
     63          6           0      -15.566984    2.093876    2.420669
     64          6           0      -15.536138    3.233258    3.513261
     65          6           0      -14.800566    2.682090    4.799690
     66          6           0      -16.884848    3.749959    3.990632
     67          1           0        3.069993    3.446967   -1.441935
     68          1           0        9.069139    4.107271    0.783118
     69          1           0        9.512116   -2.252080    1.390625
     70          1           0        1.792406   -1.340574   -1.492331
     71          1           0        1.452211    1.509393   -0.493246
     72          1           0        2.574282    1.099081   -3.275996
     73          1           0        1.392748    2.215921   -2.820870
     74          1           0        0.890374    0.450258   -2.965268
     75          1           0        1.280716   -0.363506    1.313392
     76          1           0        0.955370   -2.000950    0.608261
     77          1           0       -0.825001   -0.290294   -0.832198
     78          1           0       -0.690586    0.352760    0.657131
     79          1           0        3.702659    5.294336   -2.544446
     80          1           0        5.231269    5.883048   -3.208215
     81          1           0        4.456492    6.577829   -1.716581
     82          1           0        7.918815    8.202043   -1.638490
     83          1           0        6.404586    7.413946   -1.034952
     84          1           0        7.128466    7.219389   -2.749832
     85          1           0       10.184579    2.333471    2.445705
     86          1           0       11.223065   -0.177188    1.058643
     87          1           0       11.523610    2.640848   -0.161329
     88          1           0       12.601388    1.683305    0.904918
     89          1           0       11.976598    3.304676    1.273218
     90          1           0        9.602476   -0.654849    3.369220
     91          1           0       10.824529    0.570784    3.795472
     92          1           0       11.146330   -2.315608    3.565202
     93          1           0       12.295175   -1.082731    4.151537
     94          1           0       12.185959   -1.502575    2.456092
     95          1           0        8.701381   -4.895604    0.170135
     96          1           0        7.543775   -5.617072    1.407098
     97          1           0        8.622650   -4.430889    1.877891
     98          1           0        2.628628   -3.270094    1.013964
     99          1           0        1.040647   -4.785916   -2.743923
    100          1           0       -0.240927   -4.685473   -1.645024
    101          1           0        0.656117   -6.173222   -1.604977
    102          1           0       -4.019340   -1.950841    1.163103
    103          1           0       -3.212721   -3.489443    0.507941
    104          1           0       -4.662472   -1.433763   -1.195282
    105          1           0       -4.806552   -5.089052   -0.392973
    106          1           0       -6.308392   -5.202800   -1.177413
    107          1           0       -6.312556   -4.637220    0.525434
    108          1           0       -7.350253   -3.481431   -2.138020
    109          1           0       -6.471898   -1.938175   -2.447185
    110          1           0       -7.476406   -1.833275    0.225327
    111          1           0       -8.681660   -2.758376   -0.723435
    112          1           0       -7.652456   -0.277477   -1.994916
    113          1           0       -8.243974    0.166024   -0.504012
    114          1           0      -10.188646   -1.691853   -1.533686
    115          1           0       -9.504596   -1.298628   -3.778445
    116          1           0       -9.458202    0.424779   -3.537714
    117          1           0      -10.972799   -0.258874   -3.479394
    118          1           0      -10.655306    1.253570   -1.133637
    119          1           0      -10.549388   -0.046147    0.106669
    120          1           0      -12.466109   -0.856583   -0.185994
    121          1           0      -12.546862   -0.955080   -1.854534
    122          1           0      -13.327402    0.993801   -2.492141
    123          1           0      -12.671213    1.955597   -1.246309
    124          1           0      -14.335741    0.192582   -0.001588
    125          1           0      -16.217010    0.826217   -2.073170
    126          1           0      -15.945708   -0.764136   -1.238209
    127          1           0      -14.985378   -0.272051   -2.652776
    128          1           0      -16.177708    2.269221   -0.095034
    129          1           0      -14.790332    3.056717   -0.656327
    130          1           0      -14.011857    3.247911    1.415018
    131          1           0      -13.740572    1.550413    1.481979
    132          1           0      -15.276704    1.124497    2.826593
    133          1           0      -16.603299    1.965557    2.106316
    134          1           0      -15.089314    4.094687    3.016461
    135          1           0      -14.158493    3.518332    5.075215
    136          1           0      -14.190430    1.842246    4.468225
    137          1           0      -15.492516    2.490967    5.619582
    138          1           0      -17.130655    4.553673    3.297605
    139          1           0      -17.007071    3.891926    5.064689
    140          1           0      -17.618298    2.973162    3.776895
 ---------------------------------------------------------------------

 SCF Done:  E(RwB97XD) =  -3007.82152099     A.U. after   19 cycles

 Excitation energies and oscillator strengths:

 Excited State   1:      Singlet-A      1.6318 eV  759.79 nm  f=0.3962  <S**2>=0.000
     245 -> 248        0.17195
     246 -> 247        0.68478
     245 <- 248        0.11226
 This state for optimization and/or second-order correction.
 Total Energy, E(TD-HF/TD-DFT) =  -3007.76155237
 Copying the excited state density for this state as the 1-particle RhoCI density.

 Excited State   2:      Singlet-A      2.1158 eV  585.99 nm  f=0.1285  <S**2>=0.000
     245 -> 247        0.64801
     246 -> 248       -0.26601

 Excited State   3:      Singlet-A      3.3235 eV  373.05 nm  f=0.0017  <S**2>=0.000
     240 -> 247       -0.14483
     244 -> 247        0.66546

 Excited State   4:      Singlet-A      3.3792 eV  366.90 nm  f=0.0002  <S**2>=0.000
     240 -> 247        0.21730
     240 -> 249       -0.12716
     241 -> 247        0.52529
     241 -> 249       -0.31238
     241 -> 250        0.15864

 Excited State   5:      Singlet-A      3.4979 eV  354.46 nm  f=0.4306  <S**2>=0.000
     240 -> 247        0.27303
     245 -> 247        0.21443
     246 -> 248        0.57547
     245 <- 247       -0.10233

 The electronic state is 1-A.
 Alpha  occ. eigenvalues --  -46.95346 -19.31490 -19.31198 -19.25028 -19.24144
 Alpha  occ. eigenvalues --  -19.23601 -19.23428 -14.46849 -14.46603 -14.44599
 Alpha  occ. eigenvalues --  -14.43652 -10.43628 -10.42683 -10.39149 -10.38904
 Alpha  occ. eigenvalues --  -10.36028 -10.35888 -10.35706 -10.35178 -10.35116
 Alpha  occ. eigenvalues --  -10.34836 -10.34713 -10.33897 -10.33673 -10.33611
 Alpha  occ. eigenvalues --  -10.33099 -10.32861 -10.32332 -10.32264 -10.32200
 Alpha  occ. eigenvalues --  -10.31967 -10.31879 -10.31762 -10.31542 -10.31460
 Alpha  occ. eigenvalues --  -10.31193 -10.31142 -10.30927 -10.30648 -10.30614
 Alpha  occ. eigenvalues --  -10.30562 -10.30421 -10.30128 -10.30060 -10.29979
 Alpha  occ. eigenvalues --  -10.29859 -10.29748 -10.29563 -10.29422 -10.29359
 Alpha  occ. eigenvalues --  -10.29297 -10.29196 -10.29041 -10.29034 -10.28980
 Alpha  occ. eigenvalues --  -10.28924 -10.28815 -10.28782 -10.28776 -10.28644
 Alpha  occ. eigenvalues --  -10.28567 -10.28295 -10.28242 -10.28242 -10.27930
 Alpha  occ. eigenvalues --  -10.27861  -3.21209  -1.94813  -1.94301  -1.94201
 Alpha  occ. eigenvalues --   -1.19514  -1.18799  -1.12418  -1.10205  -1.09563
 Alpha  occ. eigenvalues --   -1.08915  -1.07454  -1.05229  -1.04599  -1.03789
 Alpha  occ. eigenvalues --   -0.94980  -0.93707  -0.92271  -0.91645  -0.91068
 Alpha  occ. eigenvalues --   -0.90831  -0.90483  -0.89723  -0.89412  -0.88890
 Alpha  occ. eigenvalues --   -0.88070  -0.86918  -0.86612  -0.85842  -0.85534
 Alpha  occ. eigenvalues --   -0.84857  -0.84014  -0.83154  -0.82989  -0.82001
 Alpha  occ. eigenvalues --   -0.81519  -0.80846  -0.79686  -0.79299  -0.78299
 Alpha  occ. eigenvalues --   -0.78130  -0.77159  -0.76979  -0.76809  -0.76378
 Alpha  occ. eigenvalues --   -0.75704  -0.75229  -0.73986  -0.72899  -0.71896
 Alpha  occ. eigenvalues --   -0.70882  -0.70288  -0.69207  -0.68377  -0.67843
 Alpha  occ. eigenvalues --   -0.67630  -0.67391  -0.67158  -0.66644  -0.66021
 Alpha  occ. eigenvalues --   -0.65726  -0.65256  -0.64826  -0.64773  -0.62349
 Alpha  occ. eigenvalues --   -0.61902  -0.61681  -0.61124  -0.60897  -0.59983
 Alpha  occ. eigenvalues --   -0.59933  -0.59137  -0.58503  -0.58066  -0.57720
 Alpha  occ. eigenvalues --   -0.57242  -0.56938  -0.56489  -0.56233  -0.56087
 Alpha  occ. eigenvalues --   -0.55661  -0.55421  -0.55307  -0.54832  -0.54631
 Alpha  occ. eigenvalues --   -0.54307  -0.54100  -0.54034  -0.53968  -0.53830
 Alpha  occ. eigenvalues --   -0.53404  -0.53295  -0.53057  -0.52893  -0.52503
 Alpha  occ. eigenvalues --   -0.52336  -0.52209  -0.51924  -0.51830  -0.51629
 Alpha  occ. eigenvalues --   -0.51349  -0.51288  -0.51075  -0.50800  -0.50484
 Alpha  occ. eigenvalues --   -0.50430  -0.50088  -0.50010  -0.49854  -0.49691
 Alpha  occ. eigenvalues --   -0.49563  -0.49349  -0.48949  -0.48900  -0.48811
 Alpha  occ. eigenvalues --   -0.48621  -0.48316  -0.48223  -0.47793  -0.47633
 Alpha  occ. eigenvalues --   -0.47592  -0.47544  -0.47369  -0.47212  -0.47109
 Alpha  occ. eigenvalues --   -0.47016  -0.46495  -0.46242  -0.46058  -0.45941
 Alpha  occ. eigenvalues --   -0.45706  -0.45602  -0.45350  -0.45208  -0.45048
 Alpha  occ. eigenvalues --   -0.44835  -0.44699  -0.44618  -0.44522  -0.44082
 Alpha  occ. eigenvalues --   -0.43868  -0.43736  -0.43503  -0.43458  -0.43142
 Alpha  occ. eigenvalues --   -0.42839  -0.42757  -0.42513  -0.42183  -0.41930
 Alpha  occ. eigenvalues --   -0.41864  -0.41178  -0.41033  -0.41001  -0.40568
 Alpha  occ. eigenvalues --   -0.40477  -0.39834  -0.39490  -0.39381  -0.39355
 Alpha  occ. eigenvalues --   -0.39158  -0.39021  -0.38461  -0.38313  -0.38049
 Alpha  occ. eigenvalues --   -0.37879  -0.37708  -0.36306  -0.36156  -0.35885
 Alpha  occ. eigenvalues --   -0.35725  -0.35536  -0.35165  -0.33861  -0.33272
 Alpha  occ. eigenvalues --   -0.33162  -0.32131  -0.32117  -0.31225  -0.26026
 Alpha  occ. eigenvalues --   -0.23048
 Alpha virt. eigenvalues --   -0.07414   0.00357   0.01885   0.04305   0.05533
 Alpha virt. eigenvalues --    0.06062   0.07617   0.07957   0.08208   0.09715
 Alpha virt. eigenvalues --    0.10546   0.11633   0.11770   0.12048   0.12361

 Mulliken charges:
               1
     1  Mg   0.939995
     2  C    0.020710
     3  C   -0.084112
     4  C   -0.047419
     5  C   -0.096552
     6  N   -0.401213
     7  C    0.019407
     8  C   -0.082155
     9  C   -0.068496
    10  C    0.059081
    11  C    0.041398
    12  C    0.013639
    13  C    0.023506
    14  C    0.196866
    15  O   -0.303604
    16  O   -0.360953
    17  N   -0.454691
    18  C    0.173674
    19  C   -0.171927
    20  C   -0.067098
    21  C    0.142792
    22  C    0.043251
    23  C    0.050808
    24  O   -0.259002
    25  C   -0.022832
    26  N   -0.342998
    27  C    0.037115
    28  C   -0.081671
    29  C   -0.073507
    30  C    0.056931
    31  C    0.007586
    32  C   -0.002891
    33  C   -0.051316
    34  N   -0.400990
    35  C    0.141959
    36  C   -0.185108
    37  C    0.057594
    38  C    0.091206
    39  C    0.082678
    40  C    0.073520
    41  O   -0.203340
    42  C   -0.101695
    43  C    0.242625
    44  O   -0.281739
    45  O   -0.325530
    46  C    0.129940
    47  C    0.282004
    48  C   -0.168254
    49  C   -0.204618
    50  C    0.031973
    51  C    0.061278
    52  C   -0.058174
    53  C    0.009928
    54  C   -0.165080
    55  C    0.029360
    56  C    0.020087
    57  C   -0.048151
    58  C    0.010360
    59  C   -0.193695
    60  C    0.002906
    61  C    0.037453
    62  C   -0.058480
    63  C    0.007727
    64  C   -0.242013
    65  C   -0.001102
    66  C    0.007422
    67  H   -0.004815
    68  H    0.030418
    69  H   -0.010590
    70  H    0.046858
    71  H    0.030419
    72  H    0.049159
    73  H    0.032168
    74  H    0.052142
    75  H    0.042239
    76  H    0.063535
    77  H    0.034600
    78  H    0.054756
    79  H    0.029654
    80  H    0.051902
    81  H    0.047850
    82  H    0.044722
    83  H    0.058431
    84  H    0.059219
    85  H    0.045337
    86  H    0.038727
    87  H    0.044456
    88  H    0.047185
    89  H    0.033144
    90  H    0.039455
    91  H    0.036631
    92  H    0.038955
    93  H    0.040908
    94  H    0.022938
    95  H    0.065725
    96  H    0.061468
    97  H    0.032566
    98  H    0.076634
    99  H    0.073901
   100  H    0.044027
   101  H    0.066328
   102  H    0.066947
   103  H    0.043458
   104  H    0.009933
   105  H    0.039221
   106  H    0.033289
   107  H    0.052071
   108  H    0.013275
   109  H    0.035453
   110  H    0.031612
   111  H    0.028415
   112  H    0.000900
   113  H    0.013616
   114  H    0.010303
   115  H    0.030985
   116  H    0.009793
   117  H    0.012271
   118  H    0.024036
   119  H    0.018514
   120  H    0.025193
   121  H    0.021716
   122  H    0.012648
   123  H    0.014327
   124  H    0.014155
   125  H    0.026414
   126  H    0.037962
   127  H    0.022116
   128  H    0.013880
   129  H    0.009938
   130  H    0.017531
   131  H    0.019030
   132  H    0.016184
   133  H    0.015351
   134  H    0.026658
   135  H    0.031000
   136  H    0.028804
   137  H    0.039540
   138  H    0.028928
   139  H    0.037083
   140  H    0.010030
 Sum of Mulliken charges =  -0.00000

 Dipole moment (field-independent basis, Debye):
    X=             -4.0619    Y=              1.6352    Z=             -0.0209  Tot=              4.3787
 Quadrupole moment (field-independent basis, Debye-Ang):
   XX=           -381.0372   YY=           -415.7473   ZZ=           -407.7114
   XY=             -3.9270   XZ=             28.4641   YZ=              2.8282

 Normal termination of Gaussian 16 at Wed May  4 11:57:19 2022.
