 Gaussian 16, Revision A.03,
 Gaussian 16:  ES64L-G16RevA.03 25-Dec-2016

 --------------------
 #p ZINDO=(nstates=5)
 --------------------

 -----------------------------
 step_1651_chromophore_7 ZINDO
 -----------------------------
 Symbolic Z-matrix:
 Charge =  0 Multiplicity = 1

                         Standard orientation:
 ---------------------------------------------------------------------
 Center     Atomic      Atomic             Coordinates (Angstroms)
 Number     Number       Type             X           Y           Z
 ---------------------------------------------------------------------
      1         12           0        6.261843    0.703545    0.123181
      2          6           0        4.049211   -2.013890    0.017448
      3          6           0        3.887355    2.774590   -1.173168
      4          6           0        8.480838    3.271039    0.398733
      5          6           0        8.765282   -1.550914    1.013230
      6          7           0        4.216155    0.330210   -0.562061
      7          6           0        3.459728   -0.831067   -0.393661
      8          6           0        1.994132   -0.561717   -0.756904
      9          6           0        2.056428    0.964384   -1.219642
     10          6           0        3.453582    1.437387   -0.920562
     11          6           0        1.660917    1.167497   -2.684996
     12          6           0        1.002466   -0.927469    0.422576
     13          6           0       -0.450317   -0.581480    0.148868
     14          6           0       -1.464434   -1.495470    0.701770
     15          8           0       -1.407330   -1.853426    1.910261
     16          8           0       -2.428732   -1.799271   -0.244220
     17          7           0        6.239643    2.702710   -0.577446
     18          6           0        5.194368    3.341174   -1.105394
     19          6           0        5.671596    4.638353   -1.488514
     20          6           0        7.020061    4.808680   -1.007120
     21          6           0        7.300353    3.588923   -0.287534
     22          6           0        4.689635    5.677660   -2.285691
     23          6           0        7.933186    5.997444   -1.083289
     24          8           0        9.131719    5.954076   -0.735370
     25          6           0        7.281280    7.318875   -1.675255
     26          7           0        8.404117    0.789331    0.480164
     27          6           0        9.056819    2.039528    0.690942
     28          6           0       10.385431    1.795489    1.518736
     29          6           0       10.454391    0.263395    1.693792
     30          6           0        9.104992   -0.187243    0.999290
     31          6           0       11.722544    2.326676    0.864230
     32          6           0       10.587485   -0.256009    3.125922
     33          6           0       11.595874   -1.344438    3.358042
     34          7           0        6.427109   -1.344654    0.470230
     35          6           0        7.505049   -2.133365    0.720712
     36          6           0        7.122927   -3.532845    0.774098
     37          6           0        5.736095   -3.576920    0.626674
     38          6           0        5.404100   -2.198008    0.364154
     39          6           0        8.029902   -4.724963    1.011590
     40          6           0        4.602155   -4.347094    0.658149
     41          8           0        4.362030   -5.476394    1.057989
     42          6           0        3.406822   -3.400629    0.261849
     43          6           0        2.744863   -4.034913   -0.904505
     44          8           0        3.206323   -3.909110   -2.048146
     45          8           0        1.609986   -4.658582   -0.616692
     46          6           0        0.764045   -5.096577   -1.736225
     47          6           0       -3.567872   -2.476108    0.321502
     48          6           0       -4.620460   -2.407429   -0.706232
     49          6           0       -5.692446   -3.145888   -0.876293
     50          6           0       -5.784513   -4.609816   -0.428190
     51          6           0       -6.793823   -2.655838   -1.692455
     52          6           0       -7.863317   -2.039869   -0.772307
     53          6           0       -8.381399   -0.610550   -1.257163
     54          6           0       -9.849365   -0.677416   -1.743460
     55          6           0       -9.945410   -0.488705   -3.197124
     56          6           0      -10.785377    0.190909   -0.931009
     57          6           0      -12.275404   -0.248037   -1.070587
     58          6           0      -13.124698    0.980114   -1.422042
     59          6           0      -14.536150    0.888464   -0.817111
     60          6           0      -15.488403    0.080804   -1.752651
     61          6           0      -15.096495    2.142088   -0.150258
     62          6           0      -14.526324    2.290774    1.329144
     63          6           0      -15.566984    2.093876    2.420669
     64          6           0      -15.536138    3.233258    3.513261
     65          6           0      -14.800566    2.682090    4.799690
     66          6           0      -16.884848    3.749959    3.990632
     67          1           0        3.069993    3.446967   -1.441935
     68          1           0        9.069139    4.107271    0.783118
     69          1           0        9.512116   -2.252080    1.390625
     70          1           0        1.792406   -1.340574   -1.492331
     71          1           0        1.452211    1.509393   -0.493246
     72          1           0        2.574282    1.099081   -3.275996
     73          1           0        1.392748    2.215921   -2.820870
     74          1           0        0.890374    0.450258   -2.965268
     75          1           0        1.280716   -0.363506    1.313392
     76          1           0        0.955370   -2.000950    0.608261
     77          1           0       -0.825001   -0.290294   -0.832198
     78          1           0       -0.690586    0.352760    0.657131
     79          1           0        3.702659    5.294336   -2.544446
     80          1           0        5.231269    5.883048   -3.208215
     81          1           0        4.456492    6.577829   -1.716581
     82          1           0        7.918815    8.202043   -1.638490
     83          1           0        6.404586    7.413946   -1.034952
     84          1           0        7.128466    7.219389   -2.749832
     85          1           0       10.184579    2.333471    2.445705
     86          1           0       11.223065   -0.177188    1.058643
     87          1           0       11.523610    2.640848   -0.161329
     88          1           0       12.601388    1.683305    0.904918
     89          1           0       11.976598    3.304676    1.273218
     90          1           0        9.602476   -0.654849    3.369220
     91          1           0       10.824529    0.570784    3.795472
     92          1           0       11.146330   -2.315608    3.565202
     93          1           0       12.295175   -1.082731    4.151537
     94          1           0       12.185959   -1.502575    2.456092
     95          1           0        8.701381   -4.895604    0.170135
     96          1           0        7.543775   -5.617072    1.407098
     97          1           0        8.622650   -4.430889    1.877891
     98          1           0        2.628628   -3.270094    1.013964
     99          1           0        1.040647   -4.785916   -2.743923
    100          1           0       -0.240927   -4.685473   -1.645024
    101          1           0        0.656117   -6.173222   -1.604977
    102          1           0       -4.019340   -1.950841    1.163103
    103          1           0       -3.212721   -3.489443    0.507941
    104          1           0       -4.662472   -1.433763   -1.195282
    105          1           0       -4.806552   -5.089052   -0.392973
    106          1           0       -6.308392   -5.202800   -1.177413
    107          1           0       -6.312556   -4.637220    0.525434
    108          1           0       -7.350253   -3.481431   -2.138020
    109          1           0       -6.471898   -1.938175   -2.447185
    110          1           0       -7.476406   -1.833275    0.225327
    111          1           0       -8.681660   -2.758376   -0.723435
    112          1           0       -7.652456   -0.277477   -1.994916
    113          1           0       -8.243974    0.166024   -0.504012
    114          1           0      -10.188646   -1.691853   -1.533686
    115          1           0       -9.504596   -1.298628   -3.778445
    116          1           0       -9.458202    0.424779   -3.537714
    117          1           0      -10.972799   -0.258874   -3.479394
    118          1           0      -10.655306    1.253570   -1.133637
    119          1           0      -10.549388   -0.046147    0.106669
    120          1           0      -12.466109   -0.856583   -0.185994
    121          1           0      -12.546862   -0.955080   -1.854534
    122          1           0      -13.327402    0.993801   -2.492141
    123          1           0      -12.671213    1.955597   -1.246309
    124          1           0      -14.335741    0.192582   -0.001588
    125          1           0      -16.217010    0.826217   -2.073170
    126          1           0      -15.945708   -0.764136   -1.238209
    127          1           0      -14.985378   -0.272051   -2.652776
    128          1           0      -16.177708    2.269221   -0.095034
    129          1           0      -14.790332    3.056717   -0.656327
    130          1           0      -14.011857    3.247911    1.415018
    131          1           0      -13.740572    1.550413    1.481979
    132          1           0      -15.276704    1.124497    2.826593
    133          1           0      -16.603299    1.965557    2.106316
    134          1           0      -15.089314    4.094687    3.016461
    135          1           0      -14.158493    3.518332    5.075215
    136          1           0      -14.190430    1.842246    4.468225
    137          1           0      -15.492516    2.490967    5.619582
    138          1           0      -17.130655    4.553673    3.297605
    139          1           0      -17.007071    3.891926    5.064689
    140          1           0      -17.618298    2.973162    3.776895
 ---------------------------------------------------------------------

 SCF Done:  E(RZINDO/S) =  -474.360866815     A.U. after   19 cycles

 Excitation energies and oscillator strengths:

 Excited State   1:      Singlet-A      1.2518 eV  990.41 nm  f=0.5771  <S**2>=0.000
     175 ->178        -0.16004
     176 ->177         0.66784
 This state for optimization and/or second-order correction.
 Total Energy, E(CIS/TDA) =  -474.314862185
 Copying the excited state density for this state as the 1-particle RhoCI density.

 Excited State   2:      Singlet-A      1.9102 eV  649.06 nm  f=0.0583  <S**2>=0.000
     175 ->177         0.55720
     176 ->178         0.37736
     176 ->179        -0.13686

 Excited State   3:      Singlet-A      2.8507 eV  434.93 nm  f=0.0019  <S**2>=0.000
     168 ->177         0.40311
     168 ->178        -0.24546
     168 ->179        -0.38388
     168 ->181         0.17038
     168 ->185        -0.16339
     168 ->195         0.12896

 Excited State   4:      Singlet-A      2.9383 eV  421.96 nm  f=0.9454  <S**2>=0.000
     175 ->177        -0.36381
     176 ->178         0.55613

 Excited State   5:      Singlet-A      2.9579 eV  419.16 nm  f=0.0839  <S**2>=0.000
     176 ->179         0.60533
     176 ->181         0.25289

 The electronic state is 1-A.
 Alpha  occ. eigenvalues --   -1.86103  -1.78905  -1.78733  -1.74134  -1.73791
 Alpha  occ. eigenvalues --   -1.70152  -1.66850  -1.62053  -1.60714  -1.57467
 Alpha  occ. eigenvalues --   -1.54426  -1.53753  -1.51295  -1.49219  -1.48613
 Alpha  occ. eigenvalues --   -1.43311  -1.41837  -1.39681  -1.38879  -1.36782
 Alpha  occ. eigenvalues --   -1.35343  -1.34068  -1.33421  -1.30912  -1.28005
 Alpha  occ. eigenvalues --   -1.27013  -1.24410  -1.22884  -1.20196  -1.18878
 Alpha  occ. eigenvalues --   -1.17814  -1.16189  -1.15852  -1.15010  -1.13313
 Alpha  occ. eigenvalues --   -1.12739  -1.11290  -1.09754  -1.05826  -1.04550
 Alpha  occ. eigenvalues --   -1.03004  -1.01609  -0.99010  -0.97872  -0.96837
 Alpha  occ. eigenvalues --   -0.95532  -0.93954  -0.93489  -0.92638  -0.92367
 Alpha  occ. eigenvalues --   -0.91596  -0.90879  -0.89918  -0.88617  -0.88403
 Alpha  occ. eigenvalues --   -0.86425  -0.84456  -0.83574  -0.82117  -0.80882
 Alpha  occ. eigenvalues --   -0.79955  -0.79356  -0.77733  -0.76956  -0.76744
 Alpha  occ. eigenvalues --   -0.75518  -0.75243  -0.74704  -0.73645  -0.73242
 Alpha  occ. eigenvalues --   -0.72975  -0.71965  -0.71355  -0.71230  -0.71149
 Alpha  occ. eigenvalues --   -0.70036  -0.69545  -0.68441  -0.68085  -0.67852
 Alpha  occ. eigenvalues --   -0.67746  -0.67300  -0.66523  -0.66424  -0.66073
 Alpha  occ. eigenvalues --   -0.65935  -0.65302  -0.65134  -0.64326  -0.64101
 Alpha  occ. eigenvalues --   -0.63441  -0.62812  -0.62573  -0.62111  -0.61980
 Alpha  occ. eigenvalues --   -0.61385  -0.60885  -0.59859  -0.59608  -0.59444
 Alpha  occ. eigenvalues --   -0.59374  -0.59331  -0.58748  -0.58648  -0.58281
 Alpha  occ. eigenvalues --   -0.57793  -0.57679  -0.57589  -0.56885  -0.56784
 Alpha  occ. eigenvalues --   -0.56402  -0.55971  -0.55643  -0.55550  -0.55095
 Alpha  occ. eigenvalues --   -0.54875  -0.54135  -0.53955  -0.53346  -0.53281
 Alpha  occ. eigenvalues --   -0.52763  -0.52618  -0.52394  -0.51983  -0.51549
 Alpha  occ. eigenvalues --   -0.51192  -0.51052  -0.50822  -0.50544  -0.50073
 Alpha  occ. eigenvalues --   -0.50005  -0.49730  -0.49494  -0.49256  -0.49128
 Alpha  occ. eigenvalues --   -0.48896  -0.48574  -0.48309  -0.47925  -0.47645
 Alpha  occ. eigenvalues --   -0.47308  -0.47078  -0.46981  -0.46316  -0.46183
 Alpha  occ. eigenvalues --   -0.46069  -0.45827  -0.45528  -0.45121  -0.44966
 Alpha  occ. eigenvalues --   -0.44608  -0.44489  -0.44233  -0.44107  -0.43428
 Alpha  occ. eigenvalues --   -0.43054  -0.42802  -0.42307  -0.41965  -0.41895
 Alpha  occ. eigenvalues --   -0.41516  -0.41219  -0.41200  -0.38889  -0.38614
 Alpha  occ. eigenvalues --   -0.38113  -0.36895  -0.35857  -0.35175  -0.34527
 Alpha  occ. eigenvalues --   -0.34084  -0.32456  -0.31980  -0.31258  -0.26756
 Alpha  occ. eigenvalues --   -0.21790
 Alpha virt. eigenvalues --   -0.08671  -0.01974  -0.01002   0.01074   0.01318
 Alpha virt. eigenvalues --    0.02343   0.02467   0.02913   0.05015   0.05130
 Alpha virt. eigenvalues --    0.06356   0.06540   0.07249   0.07850   0.08083

 Mulliken charges:
               1
     1  Mg   0.427492
     2  C   -0.066927
     3  C   -0.086807
     4  C   -0.019590
     5  C   -0.071876
     6  N   -0.313544
     7  C    0.159472
     8  C   -0.005213
     9  C    0.014135
    10  C    0.109527
    11  C   -0.046470
    12  C   -0.014215
    13  C    0.000161
    14  C    0.468885
    15  O   -0.542922
    16  O   -0.262138
    17  N   -0.320898
    18  C    0.108828
    19  C   -0.044795
    20  C   -0.040857
    21  C    0.101158
    22  C   -0.059474
    23  C    0.321017
    24  O   -0.533807
    25  C   -0.038696
    26  N   -0.252540
    27  C    0.064427
    28  C    0.006546
    29  C    0.001998
    30  C    0.167663
    31  C   -0.059223
    32  C   -0.022525
    33  C   -0.054441
    34  N   -0.321436
    35  C    0.122670
    36  C    0.071736
    37  C   -0.039249
    38  C    0.152800
    39  C   -0.040012
    40  C    0.352347
    41  O   -0.520229
    42  C    0.046497
    43  C    0.494272
    44  O   -0.556507
    45  O   -0.245633
    46  C    0.075597
    47  C    0.110847
    48  C   -0.099358
    49  C    0.004546
    50  C   -0.046237
    51  C   -0.015430
    52  C   -0.036057
    53  C   -0.045597
    54  C    0.001345
    55  C   -0.048963
    56  C   -0.032276
    57  C   -0.038626
    58  C   -0.028890
    59  C   -0.016148
    60  C   -0.061008
    61  C   -0.032652
    62  C   -0.039721
    63  C   -0.035500
    64  C   -0.023640
    65  C   -0.062562
    66  C   -0.063532
    67  H    0.022991
    68  H    0.046802
    69  H    0.026749
    70  H    0.042818
    71  H    0.026051
    72  H    0.030191
    73  H    0.020138
    74  H    0.026842
    75  H    0.033744
    76  H    0.037569
    77  H    0.032922
    78  H    0.038322
    79  H    0.020409
    80  H    0.026221
    81  H    0.025485
    82  H    0.031343
    83  H    0.040822
    84  H    0.042564
    85  H    0.034563
    86  H    0.035444
    87  H    0.025828
    88  H    0.028252
    89  H    0.017659
    90  H    0.020934
    91  H    0.022969
    92  H    0.019082
    93  H    0.021041
    94  H    0.014531
    95  H    0.043810
    96  H    0.042393
    97  H    0.020602
    98  H    0.055007
    99  H    0.057232
   100  H    0.026904
   101  H    0.042072
   102  H    0.061049
   103  H    0.050825
   104  H    0.015251
   105  H    0.023882
   106  H    0.020583
   107  H    0.033677
   108  H    0.015460
   109  H    0.029937
   110  H    0.019693
   111  H    0.023811
   112  H    0.016050
   113  H    0.015847
   114  H    0.014423
   115  H    0.019044
   116  H    0.009738
   117  H    0.012800
   118  H    0.028031
   119  H    0.011804
   120  H    0.024423
   121  H    0.018547
   122  H    0.013083
   123  H    0.020834
   124  H    0.009298
   125  H    0.016611
   126  H    0.023301
   127  H    0.019892
   128  H    0.023104
   129  H    0.011287
   130  H    0.016591
   131  H    0.016167
   132  H    0.014639
   133  H    0.021026
   134  H    0.025640
   135  H    0.013103
   136  H    0.023720
   137  H    0.032094
   138  H    0.018341
   139  H    0.031211
   140  H    0.007132
 Sum of Mulliken charges =  -0.00000

 Dipole moment (field-independent basis, Debye):
    X=             -5.1462    Y=              0.7045    Z=              1.0563  Tot=              5.3005
 N-N= 4.151072699559D+03 E-N= 0.000000000000D+00  KE=-8.976388181329D+03
 Leave Link  601 at Wed May  4 12:09:19 2022, MaxMem=  6710886400 cpu:               0.8 elap:               0.1
 (Enter /sw/apps/gaussian-16.0/g16/l9999.exe)
 1\1\GINC-BP1-COMPUTE035\SP\RZINDO CIS\STO-3G\C55H74Mg1N4O6\OF15641\04-
 May-2022\0\\#p ZINDO=(nstates=5)\\step_1651_chromophore_7 ZINDO\\0,1\M
 g,0,26.735,0.078,29.805\C,0,28.664,-0.474,32.68\C,0,23.922,0.474,31.68
 6\C,0,25.016,0.715,26.936\C,0,29.542,-0.782,27.928\N,0,26.387,-0.078,3
 1.961\C,0,27.343,-0.183,32.973\C,0,26.686,0.033,34.342\C,0,25.156,0.23
 ,33.933\C,0,25.126,0.278,32.429\C,0,24.233,-0.846,34.512\C,0,27.377,1.
 195,35.167\C,0,26.697,1.516,36.486\C,0,27.571,1.919,37.601\O,0,28.451,

 Normal termination of Gaussian 16 at Wed May  4 12:09:19 2022.
