 Gaussian 16, Revision A.03,
 Gaussian 16:  ES64L-G16RevA.03 25-Dec-2016

 ------------------------------
 #p blyp/Def2SVP td=(nstates=5)
 ------------------------------

 -------------------------------------------------
 step_601_chromophore_8 TDDFT with blyp functional
 -------------------------------------------------
 Symbolic Z-matrix:
 Charge =  0 Multiplicity = 1

                         Standard orientation:
 ---------------------------------------------------------------------
 Center     Atomic      Atomic             Coordinates (Angstroms)
 Number     Number       Type             X           Y           Z
 ---------------------------------------------------------------------
      1         12           0       -4.668809   -1.073330    0.167172
      2          6           0       -3.687419    2.285056    0.725209
      3          6           0       -4.517599   -0.385655   -3.199703
      4          6           0       -4.776825   -4.321214   -0.316497
      5          6           0       -3.953794   -1.592055    3.575102
      6          7           0       -4.150067    0.690691   -1.061448
      7          6           0       -3.838048    1.955776   -0.615524
      8          6           0       -3.602585    2.986351   -1.737289
      9          6           0       -4.364334    2.149820   -2.923256
     10          6           0       -4.332832    0.757759   -2.392564
     11          6           0       -5.673453    2.805453   -3.335367
     12          6           0       -2.100082    3.232226   -2.106019
     13          6           0       -1.592957    4.626214   -2.086015
     14          6           0       -0.388108    4.827631   -1.185085
     15          8           0       -0.445940    4.951393    0.023842
     16          8           0        0.774729    4.925990   -1.926641
     17          7           0       -4.652810   -2.223657   -1.485467
     18          6           0       -4.655190   -1.748302   -2.798993
     19          6           0       -4.798600   -2.876613   -3.705038
     20          6           0       -4.990174   -4.052251   -2.939903
     21          6           0       -4.869436   -3.560854   -1.538199
     22          6           0       -4.636846   -2.773631   -5.278093
     23          6           0       -5.270828   -5.451277   -3.459753
     24          8           0       -5.448017   -5.661521   -4.662726
     25          6           0       -5.339469   -6.672576   -2.600735
     26          7           0       -4.235054   -2.714176    1.437713
     27          6           0       -4.531005   -3.965052    0.995653
     28          6           0       -4.432283   -5.004264    2.150657
     29          6           0       -3.990440   -4.177141    3.318399
     30          6           0       -4.041709   -2.741255    2.767469
     31          6           0       -5.740950   -5.736830    2.551638
     32          6           0       -2.546863   -4.507280    3.768131
     33          6           0       -2.525017   -5.312478    4.965014
     34          7           0       -4.175824    0.099807    1.937597
     35          6           0       -3.879842   -0.251047    3.207779
     36          6           0       -3.572456    0.967351    4.067814
     37          6           0       -3.524771    1.999942    3.111544
     38          6           0       -3.900265    1.419957    1.804829
     39          6           0       -3.237313    1.054096    5.545444
     40          6           0       -3.280757    3.389629    2.943497
     41          8           0       -2.994703    4.314590    3.684862
     42          6           0       -3.438409    3.649364    1.378821
     43          6           0       -4.473783    4.669376    1.201193
     44          8           0       -5.652813    4.635478    1.603972
     45          8           0       -4.019729    5.682777    0.375789
     46          6           0       -5.120923    6.725303    0.157677
     47          6           0        2.036408    5.115556   -1.227010
     48          6           0        2.738467    3.769433   -0.953497
     49          6           0        3.822738    3.628031   -0.127675
     50          6           0        4.509766    4.852741    0.597671
     51          6           0        4.449215    2.255861    0.083847
     52          6           0        5.134095    1.446838   -1.056498
     53          6           0        4.492465    0.109682   -1.325379
     54          6           0        5.514083   -0.948958   -1.700398
     55          6           0        5.002088   -2.023640   -2.684363
     56          6           0        6.230691   -1.539278   -0.426675
     57          6           0        7.766889   -1.975080   -0.694616
     58          6           0        8.763469   -1.112218    0.075339
     59          6           0        9.782162   -1.905497    0.930908
     60          6           0        9.115130   -2.362077    2.245621
     61          6           0       11.094190   -1.170709    1.045906
     62          6           0       12.215116   -1.664283    0.142534
     63          6           0       13.159540   -0.588466   -0.315752
     64          6           0       14.604532   -1.240811   -0.291330
     65          6           0       15.561412   -0.534636   -1.208140
     66          6           0       15.136100   -1.153618    1.146619
     67          1           0       -4.595936   -0.041314   -4.232874
     68          1           0       -4.886314   -5.405741   -0.242097
     69          1           0       -3.776566   -1.976867    4.581668
     70          1           0       -4.153591    3.899163   -1.511383
     71          1           0       -3.819893    2.241745   -3.862529
     72          1           0       -6.499527    2.133422   -3.098753
     73          1           0       -5.721143    2.975886   -4.410762
     74          1           0       -5.947782    3.701044   -2.778820
     75          1           0       -1.894627    2.890710   -3.120172
     76          1           0       -1.489868    2.713304   -1.368136
     77          1           0       -2.411460    5.309169   -1.857992
     78          1           0       -1.227645    4.785737   -3.100231
     79          1           0       -5.647322   -2.800665   -5.685407
     80          1           0       -4.104493   -3.634692   -5.684076
     81          1           0       -4.141707   -1.835215   -5.528237
     82          1           0       -5.935660   -6.370679   -1.739063
     83          1           0       -4.350941   -6.995139   -2.274839
     84          1           0       -5.712814   -7.506529   -3.195786
     85          1           0       -3.638489   -5.721740    1.944005
     86          1           0       -4.658729   -4.257902    4.175417
     87          1           0       -6.284794   -6.008175    1.646920
     88          1           0       -6.256267   -5.102513    3.272980
     89          1           0       -5.404752   -6.658766    3.027177
     90          1           0       -1.985093   -3.610657    4.032650
     91          1           0       -1.965527   -5.105928    3.066566
     92          1           0       -3.396956   -5.196150    5.607287
     93          1           0       -1.726716   -5.046040    5.657061
     94          1           0       -2.417409   -6.360102    4.682347
     95          1           0       -3.787569    1.938821    5.864558
     96          1           0       -2.190430    1.345214    5.633449
     97          1           0       -3.620752    0.185687    6.082002
     98          1           0       -2.547770    4.114094    0.954658
     99          1           0       -4.706210    7.406863   -0.585780
    100          1           0       -5.484717    7.245518    1.043875
    101          1           0       -6.012002    6.285580   -0.291821
    102          1           0        1.963623    5.771647   -0.359560
    103          1           0        2.732882    5.614185   -1.900977
    104          1           0        2.266478    2.911344   -1.433653
    105          1           0        4.320434    4.696745    1.659622
    106          1           0        4.063701    5.779249    0.235049
    107          1           0        5.566390    4.759743    0.344478
    108          1           0        3.720800    1.657995    0.633152
    109          1           0        5.304305    2.477990    0.722111
    110          1           0        6.182544    1.222192   -0.860320
    111          1           0        5.048124    1.964362   -2.011059
    112          1           0        3.885599    0.208739   -2.225153
    113          1           0        3.809350   -0.134712   -0.511468
    114          1           0        6.186909   -0.315561   -2.277076
    115          1           0        5.097129   -1.763768   -3.738587
    116          1           0        3.970194   -2.304332   -2.471848
    117          1           0        5.571532   -2.940020   -2.524483
    118          1           0        5.774552   -2.455132   -0.051566
    119          1           0        6.175679   -0.767360    0.339966
    120          1           0        8.033705   -1.821616   -1.739992
    121          1           0        7.866457   -3.007129   -0.361014
    122          1           0        8.178518   -0.389829    0.645339
    123          1           0        9.213039   -0.519863   -0.720771
    124          1           0       10.014083   -2.841091    0.421162
    125          1           0        8.124625   -1.952024    2.441165
    126          1           0        9.640716   -1.913549    3.088877
    127          1           0        9.292969   -3.426192    2.403235
    128          1           0       11.300669   -1.239433    2.114175
    129          1           0       10.869934   -0.118779    0.869641
    130          1           0       11.809772   -2.118754   -0.761414
    131          1           0       12.676939   -2.478049    0.701802
    132          1           0       12.996423    0.297901    0.296507
    133          1           0       13.005886   -0.346169   -1.367770
    134          1           0       14.504953   -2.261048   -0.662859
    135          1           0       15.687891    0.471180   -0.808729
    136          1           0       15.097083   -0.385439   -2.182881
    137          1           0       16.454992   -1.151850   -1.304271
    138          1           0       15.999942   -0.500304    1.269055
    139          1           0       15.509084   -2.154408    1.360854
    140          1           0       14.278190   -0.924740    1.778085
 ---------------------------------------------------------------------

 SCF Done:  E(RB-LYP) =  -3007.36553527     A.U. after   21 cycles

 Excitation energies and oscillator strengths:

 Excited State   1:      Singlet-A      1.8144 eV  683.32 nm  f=0.2841  <S**2>=0.000
     244 -> 247       -0.14020
     245 -> 248        0.18463
     246 -> 247        0.67508
     246 <- 247       -0.14766
 This state for optimization and/or second-order correction.
 Total Energy, E(TD-HF/TD-DFT) =  -3007.29885596
 Copying the excited state density for this state as the 1-particle RhoCI density.

 Excited State   2:      Singlet-A      1.8304 eV  677.36 nm  f=0.0207  <S**2>=0.000
     244 -> 247        0.67758
     245 -> 247       -0.12816
     246 -> 247        0.14622

 Excited State   3:      Singlet-A      1.9344 eV  640.93 nm  f=0.0205  <S**2>=0.000
     243 -> 247        0.58341
     244 -> 247       -0.10923
     245 -> 247       -0.36697

 Excited State   4:      Singlet-A      2.0700 eV  598.96 nm  f=0.0600  <S**2>=0.000
     243 -> 247        0.38901
     245 -> 247        0.51703
     246 -> 248       -0.24246

 Excited State   5:      Singlet-A      2.2584 eV  548.98 nm  f=0.0000  <S**2>=0.000
     242 -> 247        0.70698

 The electronic state is 1-A.
 Alpha  occ. eigenvalues --  -46.27871 -18.82399 -18.82290 -18.77104 -18.75874
 Alpha  occ. eigenvalues --  -18.75414 -18.74869 -14.03604 -14.02851 -14.01656
 Alpha  occ. eigenvalues --  -14.01329 -10.04207 -10.03127  -9.99521  -9.99124
 Alpha  occ. eigenvalues --   -9.98112  -9.97611  -9.96672  -9.96544  -9.96229
 Alpha  occ. eigenvalues --   -9.96208  -9.96204  -9.96116  -9.95897  -9.94888
 Alpha  occ. eigenvalues --   -9.94566  -9.94395  -9.94035  -9.93762  -9.93741
 Alpha  occ. eigenvalues --   -9.93467  -9.93402  -9.93193  -9.93074  -9.93053
 Alpha  occ. eigenvalues --   -9.92935  -9.92886  -9.92878  -9.92830  -9.92814
 Alpha  occ. eigenvalues --   -9.92631  -9.92538  -9.92519  -9.92439  -9.92168
 Alpha  occ. eigenvalues --   -9.91939  -9.91902  -9.91883  -9.91783  -9.91664
 Alpha  occ. eigenvalues --   -9.91471  -9.91425  -9.91422  -9.91377  -9.91351
 Alpha  occ. eigenvalues --   -9.91339  -9.90881  -9.90806  -9.90794  -9.90755
 Alpha  occ. eigenvalues --   -9.90740  -9.90542  -9.90492  -9.90369  -9.90330
 Alpha  occ. eigenvalues --   -9.90265  -2.92514  -1.72901  -1.72401  -1.72242
 Alpha  occ. eigenvalues --   -0.97802  -0.96227  -0.91040  -0.90605  -0.90356
 Alpha  occ. eigenvalues --   -0.87607  -0.86963  -0.86493  -0.85687  -0.85018
 Alpha  occ. eigenvalues --   -0.75210  -0.74037  -0.73600  -0.73393  -0.73136
 Alpha  occ. eigenvalues --   -0.71829  -0.71707  -0.71248  -0.71019  -0.69872
 Alpha  occ. eigenvalues --   -0.69650  -0.68941  -0.68592  -0.68023  -0.67348
 Alpha  occ. eigenvalues --   -0.66692  -0.65856  -0.65231  -0.64817  -0.64683
 Alpha  occ. eigenvalues --   -0.64156  -0.62468  -0.62160  -0.61486  -0.60495
 Alpha  occ. eigenvalues --   -0.60410  -0.59966  -0.59951  -0.59708  -0.58888
 Alpha  occ. eigenvalues --   -0.58473  -0.57569  -0.56763  -0.55303  -0.54469
 Alpha  occ. eigenvalues --   -0.53890  -0.53522  -0.52899  -0.52259  -0.52152
 Alpha  occ. eigenvalues --   -0.51689  -0.50693  -0.50687  -0.50334  -0.49875
 Alpha  occ. eigenvalues --   -0.49403  -0.49133  -0.48610  -0.47885  -0.46601
 Alpha  occ. eigenvalues --   -0.46494  -0.45826  -0.45694  -0.45391  -0.44374
 Alpha  occ. eigenvalues --   -0.43994  -0.43356  -0.42798  -0.42374  -0.42272
 Alpha  occ. eigenvalues --   -0.41855  -0.41631  -0.41523  -0.41379  -0.41362
 Alpha  occ. eigenvalues --   -0.41242  -0.40601  -0.40508  -0.40424  -0.40019
 Alpha  occ. eigenvalues --   -0.39923  -0.39522  -0.39372  -0.39221  -0.39153
 Alpha  occ. eigenvalues --   -0.38995  -0.38724  -0.38566  -0.38359  -0.38248
 Alpha  occ. eigenvalues --   -0.37933  -0.37687  -0.37542  -0.37483  -0.37281
 Alpha  occ. eigenvalues --   -0.37129  -0.36728  -0.36525  -0.36315  -0.36259
 Alpha  occ. eigenvalues --   -0.36073  -0.35826  -0.35742  -0.35486  -0.35361
 Alpha  occ. eigenvalues --   -0.35348  -0.35139  -0.35031  -0.34901  -0.34700
 Alpha  occ. eigenvalues --   -0.34483  -0.34345  -0.34316  -0.34132  -0.33902
 Alpha  occ. eigenvalues --   -0.33729  -0.33642  -0.33458  -0.33206  -0.33002
 Alpha  occ. eigenvalues --   -0.32903  -0.32761  -0.32630  -0.32400  -0.32102
 Alpha  occ. eigenvalues --   -0.32043  -0.31790  -0.31706  -0.31460  -0.31221
 Alpha  occ. eigenvalues --   -0.31162  -0.30923  -0.30851  -0.30699  -0.30458
 Alpha  occ. eigenvalues --   -0.30401  -0.30274  -0.30211  -0.30180  -0.29812
 Alpha  occ. eigenvalues --   -0.29725  -0.29684  -0.29434  -0.29051  -0.28829
 Alpha  occ. eigenvalues --   -0.28751  -0.28434  -0.28195  -0.28088  -0.27928
 Alpha  occ. eigenvalues --   -0.27572  -0.27421  -0.26783  -0.26583  -0.26432
 Alpha  occ. eigenvalues --   -0.26403  -0.26113  -0.26058  -0.25850  -0.25609
 Alpha  occ. eigenvalues --   -0.24977  -0.24791  -0.24474  -0.23883  -0.23712
 Alpha  occ. eigenvalues --   -0.23188  -0.22356  -0.21916  -0.20980  -0.20858
 Alpha  occ. eigenvalues --   -0.20689  -0.19696  -0.18494  -0.18072  -0.17317
 Alpha  occ. eigenvalues --   -0.15671
 Alpha virt. eigenvalues --   -0.11397  -0.06809  -0.06147  -0.04652  -0.03637
 Alpha virt. eigenvalues --   -0.03048  -0.02773  -0.01983  -0.01771   0.00468
 Alpha virt. eigenvalues --    0.01405   0.01600   0.02408   0.02466   0.02900

 Mulliken charges:
               1
     1  Mg   0.718490
     2  C    0.046713
     3  C   -0.074096
     4  C   -0.023193
     5  C   -0.058231
     6  N   -0.199424
     7  C   -0.077773
     8  C   -0.010385
     9  C   -0.011503
    10  C    0.012752
    11  C    0.135597
    12  C    0.121516
    13  C    0.166025
    14  C    0.066211
    15  O   -0.168124
    16  O   -0.269985
    17  N   -0.316919
    18  C    0.193021
    19  C   -0.168450
    20  C    0.060887
    21  C    0.143676
    22  C    0.186668
    23  C   -0.096889
    24  O   -0.181396
    25  C    0.142056
    26  N   -0.211878
    27  C   -0.051082
    28  C    0.043904
    29  C    0.007330
    30  C   -0.053624
    31  C    0.136776
    32  C    0.113835
    33  C    0.063594
    34  N   -0.211180
    35  C    0.129467
    36  C   -0.172626
    37  C    0.062387
    38  C    0.044176
    39  C    0.187838
    40  C   -0.025053
    41  O   -0.119959
    42  C    0.084659
    43  C    0.090217
    44  O   -0.211312
    45  O   -0.279117
    46  C    0.221120
    47  C    0.284883
    48  C   -0.096932
    49  C   -0.188306
    50  C    0.138124
    51  C    0.153138
    52  C    0.076949
    53  C    0.077478
    54  C   -0.071454
    55  C    0.119620
    56  C    0.085020
    57  C    0.068818
    58  C    0.084791
    59  C   -0.103266
    60  C    0.126500
    61  C    0.141523
    62  C    0.074129
    63  C    0.110355
    64  C   -0.139834
    65  C    0.129599
    66  C    0.125514
    67  H   -0.067705
    68  H   -0.082199
    69  H   -0.074861
    70  H   -0.015698
    71  H   -0.037346
    72  H   -0.021880
    73  H   -0.005288
    74  H   -0.006503
    75  H   -0.012482
    76  H    0.000014
    77  H    0.006242
    78  H   -0.027196
    79  H    0.002870
    80  H    0.009943
    81  H   -0.013415
    82  H    0.012432
    83  H    0.008323
    84  H   -0.006459
    85  H   -0.025843
    86  H   -0.025404
    87  H   -0.009599
    88  H    0.002113
    89  H   -0.008431
    90  H   -0.021710
    91  H   -0.019378
    92  H   -0.025415
    93  H   -0.017250
    94  H   -0.016070
    95  H    0.008827
    96  H    0.020383
    97  H   -0.000456
    98  H   -0.010526
    99  H    0.007578
   100  H    0.030518
   101  H    0.008567
   102  H    0.016683
   103  H    0.002178
   104  H   -0.032791
   105  H    0.017347
   106  H   -0.011649
   107  H    0.007676
   108  H   -0.001410
   109  H   -0.052126
   110  H   -0.018837
   111  H   -0.026920
   112  H   -0.047491
   113  H   -0.037197
   114  H   -0.044906
   115  H   -0.015061
   116  H   -0.018292
   117  H   -0.025750
   118  H   -0.029794
   119  H   -0.029149
   120  H   -0.022509
   121  H   -0.026930
   122  H   -0.036741
   123  H   -0.045600
   124  H   -0.042297
   125  H   -0.013657
   126  H   -0.042289
   127  H   -0.011337
   128  H   -0.052189
   129  H   -0.043572
   130  H   -0.030313
   131  H   -0.024489
   132  H   -0.023512
   133  H   -0.046066
   134  H   -0.030941
   135  H   -0.020279
   136  H   -0.031705
   137  H   -0.012443
   138  H   -0.012480
   139  H   -0.024716
   140  H   -0.008507
 Sum of Mulliken charges =  -0.00000

 Dipole moment (field-independent basis, Debye):
    X=              2.0668    Y=             -1.5960    Z=             -0.1836  Tot=              2.6177
 Quadrupole moment (field-independent basis, Debye-Ang):
   XX=           -399.9547   YY=           -403.7790   ZZ=           -414.9013
   XY=             -0.5475   XZ=             -4.6852   YZ=            -55.7427

 Normal termination of Gaussian 16 at Thu May  5 05:52:21 2022.
