 Gaussian 16, Revision A.03,
 Gaussian 16:  ES64L-G16RevA.03 25-Dec-2016

 -----------------------------------
 #p cam-b3lyp/Def2SVP td=(nstates=5)
 -----------------------------------

 ------------------------------------------------------
 step_601_chromophore_8 TDDFT with cam-b3lyp functional
 ------------------------------------------------------
 Symbolic Z-matrix:
 Charge =  0 Multiplicity = 1

                         Standard orientation:
 ---------------------------------------------------------------------
 Center     Atomic      Atomic             Coordinates (Angstroms)
 Number     Number       Type             X           Y           Z
 ---------------------------------------------------------------------
      1         12           0       -4.668809   -1.073330    0.167172
      2          6           0       -3.687419    2.285056    0.725209
      3          6           0       -4.517599   -0.385655   -3.199703
      4          6           0       -4.776825   -4.321214   -0.316497
      5          6           0       -3.953794   -1.592055    3.575102
      6          7           0       -4.150067    0.690691   -1.061448
      7          6           0       -3.838048    1.955776   -0.615524
      8          6           0       -3.602585    2.986351   -1.737289
      9          6           0       -4.364334    2.149820   -2.923256
     10          6           0       -4.332832    0.757759   -2.392564
     11          6           0       -5.673453    2.805453   -3.335367
     12          6           0       -2.100082    3.232226   -2.106019
     13          6           0       -1.592957    4.626214   -2.086015
     14          6           0       -0.388108    4.827631   -1.185085
     15          8           0       -0.445940    4.951393    0.023842
     16          8           0        0.774729    4.925990   -1.926641
     17          7           0       -4.652810   -2.223657   -1.485467
     18          6           0       -4.655190   -1.748302   -2.798993
     19          6           0       -4.798600   -2.876613   -3.705038
     20          6           0       -4.990174   -4.052251   -2.939903
     21          6           0       -4.869436   -3.560854   -1.538199
     22          6           0       -4.636846   -2.773631   -5.278093
     23          6           0       -5.270828   -5.451277   -3.459753
     24          8           0       -5.448017   -5.661521   -4.662726
     25          6           0       -5.339469   -6.672576   -2.600735
     26          7           0       -4.235054   -2.714176    1.437713
     27          6           0       -4.531005   -3.965052    0.995653
     28          6           0       -4.432283   -5.004264    2.150657
     29          6           0       -3.990440   -4.177141    3.318399
     30          6           0       -4.041709   -2.741255    2.767469
     31          6           0       -5.740950   -5.736830    2.551638
     32          6           0       -2.546863   -4.507280    3.768131
     33          6           0       -2.525017   -5.312478    4.965014
     34          7           0       -4.175824    0.099807    1.937597
     35          6           0       -3.879842   -0.251047    3.207779
     36          6           0       -3.572456    0.967351    4.067814
     37          6           0       -3.524771    1.999942    3.111544
     38          6           0       -3.900265    1.419957    1.804829
     39          6           0       -3.237313    1.054096    5.545444
     40          6           0       -3.280757    3.389629    2.943497
     41          8           0       -2.994703    4.314590    3.684862
     42          6           0       -3.438409    3.649364    1.378821
     43          6           0       -4.473783    4.669376    1.201193
     44          8           0       -5.652813    4.635478    1.603972
     45          8           0       -4.019729    5.682777    0.375789
     46          6           0       -5.120923    6.725303    0.157677
     47          6           0        2.036408    5.115556   -1.227010
     48          6           0        2.738467    3.769433   -0.953497
     49          6           0        3.822738    3.628031   -0.127675
     50          6           0        4.509766    4.852741    0.597671
     51          6           0        4.449215    2.255861    0.083847
     52          6           0        5.134095    1.446838   -1.056498
     53          6           0        4.492465    0.109682   -1.325379
     54          6           0        5.514083   -0.948958   -1.700398
     55          6           0        5.002088   -2.023640   -2.684363
     56          6           0        6.230691   -1.539278   -0.426675
     57          6           0        7.766889   -1.975080   -0.694616
     58          6           0        8.763469   -1.112218    0.075339
     59          6           0        9.782162   -1.905497    0.930908
     60          6           0        9.115130   -2.362077    2.245621
     61          6           0       11.094190   -1.170709    1.045906
     62          6           0       12.215116   -1.664283    0.142534
     63          6           0       13.159540   -0.588466   -0.315752
     64          6           0       14.604532   -1.240811   -0.291330
     65          6           0       15.561412   -0.534636   -1.208140
     66          6           0       15.136100   -1.153618    1.146619
     67          1           0       -4.595936   -0.041314   -4.232874
     68          1           0       -4.886314   -5.405741   -0.242097
     69          1           0       -3.776566   -1.976867    4.581668
     70          1           0       -4.153591    3.899163   -1.511383
     71          1           0       -3.819893    2.241745   -3.862529
     72          1           0       -6.499527    2.133422   -3.098753
     73          1           0       -5.721143    2.975886   -4.410762
     74          1           0       -5.947782    3.701044   -2.778820
     75          1           0       -1.894627    2.890710   -3.120172
     76          1           0       -1.489868    2.713304   -1.368136
     77          1           0       -2.411460    5.309169   -1.857992
     78          1           0       -1.227645    4.785737   -3.100231
     79          1           0       -5.647322   -2.800665   -5.685407
     80          1           0       -4.104493   -3.634692   -5.684076
     81          1           0       -4.141707   -1.835215   -5.528237
     82          1           0       -5.935660   -6.370679   -1.739063
     83          1           0       -4.350941   -6.995139   -2.274839
     84          1           0       -5.712814   -7.506529   -3.195786
     85          1           0       -3.638489   -5.721740    1.944005
     86          1           0       -4.658729   -4.257902    4.175417
     87          1           0       -6.284794   -6.008175    1.646920
     88          1           0       -6.256267   -5.102513    3.272980
     89          1           0       -5.404752   -6.658766    3.027177
     90          1           0       -1.985093   -3.610657    4.032650
     91          1           0       -1.965527   -5.105928    3.066566
     92          1           0       -3.396956   -5.196150    5.607287
     93          1           0       -1.726716   -5.046040    5.657061
     94          1           0       -2.417409   -6.360102    4.682347
     95          1           0       -3.787569    1.938821    5.864558
     96          1           0       -2.190430    1.345214    5.633449
     97          1           0       -3.620752    0.185687    6.082002
     98          1           0       -2.547770    4.114094    0.954658
     99          1           0       -4.706210    7.406863   -0.585780
    100          1           0       -5.484717    7.245518    1.043875
    101          1           0       -6.012002    6.285580   -0.291821
    102          1           0        1.963623    5.771647   -0.359560
    103          1           0        2.732882    5.614185   -1.900977
    104          1           0        2.266478    2.911344   -1.433653
    105          1           0        4.320434    4.696745    1.659622
    106          1           0        4.063701    5.779249    0.235049
    107          1           0        5.566390    4.759743    0.344478
    108          1           0        3.720800    1.657995    0.633152
    109          1           0        5.304305    2.477990    0.722111
    110          1           0        6.182544    1.222192   -0.860320
    111          1           0        5.048124    1.964362   -2.011059
    112          1           0        3.885599    0.208739   -2.225153
    113          1           0        3.809350   -0.134712   -0.511468
    114          1           0        6.186909   -0.315561   -2.277076
    115          1           0        5.097129   -1.763768   -3.738587
    116          1           0        3.970194   -2.304332   -2.471848
    117          1           0        5.571532   -2.940020   -2.524483
    118          1           0        5.774552   -2.455132   -0.051566
    119          1           0        6.175679   -0.767360    0.339966
    120          1           0        8.033705   -1.821616   -1.739992
    121          1           0        7.866457   -3.007129   -0.361014
    122          1           0        8.178518   -0.389829    0.645339
    123          1           0        9.213039   -0.519863   -0.720771
    124          1           0       10.014083   -2.841091    0.421162
    125          1           0        8.124625   -1.952024    2.441165
    126          1           0        9.640716   -1.913549    3.088877
    127          1           0        9.292969   -3.426192    2.403235
    128          1           0       11.300669   -1.239433    2.114175
    129          1           0       10.869934   -0.118779    0.869641
    130          1           0       11.809772   -2.118754   -0.761414
    131          1           0       12.676939   -2.478049    0.701802
    132          1           0       12.996423    0.297901    0.296507
    133          1           0       13.005886   -0.346169   -1.367770
    134          1           0       14.504953   -2.261048   -0.662859
    135          1           0       15.687891    0.471180   -0.808729
    136          1           0       15.097083   -0.385439   -2.182881
    137          1           0       16.454992   -1.151850   -1.304271
    138          1           0       15.999942   -0.500304    1.269055
    139          1           0       15.509084   -2.154408    1.360854
    140          1           0       14.278190   -0.924740    1.778085
 ---------------------------------------------------------------------

 SCF Done:  E(RCAM-B3LYP) =  -3007.16111091     A.U. after   17 cycles

 Excitation energies and oscillator strengths:

 Excited State   1:      Singlet-A      1.7074 eV  726.18 nm  f=0.3741  <S**2>=0.000
     245 -> 248        0.17961
     246 -> 247        0.68578
     245 <- 248        0.10816
 This state for optimization and/or second-order correction.
 Total Energy, E(TD-HF/TD-DFT) =  -3007.09836663
 Copying the excited state density for this state as the 1-particle RhoCI density.

 Excited State   2:      Singlet-A      2.2831 eV  543.05 nm  f=0.0799  <S**2>=0.000
     245 -> 247        0.62252
     246 -> 248       -0.32532

 Excited State   3:      Singlet-A      3.4272 eV  361.77 nm  f=0.1093  <S**2>=0.000
     239 -> 247        0.10150
     240 -> 247        0.50546
     240 -> 249       -0.27826
     240 -> 250       -0.10594
     240 -> 251        0.11958
     245 -> 247       -0.13083
     246 -> 248       -0.28062

 Excited State   4:      Singlet-A      3.5076 eV  353.48 nm  f=0.4582  <S**2>=0.000
     240 -> 247        0.19927
     240 -> 249       -0.14013
     241 -> 247        0.25570
     245 -> 247        0.25744
     246 -> 248        0.51500
     246 -> 250       -0.12404

 Excited State   5:      Singlet-A      3.6254 eV  341.99 nm  f=0.0103  <S**2>=0.000
     241 -> 247       -0.24868
     242 -> 247       -0.13869
     243 -> 247        0.57873
     246 -> 249        0.12160
     246 -> 250       -0.14575

 The electronic state is 1-A.
 Alpha  occ. eigenvalues --  -46.89454 -19.25388 -19.25249 -19.20115 -19.19067
 Alpha  occ. eigenvalues --  -19.18819 -19.17890 -14.42563 -14.41623 -14.40082
 Alpha  occ. eigenvalues --  -14.39894 -10.39504 -10.38692 -10.34644 -10.34507
 Alpha  occ. eigenvalues --  -10.32107 -10.31836 -10.31168 -10.30976 -10.30803
 Alpha  occ. eigenvalues --  -10.30789 -10.30457 -10.30415 -10.29925 -10.29472
 Alpha  occ. eigenvalues --  -10.29454 -10.28549 -10.28103 -10.27967 -10.27750
 Alpha  occ. eigenvalues --  -10.27652 -10.27407 -10.27222 -10.27200 -10.27079
 Alpha  occ. eigenvalues --  -10.26993 -10.26921 -10.26805 -10.26800 -10.26628
 Alpha  occ. eigenvalues --  -10.26611 -10.26520 -10.26494 -10.26166 -10.25856
 Alpha  occ. eigenvalues --  -10.25849 -10.25838 -10.25635 -10.25597 -10.25565
 Alpha  occ. eigenvalues --  -10.25489 -10.25157 -10.25148 -10.25018 -10.25014
 Alpha  occ. eigenvalues --  -10.24962 -10.24562 -10.24401 -10.24382 -10.24377
 Alpha  occ. eigenvalues --  -10.24322 -10.24124 -10.24089 -10.23965 -10.23887
 Alpha  occ. eigenvalues --  -10.23880  -3.17996  -1.92861  -1.92450  -1.92313
 Alpha  occ. eigenvalues --   -1.16246  -1.14834  -1.09642  -1.08809  -1.08221
 Alpha  occ. eigenvalues --   -1.05586  -1.04742  -1.04197  -1.03353  -1.02408
 Alpha  occ. eigenvalues --   -0.92495  -0.90810  -0.90449  -0.90211  -0.89931
 Alpha  occ. eigenvalues --   -0.88516  -0.88347  -0.87855  -0.87653  -0.86532
 Alpha  occ. eigenvalues --   -0.86039  -0.85338  -0.84854  -0.84264  -0.83590
 Alpha  occ. eigenvalues --   -0.82736  -0.81996  -0.81138  -0.80736  -0.80567
 Alpha  occ. eigenvalues --   -0.79926  -0.78179  -0.77702  -0.76990  -0.76008
 Alpha  occ. eigenvalues --   -0.75749  -0.75301  -0.75216  -0.75007  -0.74102
 Alpha  occ. eigenvalues --   -0.73523  -0.72600  -0.71642  -0.70074  -0.69246
 Alpha  occ. eigenvalues --   -0.68428  -0.68064  -0.67325  -0.66607  -0.66301
 Alpha  occ. eigenvalues --   -0.65915  -0.64885  -0.64657  -0.64321  -0.63916
 Alpha  occ. eigenvalues --   -0.63153  -0.63008  -0.62492  -0.61744  -0.60248
 Alpha  occ. eigenvalues --   -0.60066  -0.59301  -0.59098  -0.58732  -0.57792
 Alpha  occ. eigenvalues --   -0.57365  -0.57084  -0.56037  -0.55624  -0.55224
 Alpha  occ. eigenvalues --   -0.55043  -0.54678  -0.54449  -0.54226  -0.54078
 Alpha  occ. eigenvalues --   -0.53984  -0.53712  -0.53121  -0.53103  -0.52572
 Alpha  occ. eigenvalues --   -0.52483  -0.52347  -0.52115  -0.51943  -0.51894
 Alpha  occ. eigenvalues --   -0.51543  -0.51453  -0.51196  -0.51025  -0.50654
 Alpha  occ. eigenvalues --   -0.50381  -0.50263  -0.49888  -0.49678  -0.49586
 Alpha  occ. eigenvalues --   -0.49306  -0.49156  -0.48865  -0.48690  -0.48407
 Alpha  occ. eigenvalues --   -0.48276  -0.48129  -0.48043  -0.47838  -0.47626
 Alpha  occ. eigenvalues --   -0.47273  -0.47115  -0.46979  -0.46916  -0.46817
 Alpha  occ. eigenvalues --   -0.46453  -0.46188  -0.46024  -0.45921  -0.45890
 Alpha  occ. eigenvalues --   -0.45453  -0.45368  -0.45134  -0.45056  -0.44936
 Alpha  occ. eigenvalues --   -0.44694  -0.44511  -0.44264  -0.44165  -0.43938
 Alpha  occ. eigenvalues --   -0.43596  -0.43480  -0.43303  -0.43001  -0.42862
 Alpha  occ. eigenvalues --   -0.42583  -0.42515  -0.42468  -0.42212  -0.42165
 Alpha  occ. eigenvalues --   -0.41898  -0.41679  -0.41520  -0.41390  -0.41149
 Alpha  occ. eigenvalues --   -0.41037  -0.40881  -0.40741  -0.40253  -0.39947
 Alpha  occ. eigenvalues --   -0.39829  -0.39499  -0.39279  -0.39125  -0.38862
 Alpha  occ. eigenvalues --   -0.38509  -0.38307  -0.37993  -0.37541  -0.37238
 Alpha  occ. eigenvalues --   -0.37175  -0.36848  -0.36706  -0.36667  -0.36317
 Alpha  occ. eigenvalues --   -0.36270  -0.36051  -0.34985  -0.34855  -0.33998
 Alpha  occ. eigenvalues --   -0.33769  -0.33503  -0.32884  -0.31331  -0.30643
 Alpha  occ. eigenvalues --   -0.30403  -0.30325  -0.30052  -0.29292  -0.24223
 Alpha  occ. eigenvalues --   -0.20870
 Alpha virt. eigenvalues --   -0.08389  -0.01692   0.00283   0.01340   0.02468
 Alpha virt. eigenvalues --    0.04645   0.04738   0.05240   0.05790   0.07050
 Alpha virt. eigenvalues --    0.07825   0.08483   0.08963   0.08984   0.09104

 Mulliken charges:
               1
     1  Mg   0.848848
     2  C    0.014197
     3  C   -0.078537
     4  C   -0.048044
     5  C   -0.069071
     6  N   -0.267106
     7  C   -0.039851
     8  C   -0.056864
     9  C   -0.064015
    10  C    0.022845
    11  C    0.077900
    12  C    0.071427
    13  C    0.090116
    14  C    0.148609
    15  O   -0.210150
    16  O   -0.336682
    17  N   -0.403280
    18  C    0.186394
    19  C   -0.168979
    20  C   -0.015356
    21  C    0.173611
    22  C    0.137059
    23  C   -0.018577
    24  O   -0.222396
    25  C    0.062942
    26  N   -0.284815
    27  C   -0.027656
    28  C   -0.015413
    29  C   -0.052128
    30  C   -0.026278
    31  C    0.082840
    32  C    0.054315
    33  C    0.002145
    34  N   -0.297385
    35  C    0.134629
    36  C   -0.160505
    37  C   -0.016150
    38  C    0.090538
    39  C    0.137047
    40  C    0.071092
    41  O   -0.157504
    42  C    0.002721
    43  C    0.185559
    44  O   -0.249472
    45  O   -0.344445
    46  C    0.181481
    47  C    0.251402
    48  C   -0.115494
    49  C   -0.209612
    50  C    0.079261
    51  C    0.093144
    52  C    0.021579
    53  C    0.026307
    54  C   -0.129432
    55  C    0.061218
    56  C    0.033812
    57  C    0.016344
    58  C    0.035029
    59  C   -0.158632
    60  C    0.064690
    61  C    0.086668
    62  C    0.017304
    63  C    0.051262
    64  C   -0.196525
    65  C    0.068966
    66  C    0.063331
    67  H   -0.031297
    68  H   -0.049213
    69  H   -0.041111
    70  H    0.015597
    71  H   -0.001793
    72  H    0.005232
    73  H    0.018724
    74  H    0.016460
    75  H    0.018128
    76  H    0.030411
    77  H    0.038508
    78  H    0.011537
    79  H    0.029279
    80  H    0.037098
    81  H    0.009735
    82  H    0.034646
    83  H    0.036261
    84  H    0.028869
    85  H    0.009147
    86  H    0.009883
    87  H    0.014127
    88  H    0.024795
    89  H    0.015791
    90  H    0.009940
    91  H    0.009996
    92  H   -0.001993
    93  H    0.009067
    94  H    0.007482
    95  H    0.036546
    96  H    0.047899
    97  H    0.024735
    98  H    0.036445
    99  H    0.031975
   100  H    0.054896
   101  H    0.032498
   102  H    0.045447
   103  H    0.029947
   104  H    0.000149
   105  H    0.040866
   106  H    0.010643
   107  H    0.030130
   108  H    0.027465
   109  H   -0.020208
   110  H    0.006700
   111  H    0.003321
   112  H   -0.016532
   113  H   -0.008979
   114  H   -0.013107
   115  H    0.009777
   116  H    0.006285
   117  H   -0.001546
   118  H   -0.000293
   119  H   -0.004440
   120  H    0.004743
   121  H    0.000772
   122  H   -0.010671
   123  H   -0.016404
   124  H   -0.009510
   125  H    0.010756
   126  H   -0.016422
   127  H    0.013548
   128  H   -0.022286
   129  H   -0.014296
   130  H   -0.001255
   131  H    0.003758
   132  H    0.005002
   133  H   -0.015763
   134  H    0.000400
   135  H    0.003035
   136  H   -0.006572
   137  H    0.012543
   138  H    0.013125
   139  H   -0.000028
   140  H    0.013324
 Sum of Mulliken charges =  -0.00000

 Dipole moment (field-independent basis, Debye):
    X=              1.9697    Y=             -1.5251    Z=              0.0431  Tot=              2.4915
 Quadrupole moment (field-independent basis, Debye-Ang):
   XX=           -400.5294   YY=           -399.9882   ZZ=           -412.9012
   XY=             -1.2781   XZ=             -5.4878   YZ=            -57.8754

 Normal termination of Gaussian 16 at Thu May  5 04:23:46 2022.
