 Gaussian 16, Revision A.03,
 Gaussian 16:  ES64L-G16RevA.03 25-Dec-2016

 ---------------------------------
 #p PBE1PBE/Def2SVP td=(nstates=5)
 ---------------------------------

 ----------------------------------------------------
 step_601_chromophore_8 TDDFT with PBE1PBE functional
 ----------------------------------------------------
 Symbolic Z-matrix:
 Charge =  0 Multiplicity = 1

                         Standard orientation:
 ---------------------------------------------------------------------
 Center     Atomic      Atomic             Coordinates (Angstroms)
 Number     Number       Type             X           Y           Z
 ---------------------------------------------------------------------
      1         12           0       -4.668809   -1.073330    0.167172
      2          6           0       -3.687419    2.285056    0.725209
      3          6           0       -4.517599   -0.385655   -3.199703
      4          6           0       -4.776825   -4.321214   -0.316497
      5          6           0       -3.953794   -1.592055    3.575102
      6          7           0       -4.150067    0.690691   -1.061448
      7          6           0       -3.838048    1.955776   -0.615524
      8          6           0       -3.602585    2.986351   -1.737289
      9          6           0       -4.364334    2.149820   -2.923256
     10          6           0       -4.332832    0.757759   -2.392564
     11          6           0       -5.673453    2.805453   -3.335367
     12          6           0       -2.100082    3.232226   -2.106019
     13          6           0       -1.592957    4.626214   -2.086015
     14          6           0       -0.388108    4.827631   -1.185085
     15          8           0       -0.445940    4.951393    0.023842
     16          8           0        0.774729    4.925990   -1.926641
     17          7           0       -4.652810   -2.223657   -1.485467
     18          6           0       -4.655190   -1.748302   -2.798993
     19          6           0       -4.798600   -2.876613   -3.705038
     20          6           0       -4.990174   -4.052251   -2.939903
     21          6           0       -4.869436   -3.560854   -1.538199
     22          6           0       -4.636846   -2.773631   -5.278093
     23          6           0       -5.270828   -5.451277   -3.459753
     24          8           0       -5.448017   -5.661521   -4.662726
     25          6           0       -5.339469   -6.672576   -2.600735
     26          7           0       -4.235054   -2.714176    1.437713
     27          6           0       -4.531005   -3.965052    0.995653
     28          6           0       -4.432283   -5.004264    2.150657
     29          6           0       -3.990440   -4.177141    3.318399
     30          6           0       -4.041709   -2.741255    2.767469
     31          6           0       -5.740950   -5.736830    2.551638
     32          6           0       -2.546863   -4.507280    3.768131
     33          6           0       -2.525017   -5.312478    4.965014
     34          7           0       -4.175824    0.099807    1.937597
     35          6           0       -3.879842   -0.251047    3.207779
     36          6           0       -3.572456    0.967351    4.067814
     37          6           0       -3.524771    1.999942    3.111544
     38          6           0       -3.900265    1.419957    1.804829
     39          6           0       -3.237313    1.054096    5.545444
     40          6           0       -3.280757    3.389629    2.943497
     41          8           0       -2.994703    4.314590    3.684862
     42          6           0       -3.438409    3.649364    1.378821
     43          6           0       -4.473783    4.669376    1.201193
     44          8           0       -5.652813    4.635478    1.603972
     45          8           0       -4.019729    5.682777    0.375789
     46          6           0       -5.120923    6.725303    0.157677
     47          6           0        2.036408    5.115556   -1.227010
     48          6           0        2.738467    3.769433   -0.953497
     49          6           0        3.822738    3.628031   -0.127675
     50          6           0        4.509766    4.852741    0.597671
     51          6           0        4.449215    2.255861    0.083847
     52          6           0        5.134095    1.446838   -1.056498
     53          6           0        4.492465    0.109682   -1.325379
     54          6           0        5.514083   -0.948958   -1.700398
     55          6           0        5.002088   -2.023640   -2.684363
     56          6           0        6.230691   -1.539278   -0.426675
     57          6           0        7.766889   -1.975080   -0.694616
     58          6           0        8.763469   -1.112218    0.075339
     59          6           0        9.782162   -1.905497    0.930908
     60          6           0        9.115130   -2.362077    2.245621
     61          6           0       11.094190   -1.170709    1.045906
     62          6           0       12.215116   -1.664283    0.142534
     63          6           0       13.159540   -0.588466   -0.315752
     64          6           0       14.604532   -1.240811   -0.291330
     65          6           0       15.561412   -0.534636   -1.208140
     66          6           0       15.136100   -1.153618    1.146619
     67          1           0       -4.595936   -0.041314   -4.232874
     68          1           0       -4.886314   -5.405741   -0.242097
     69          1           0       -3.776566   -1.976867    4.581668
     70          1           0       -4.153591    3.899163   -1.511383
     71          1           0       -3.819893    2.241745   -3.862529
     72          1           0       -6.499527    2.133422   -3.098753
     73          1           0       -5.721143    2.975886   -4.410762
     74          1           0       -5.947782    3.701044   -2.778820
     75          1           0       -1.894627    2.890710   -3.120172
     76          1           0       -1.489868    2.713304   -1.368136
     77          1           0       -2.411460    5.309169   -1.857992
     78          1           0       -1.227645    4.785737   -3.100231
     79          1           0       -5.647322   -2.800665   -5.685407
     80          1           0       -4.104493   -3.634692   -5.684076
     81          1           0       -4.141707   -1.835215   -5.528237
     82          1           0       -5.935660   -6.370679   -1.739063
     83          1           0       -4.350941   -6.995139   -2.274839
     84          1           0       -5.712814   -7.506529   -3.195786
     85          1           0       -3.638489   -5.721740    1.944005
     86          1           0       -4.658729   -4.257902    4.175417
     87          1           0       -6.284794   -6.008175    1.646920
     88          1           0       -6.256267   -5.102513    3.272980
     89          1           0       -5.404752   -6.658766    3.027177
     90          1           0       -1.985093   -3.610657    4.032650
     91          1           0       -1.965527   -5.105928    3.066566
     92          1           0       -3.396956   -5.196150    5.607287
     93          1           0       -1.726716   -5.046040    5.657061
     94          1           0       -2.417409   -6.360102    4.682347
     95          1           0       -3.787569    1.938821    5.864558
     96          1           0       -2.190430    1.345214    5.633449
     97          1           0       -3.620752    0.185687    6.082002
     98          1           0       -2.547770    4.114094    0.954658
     99          1           0       -4.706210    7.406863   -0.585780
    100          1           0       -5.484717    7.245518    1.043875
    101          1           0       -6.012002    6.285580   -0.291821
    102          1           0        1.963623    5.771647   -0.359560
    103          1           0        2.732882    5.614185   -1.900977
    104          1           0        2.266478    2.911344   -1.433653
    105          1           0        4.320434    4.696745    1.659622
    106          1           0        4.063701    5.779249    0.235049
    107          1           0        5.566390    4.759743    0.344478
    108          1           0        3.720800    1.657995    0.633152
    109          1           0        5.304305    2.477990    0.722111
    110          1           0        6.182544    1.222192   -0.860320
    111          1           0        5.048124    1.964362   -2.011059
    112          1           0        3.885599    0.208739   -2.225153
    113          1           0        3.809350   -0.134712   -0.511468
    114          1           0        6.186909   -0.315561   -2.277076
    115          1           0        5.097129   -1.763768   -3.738587
    116          1           0        3.970194   -2.304332   -2.471848
    117          1           0        5.571532   -2.940020   -2.524483
    118          1           0        5.774552   -2.455132   -0.051566
    119          1           0        6.175679   -0.767360    0.339966
    120          1           0        8.033705   -1.821616   -1.739992
    121          1           0        7.866457   -3.007129   -0.361014
    122          1           0        8.178518   -0.389829    0.645339
    123          1           0        9.213039   -0.519863   -0.720771
    124          1           0       10.014083   -2.841091    0.421162
    125          1           0        8.124625   -1.952024    2.441165
    126          1           0        9.640716   -1.913549    3.088877
    127          1           0        9.292969   -3.426192    2.403235
    128          1           0       11.300669   -1.239433    2.114175
    129          1           0       10.869934   -0.118779    0.869641
    130          1           0       11.809772   -2.118754   -0.761414
    131          1           0       12.676939   -2.478049    0.701802
    132          1           0       12.996423    0.297901    0.296507
    133          1           0       13.005886   -0.346169   -1.367770
    134          1           0       14.504953   -2.261048   -0.662859
    135          1           0       15.687891    0.471180   -0.808729
    136          1           0       15.097083   -0.385439   -2.182881
    137          1           0       16.454992   -1.151850   -1.304271
    138          1           0       15.999942   -0.500304    1.269055
    139          1           0       15.509084   -2.154408    1.360854
    140          1           0       14.278190   -0.924740    1.778085
 ---------------------------------------------------------------------

 SCF Done:  E(RPBE1PBE) =  -3005.34947683     A.U. after   15 cycles

 Excitation energies and oscillator strengths:

 Excited State   1:      Singlet-A      1.8614 eV  666.06 nm  f=0.3639  <S**2>=0.000
     245 -> 248        0.17298
     246 -> 247        0.69336
     246 <- 247       -0.10858
 This state for optimization and/or second-order correction.
 Total Energy, E(TD-HF/TD-DFT) =  -3005.28106985
 Copying the excited state density for this state as the 1-particle RhoCI density.

 Excited State   2:      Singlet-A      2.2801 eV  543.78 nm  f=0.0879  <S**2>=0.000
     245 -> 247        0.63981
     246 -> 248       -0.29096

 Excited State   3:      Singlet-A      2.9806 eV  415.97 nm  f=0.0012  <S**2>=0.000
     242 -> 247        0.66130
     242 -> 249       -0.18702

 Excited State   4:      Singlet-A      3.0681 eV  404.10 nm  f=0.0002  <S**2>=0.000
     243 -> 247        0.66464
     243 -> 249        0.15763
     243 -> 250       -0.12862

 Excited State   5:      Singlet-A      3.2497 eV  381.52 nm  f=0.0131  <S**2>=0.000
     241 -> 247        0.68908

 The electronic state is 1-A.
 Alpha  occ. eigenvalues --  -46.92870 -19.25978 -19.25930 -19.20311 -19.19248
 Alpha  occ. eigenvalues --  -19.18915 -19.18232 -14.42029 -14.41160 -14.39802
 Alpha  occ. eigenvalues --  -14.39459 -10.36494 -10.35656 -10.31769 -10.31663
 Alpha  occ. eigenvalues --  -10.29507 -10.29037 -10.28831 -10.28803 -10.28435
 Alpha  occ. eigenvalues --  -10.28329 -10.28244 -10.28243 -10.27851 -10.27048
 Alpha  occ. eigenvalues --  -10.26992 -10.26407 -10.25971 -10.25833 -10.25491
 Alpha  occ. eigenvalues --  -10.25480 -10.25228 -10.24880 -10.24865 -10.24826
 Alpha  occ. eigenvalues --  -10.24669 -10.24553 -10.24356 -10.24263 -10.24140
 Alpha  occ. eigenvalues --  -10.24115 -10.24109 -10.23896 -10.23673 -10.23433
 Alpha  occ. eigenvalues --  -10.23420 -10.23397 -10.23181 -10.23179 -10.23135
 Alpha  occ. eigenvalues --  -10.22942 -10.22806 -10.22738 -10.22697 -10.22543
 Alpha  occ. eigenvalues --  -10.22342 -10.22098 -10.21947 -10.21913 -10.21771
 Alpha  occ. eigenvalues --  -10.21692 -10.21675 -10.21490 -10.21461 -10.21416
 Alpha  occ. eigenvalues --  -10.21249  -3.14990  -1.87793  -1.87363  -1.87229
 Alpha  occ. eigenvalues --   -1.11014  -1.09514  -1.04269  -1.03654  -1.03044
 Alpha  occ. eigenvalues --   -1.00328  -0.99336  -0.98806  -0.97982  -0.97178
 Alpha  occ. eigenvalues --   -0.86767  -0.85098  -0.84541  -0.84391  -0.84044
 Alpha  occ. eigenvalues --   -0.82715  -0.82614  -0.82034  -0.81904  -0.80747
 Alpha  occ. eigenvalues --   -0.80354  -0.79749  -0.79163  -0.78407  -0.77878
 Alpha  occ. eigenvalues --   -0.76916  -0.76233  -0.75350  -0.74983  -0.74877
 Alpha  occ. eigenvalues --   -0.74094  -0.72436  -0.72005  -0.71327  -0.70249
 Alpha  occ. eigenvalues --   -0.69882  -0.69594  -0.69378  -0.69131  -0.68271
 Alpha  occ. eigenvalues --   -0.67859  -0.66994  -0.66091  -0.64401  -0.63663
 Alpha  occ. eigenvalues --   -0.62768  -0.62296  -0.61799  -0.60847  -0.60663
 Alpha  occ. eigenvalues --   -0.60399  -0.59263  -0.59056  -0.58902  -0.58025
 Alpha  occ. eigenvalues --   -0.57558  -0.57200  -0.56671  -0.56256  -0.54684
 Alpha  occ. eigenvalues --   -0.54590  -0.53853  -0.53654  -0.53382  -0.52249
 Alpha  occ. eigenvalues --   -0.52043  -0.51415  -0.50627  -0.50168  -0.49781
 Alpha  occ. eigenvalues --   -0.49624  -0.49143  -0.48922  -0.48576  -0.48567
 Alpha  occ. eigenvalues --   -0.48486  -0.48159  -0.47625  -0.47553  -0.47232
 Alpha  occ. eigenvalues --   -0.46948  -0.46904  -0.46677  -0.46466  -0.46389
 Alpha  occ. eigenvalues --   -0.46045  -0.45916  -0.45750  -0.45559  -0.45247
 Alpha  occ. eigenvalues --   -0.44882  -0.44799  -0.44460  -0.44235  -0.44123
 Alpha  occ. eigenvalues --   -0.43872  -0.43693  -0.43462  -0.43296  -0.43062
 Alpha  occ. eigenvalues --   -0.42892  -0.42748  -0.42657  -0.42483  -0.42330
 Alpha  occ. eigenvalues --   -0.41897  -0.41757  -0.41632  -0.41590  -0.41432
 Alpha  occ. eigenvalues --   -0.41184  -0.40900  -0.40655  -0.40603  -0.40531
 Alpha  occ. eigenvalues --   -0.40260  -0.40010  -0.39833  -0.39647  -0.39565
 Alpha  occ. eigenvalues --   -0.39478  -0.39204  -0.39035  -0.38891  -0.38706
 Alpha  occ. eigenvalues --   -0.38424  -0.38279  -0.37999  -0.37765  -0.37551
 Alpha  occ. eigenvalues --   -0.37416  -0.37342  -0.37208  -0.36976  -0.36920
 Alpha  occ. eigenvalues --   -0.36670  -0.36590  -0.36456  -0.36146  -0.35978
 Alpha  occ. eigenvalues --   -0.35890  -0.35698  -0.35649  -0.35163  -0.34864
 Alpha  occ. eigenvalues --   -0.34602  -0.34377  -0.34180  -0.33881  -0.33577
 Alpha  occ. eigenvalues --   -0.33481  -0.33038  -0.33004  -0.32563  -0.32080
 Alpha  occ. eigenvalues --   -0.31964  -0.31704  -0.31633  -0.31579  -0.31244
 Alpha  occ. eigenvalues --   -0.31043  -0.30968  -0.30038  -0.29907  -0.28942
 Alpha  occ. eigenvalues --   -0.28728  -0.28460  -0.28167  -0.26870  -0.25974
 Alpha  occ. eigenvalues --   -0.25731  -0.25414  -0.25136  -0.24538  -0.21103
 Alpha  occ. eigenvalues --   -0.18554
 Alpha virt. eigenvalues --   -0.10928  -0.05171  -0.03889  -0.02120  -0.01301
 Alpha virt. eigenvalues --    0.00072   0.00267   0.00849   0.01312   0.03410
 Alpha virt. eigenvalues --    0.04234   0.04574   0.05228   0.05376   0.05877

 Mulliken charges:
               1
     1  Mg   0.991878
     2  C   -0.000127
     3  C   -0.068878
     4  C   -0.053958
     5  C   -0.060494
     6  N   -0.373100
     7  C    0.022902
     8  C   -0.127138
     9  C   -0.142666
    10  C    0.063765
    11  C    0.024951
    12  C    0.027960
    13  C    0.008144
    14  C    0.216859
    15  O   -0.244456
    16  O   -0.370394
    17  N   -0.518573
    18  C    0.202060
    19  C   -0.185191
    20  C   -0.062886
    21  C    0.206606
    22  C    0.077651
    23  C    0.030596
    24  O   -0.255708
    25  C   -0.011141
    26  N   -0.388571
    27  C    0.014916
    28  C   -0.094786
    29  C   -0.132950
    30  C    0.017016
    31  C    0.022329
    32  C   -0.004816
    33  C   -0.064527
    34  N   -0.416212
    35  C    0.147082
    36  C   -0.165239
    37  C   -0.064659
    38  C    0.154807
    39  C    0.080579
    40  C    0.157937
    41  O   -0.205734
    42  C   -0.116855
    43  C    0.279207
    44  O   -0.283121
    45  O   -0.375138
    46  C    0.122222
    47  C    0.210471
    48  C   -0.122639
    49  C   -0.247937
    50  C    0.008429
    51  C    0.030390
    52  C   -0.045090
    53  C   -0.024949
    54  C   -0.219685
    55  C    0.000785
    56  C   -0.021044
    57  C   -0.043333
    58  C   -0.018079
    59  C   -0.246566
    60  C    0.007521
    61  C    0.032862
    62  C   -0.045146
    63  C   -0.007467
    64  C   -0.290708
    65  C    0.004677
    66  C    0.004304
    67  H    0.000834
    68  H   -0.014575
    69  H   -0.007907
    70  H    0.056912
    71  H    0.034798
    72  H    0.033912
    73  H    0.045089
    74  H    0.043468
    75  H    0.048796
    76  H    0.063814
    77  H    0.071067
    78  H    0.045377
    79  H    0.058169
    80  H    0.064606
    81  H    0.036944
    82  H    0.060180
    83  H    0.063705
    84  H    0.056907
    85  H    0.045587
    86  H    0.045117
    87  H    0.041882
    88  H    0.052277
    89  H    0.045208
    90  H    0.043368
    91  H    0.041529
    92  H    0.024885
    93  H    0.037080
    94  H    0.035224
    95  H    0.064224
    96  H    0.074573
    97  H    0.050683
    98  H    0.083702
    99  H    0.053482
   100  H    0.076970
   101  H    0.054461
   102  H    0.070322
   103  H    0.057877
   104  H    0.030307
   105  H    0.068986
   106  H    0.037513
   107  H    0.058028
   108  H    0.058812
   109  H    0.013265
   110  H    0.040124
   111  H    0.036716
   112  H    0.018249
   113  H    0.023074
   114  H    0.026729
   115  H    0.036951
   116  H    0.034216
   117  H    0.027038
   118  H    0.032247
   119  H    0.027967
   120  H    0.036631
   121  H    0.032844
   122  H    0.021505
   123  H    0.016884
   124  H    0.029052
   125  H    0.037841
   126  H    0.011150
   127  H    0.040541
   128  H    0.010559
   129  H    0.018594
   130  H    0.031930
   131  H    0.036479
   132  H    0.036254
   133  H    0.018149
   134  H    0.037573
   135  H    0.031249
   136  H    0.022017
   137  H    0.041165
   138  H    0.039813
   139  H    0.028313
   140  H    0.041740
 Sum of Mulliken charges =  -0.00000

 Dipole moment (field-independent basis, Debye):
    X=              1.9317    Y=             -1.7917    Z=             -0.1779  Tot=              2.6407
 Quadrupole moment (field-independent basis, Debye-Ang):
   XX=           -397.7830   YY=           -396.2564   ZZ=           -408.6543
   XY=             -0.3028   XZ=             -4.4742   YZ=            -58.8331

 Normal termination of Gaussian 16 at Thu May  5 04:47:21 2022.
