 Gaussian 16, Revision A.03,
 Gaussian 16:  ES64L-G16RevA.03 25-Dec-2016

 --------------------------------
 #p wB97XD/Def2SVP td=(nstates=5)
 --------------------------------

 ---------------------------------------------------
 step_601_chromophore_8 TDDFT with wB97XD functional
 ---------------------------------------------------
 Symbolic Z-matrix:
 Charge =  0 Multiplicity = 1

                         Standard orientation:
 ---------------------------------------------------------------------
 Center     Atomic      Atomic             Coordinates (Angstroms)
 Number     Number       Type             X           Y           Z
 ---------------------------------------------------------------------
      1         12           0       -4.668809   -1.073330    0.167172
      2          6           0       -3.687419    2.285056    0.725209
      3          6           0       -4.517599   -0.385655   -3.199703
      4          6           0       -4.776825   -4.321214   -0.316497
      5          6           0       -3.953794   -1.592055    3.575102
      6          7           0       -4.150067    0.690691   -1.061448
      7          6           0       -3.838048    1.955776   -0.615524
      8          6           0       -3.602585    2.986351   -1.737289
      9          6           0       -4.364334    2.149820   -2.923256
     10          6           0       -4.332832    0.757759   -2.392564
     11          6           0       -5.673453    2.805453   -3.335367
     12          6           0       -2.100082    3.232226   -2.106019
     13          6           0       -1.592957    4.626214   -2.086015
     14          6           0       -0.388108    4.827631   -1.185085
     15          8           0       -0.445940    4.951393    0.023842
     16          8           0        0.774729    4.925990   -1.926641
     17          7           0       -4.652810   -2.223657   -1.485467
     18          6           0       -4.655190   -1.748302   -2.798993
     19          6           0       -4.798600   -2.876613   -3.705038
     20          6           0       -4.990174   -4.052251   -2.939903
     21          6           0       -4.869436   -3.560854   -1.538199
     22          6           0       -4.636846   -2.773631   -5.278093
     23          6           0       -5.270828   -5.451277   -3.459753
     24          8           0       -5.448017   -5.661521   -4.662726
     25          6           0       -5.339469   -6.672576   -2.600735
     26          7           0       -4.235054   -2.714176    1.437713
     27          6           0       -4.531005   -3.965052    0.995653
     28          6           0       -4.432283   -5.004264    2.150657
     29          6           0       -3.990440   -4.177141    3.318399
     30          6           0       -4.041709   -2.741255    2.767469
     31          6           0       -5.740950   -5.736830    2.551638
     32          6           0       -2.546863   -4.507280    3.768131
     33          6           0       -2.525017   -5.312478    4.965014
     34          7           0       -4.175824    0.099807    1.937597
     35          6           0       -3.879842   -0.251047    3.207779
     36          6           0       -3.572456    0.967351    4.067814
     37          6           0       -3.524771    1.999942    3.111544
     38          6           0       -3.900265    1.419957    1.804829
     39          6           0       -3.237313    1.054096    5.545444
     40          6           0       -3.280757    3.389629    2.943497
     41          8           0       -2.994703    4.314590    3.684862
     42          6           0       -3.438409    3.649364    1.378821
     43          6           0       -4.473783    4.669376    1.201193
     44          8           0       -5.652813    4.635478    1.603972
     45          8           0       -4.019729    5.682777    0.375789
     46          6           0       -5.120923    6.725303    0.157677
     47          6           0        2.036408    5.115556   -1.227010
     48          6           0        2.738467    3.769433   -0.953497
     49          6           0        3.822738    3.628031   -0.127675
     50          6           0        4.509766    4.852741    0.597671
     51          6           0        4.449215    2.255861    0.083847
     52          6           0        5.134095    1.446838   -1.056498
     53          6           0        4.492465    0.109682   -1.325379
     54          6           0        5.514083   -0.948958   -1.700398
     55          6           0        5.002088   -2.023640   -2.684363
     56          6           0        6.230691   -1.539278   -0.426675
     57          6           0        7.766889   -1.975080   -0.694616
     58          6           0        8.763469   -1.112218    0.075339
     59          6           0        9.782162   -1.905497    0.930908
     60          6           0        9.115130   -2.362077    2.245621
     61          6           0       11.094190   -1.170709    1.045906
     62          6           0       12.215116   -1.664283    0.142534
     63          6           0       13.159540   -0.588466   -0.315752
     64          6           0       14.604532   -1.240811   -0.291330
     65          6           0       15.561412   -0.534636   -1.208140
     66          6           0       15.136100   -1.153618    1.146619
     67          1           0       -4.595936   -0.041314   -4.232874
     68          1           0       -4.886314   -5.405741   -0.242097
     69          1           0       -3.776566   -1.976867    4.581668
     70          1           0       -4.153591    3.899163   -1.511383
     71          1           0       -3.819893    2.241745   -3.862529
     72          1           0       -6.499527    2.133422   -3.098753
     73          1           0       -5.721143    2.975886   -4.410762
     74          1           0       -5.947782    3.701044   -2.778820
     75          1           0       -1.894627    2.890710   -3.120172
     76          1           0       -1.489868    2.713304   -1.368136
     77          1           0       -2.411460    5.309169   -1.857992
     78          1           0       -1.227645    4.785737   -3.100231
     79          1           0       -5.647322   -2.800665   -5.685407
     80          1           0       -4.104493   -3.634692   -5.684076
     81          1           0       -4.141707   -1.835215   -5.528237
     82          1           0       -5.935660   -6.370679   -1.739063
     83          1           0       -4.350941   -6.995139   -2.274839
     84          1           0       -5.712814   -7.506529   -3.195786
     85          1           0       -3.638489   -5.721740    1.944005
     86          1           0       -4.658729   -4.257902    4.175417
     87          1           0       -6.284794   -6.008175    1.646920
     88          1           0       -6.256267   -5.102513    3.272980
     89          1           0       -5.404752   -6.658766    3.027177
     90          1           0       -1.985093   -3.610657    4.032650
     91          1           0       -1.965527   -5.105928    3.066566
     92          1           0       -3.396956   -5.196150    5.607287
     93          1           0       -1.726716   -5.046040    5.657061
     94          1           0       -2.417409   -6.360102    4.682347
     95          1           0       -3.787569    1.938821    5.864558
     96          1           0       -2.190430    1.345214    5.633449
     97          1           0       -3.620752    0.185687    6.082002
     98          1           0       -2.547770    4.114094    0.954658
     99          1           0       -4.706210    7.406863   -0.585780
    100          1           0       -5.484717    7.245518    1.043875
    101          1           0       -6.012002    6.285580   -0.291821
    102          1           0        1.963623    5.771647   -0.359560
    103          1           0        2.732882    5.614185   -1.900977
    104          1           0        2.266478    2.911344   -1.433653
    105          1           0        4.320434    4.696745    1.659622
    106          1           0        4.063701    5.779249    0.235049
    107          1           0        5.566390    4.759743    0.344478
    108          1           0        3.720800    1.657995    0.633152
    109          1           0        5.304305    2.477990    0.722111
    110          1           0        6.182544    1.222192   -0.860320
    111          1           0        5.048124    1.964362   -2.011059
    112          1           0        3.885599    0.208739   -2.225153
    113          1           0        3.809350   -0.134712   -0.511468
    114          1           0        6.186909   -0.315561   -2.277076
    115          1           0        5.097129   -1.763768   -3.738587
    116          1           0        3.970194   -2.304332   -2.471848
    117          1           0        5.571532   -2.940020   -2.524483
    118          1           0        5.774552   -2.455132   -0.051566
    119          1           0        6.175679   -0.767360    0.339966
    120          1           0        8.033705   -1.821616   -1.739992
    121          1           0        7.866457   -3.007129   -0.361014
    122          1           0        8.178518   -0.389829    0.645339
    123          1           0        9.213039   -0.519863   -0.720771
    124          1           0       10.014083   -2.841091    0.421162
    125          1           0        8.124625   -1.952024    2.441165
    126          1           0        9.640716   -1.913549    3.088877
    127          1           0        9.292969   -3.426192    2.403235
    128          1           0       11.300669   -1.239433    2.114175
    129          1           0       10.869934   -0.118779    0.869641
    130          1           0       11.809772   -2.118754   -0.761414
    131          1           0       12.676939   -2.478049    0.701802
    132          1           0       12.996423    0.297901    0.296507
    133          1           0       13.005886   -0.346169   -1.367770
    134          1           0       14.504953   -2.261048   -0.662859
    135          1           0       15.687891    0.471180   -0.808729
    136          1           0       15.097083   -0.385439   -2.182881
    137          1           0       16.454992   -1.151850   -1.304271
    138          1           0       15.999942   -0.500304    1.269055
    139          1           0       15.509084   -2.154408    1.360854
    140          1           0       14.278190   -0.924740    1.778085
 ---------------------------------------------------------------------

 SCF Done:  E(RwB97XD) =  -3007.85721123     A.U. after   18 cycles

 Excitation energies and oscillator strengths:

 Excited State   1:      Singlet-A      1.6521 eV  750.48 nm  f=0.3722  <S**2>=0.000
     245 -> 248        0.18543
     246 -> 247        0.68344
     245 <- 248        0.11727
 This state for optimization and/or second-order correction.
 Total Energy, E(TD-HF/TD-DFT) =  -3007.79649884
 Copying the excited state density for this state as the 1-particle RhoCI density.

 Excited State   2:      Singlet-A      2.2288 eV  556.29 nm  f=0.0777  <S**2>=0.000
     245 -> 247        0.62093
     246 -> 248       -0.32731

 Excited State   3:      Singlet-A      3.4426 eV  360.15 nm  f=0.1377  <S**2>=0.000
     240 -> 247        0.46302
     240 -> 249        0.26859
     240 -> 250       -0.11167
     241 -> 247        0.16040
     241 -> 249        0.14252
     245 -> 247       -0.14493
     246 -> 248       -0.30628

 Excited State   4:      Singlet-A      3.5232 eV  351.91 nm  f=0.4577  <S**2>=0.000
     240 -> 247        0.11126
     240 -> 249        0.13762
     241 -> 247        0.33674
     241 -> 249        0.13166
     245 -> 247        0.25041
     246 -> 248        0.49933

 Excited State   5:      Singlet-A      3.6621 eV  338.56 nm  f=0.0165  <S**2>=0.000
     241 -> 247        0.20580
     242 -> 247        0.43738
     242 -> 248        0.10033
     242 -> 249       -0.22352
     242 -> 250       -0.16543
     242 -> 251        0.15950
     243 -> 247       -0.31771

 The electronic state is 1-A.
 Alpha  occ. eigenvalues --  -46.95801 -19.30621 -19.30509 -19.25042 -19.24051
 Alpha  occ. eigenvalues --  -19.23930 -19.22870 -14.47164 -14.46183 -14.44662
 Alpha  occ. eigenvalues --  -14.44500 -10.43317 -10.42568 -10.38708 -10.38433
 Alpha  occ. eigenvalues --  -10.36003 -10.35631 -10.35225 -10.34985 -10.34868
 Alpha  occ. eigenvalues --  -10.34832 -10.34454 -10.34383 -10.33921 -10.33689
 Alpha  occ. eigenvalues --  -10.33516 -10.32662 -10.32206 -10.32016 -10.31898
 Alpha  occ. eigenvalues --  -10.31670 -10.31455 -10.31253 -10.31221 -10.31083
 Alpha  occ. eigenvalues --  -10.31043 -10.30971 -10.30717 -10.30707 -10.30646
 Alpha  occ. eigenvalues --  -10.30515 -10.30490 -10.30348 -10.30004 -10.29969
 Alpha  occ. eigenvalues --  -10.29793 -10.29748 -10.29525 -10.29522 -10.29456
 Alpha  occ. eigenvalues --  -10.29401 -10.29094 -10.29071 -10.28975 -10.28924
 Alpha  occ. eigenvalues --  -10.28750 -10.28464 -10.28300 -10.28288 -10.28192
 Alpha  occ. eigenvalues --  -10.28123 -10.28033 -10.27886 -10.27852 -10.27784
 Alpha  occ. eigenvalues --  -10.27687  -3.21792  -1.95343  -1.94913  -1.94773
 Alpha  occ. eigenvalues --   -1.18425  -1.17013  -1.11934  -1.10979  -1.10422
 Alpha  occ. eigenvalues --   -1.07807  -1.06740  -1.06192  -1.05406  -1.04424
 Alpha  occ. eigenvalues --   -0.94503  -0.92652  -0.92202  -0.92042  -0.91702
 Alpha  occ. eigenvalues --   -0.90296  -0.90260  -0.89666  -0.89558  -0.88491
 Alpha  occ. eigenvalues --   -0.87932  -0.87261  -0.86744  -0.86069  -0.85525
 Alpha  occ. eigenvalues --   -0.84571  -0.83910  -0.83000  -0.82654  -0.82509
 Alpha  occ. eigenvalues --   -0.81765  -0.80123  -0.79608  -0.78904  -0.77954
 Alpha  occ. eigenvalues --   -0.77573  -0.77148  -0.77075  -0.76805  -0.75928
 Alpha  occ. eigenvalues --   -0.75457  -0.74587  -0.73612  -0.71998  -0.71279
 Alpha  occ. eigenvalues --   -0.70327  -0.69924  -0.69281  -0.68467  -0.68195
 Alpha  occ. eigenvalues --   -0.67888  -0.66710  -0.66656  -0.66327  -0.65704
 Alpha  occ. eigenvalues --   -0.65071  -0.64851  -0.64307  -0.63763  -0.62171
 Alpha  occ. eigenvalues --   -0.62021  -0.61248  -0.61075  -0.60730  -0.59723
 Alpha  occ. eigenvalues --   -0.59403  -0.59039  -0.58014  -0.57587  -0.57191
 Alpha  occ. eigenvalues --   -0.57008  -0.56606  -0.56349  -0.56050  -0.55953
 Alpha  occ. eigenvalues --   -0.55882  -0.55641  -0.54998  -0.54971  -0.54498
 Alpha  occ. eigenvalues --   -0.54338  -0.54269  -0.54048  -0.53844  -0.53783
 Alpha  occ. eigenvalues --   -0.53528  -0.53295  -0.53111  -0.52931  -0.52582
 Alpha  occ. eigenvalues --   -0.52305  -0.52157  -0.51766  -0.51582  -0.51487
 Alpha  occ. eigenvalues --   -0.51265  -0.51060  -0.50788  -0.50608  -0.50317
 Alpha  occ. eigenvalues --   -0.50189  -0.50027  -0.49936  -0.49726  -0.49545
 Alpha  occ. eigenvalues --   -0.49150  -0.49011  -0.48906  -0.48822  -0.48667
 Alpha  occ. eigenvalues --   -0.48366  -0.48122  -0.47885  -0.47854  -0.47803
 Alpha  occ. eigenvalues --   -0.47377  -0.47243  -0.47020  -0.46894  -0.46884
 Alpha  occ. eigenvalues --   -0.46632  -0.46396  -0.46185  -0.46094  -0.45859
 Alpha  occ. eigenvalues --   -0.45525  -0.45403  -0.45187  -0.44981  -0.44706
 Alpha  occ. eigenvalues --   -0.44468  -0.44399  -0.44360  -0.44179  -0.44087
 Alpha  occ. eigenvalues --   -0.43754  -0.43565  -0.43419  -0.43247  -0.43066
 Alpha  occ. eigenvalues --   -0.42952  -0.42762  -0.42703  -0.42167  -0.41828
 Alpha  occ. eigenvalues --   -0.41676  -0.41392  -0.41186  -0.40961  -0.40675
 Alpha  occ. eigenvalues --   -0.40420  -0.40120  -0.39921  -0.39563  -0.39109
 Alpha  occ. eigenvalues --   -0.38987  -0.38678  -0.38663  -0.38525  -0.38383
 Alpha  occ. eigenvalues --   -0.38093  -0.37973  -0.36855  -0.36819  -0.35928
 Alpha  occ. eigenvalues --   -0.35795  -0.35317  -0.35079  -0.33522  -0.32708
 Alpha  occ. eigenvalues --   -0.32609  -0.32203  -0.32202  -0.31319  -0.26149
 Alpha  occ. eigenvalues --   -0.22677
 Alpha virt. eigenvalues --   -0.06726   0.00218   0.02366   0.04303   0.04841
 Alpha virt. eigenvalues --    0.06809   0.07000   0.07599   0.08040   0.09952
 Alpha virt. eigenvalues --    0.10913   0.11324   0.11924   0.12186   0.12572

 Mulliken charges:
               1
     1  Mg   0.983733
     2  C   -0.003149
     3  C   -0.084025
     4  C   -0.061643
     5  C   -0.080790
     6  N   -0.336676
     7  C   -0.005072
     8  C   -0.094957
     9  C   -0.112597
    10  C    0.042350
    11  C    0.031443
    12  C    0.036324
    13  C    0.025473
    14  C    0.204109
    15  O   -0.240062
    16  O   -0.368579
    17  N   -0.486486
    18  C    0.195130
    19  C   -0.181746
    20  C   -0.060018
    21  C    0.198908
    22  C    0.091096
    23  C    0.027131
    24  O   -0.252191
    25  C    0.002316
    26  N   -0.356351
    27  C   -0.001482
    28  C   -0.069022
    29  C   -0.101191
    30  C    0.006159
    31  C    0.035787
    32  C    0.008035
    33  C   -0.051163
    34  N   -0.380409
    35  C    0.144836
    36  C   -0.166981
    37  C   -0.060596
    38  C    0.132392
    39  C    0.093426
    40  C    0.145014
    41  O   -0.194725
    42  C   -0.063243
    43  C    0.253669
    44  O   -0.278281
    45  O   -0.373744
    46  C    0.138595
    47  C    0.224464
    48  C   -0.134021
    49  C   -0.238140
    50  C    0.027141
    51  C    0.048372
    52  C   -0.025664
    53  C   -0.012712
    54  C   -0.183590
    55  C    0.011275
    56  C   -0.005214
    57  C   -0.029609
    58  C   -0.001763
    59  C   -0.213978
    60  C    0.017508
    61  C    0.049852
    62  C   -0.030866
    63  C    0.008419
    64  C   -0.257702
    65  C    0.018569
    66  C    0.013017
    67  H   -0.004948
    68  H   -0.028243
    69  H   -0.014458
    70  H    0.035436
    71  H    0.024148
    72  H    0.027178
    73  H    0.040614
    74  H    0.037897
    75  H    0.042364
    76  H    0.054150
    77  H    0.064730
    78  H    0.040626
    79  H    0.053228
    80  H    0.060185
    81  H    0.030528
    82  H    0.052411
    83  H    0.059227
    84  H    0.055358
    85  H    0.035266
    86  H    0.030829
    87  H    0.035752
    88  H    0.045729
    89  H    0.038513
    90  H    0.034414
    91  H    0.034680
    92  H    0.017841
    93  H    0.032053
    94  H    0.029401
    95  H    0.059750
    96  H    0.071155
    97  H    0.047037
    98  H    0.065092
    99  H    0.050858
   100  H    0.073387
   101  H    0.049881
   102  H    0.065512
   103  H    0.052603
   104  H    0.027508
   105  H    0.063331
   106  H    0.031591
   107  H    0.051822
   108  H    0.051015
   109  H    0.005327
   110  H    0.027533
   111  H    0.028303
   112  H    0.009291
   113  H    0.013502
   114  H    0.010922
   115  H    0.032559
   116  H    0.028277
   117  H    0.020113
   118  H    0.025248
   119  H    0.014188
   120  H    0.028306
   121  H    0.024025
   122  H    0.009642
   123  H    0.007865
   124  H    0.014429
   125  H    0.031706
   126  H    0.004025
   127  H    0.036100
   128  H    0.000652
   129  H    0.007818
   130  H    0.023048
   131  H    0.026736
   132  H    0.027349
   133  H    0.009380
   134  H    0.026467
   135  H    0.023459
   136  H    0.015317
   137  H    0.035996
   138  H    0.034967
   139  H    0.022573
   140  H    0.033323
 Sum of Mulliken charges =  -0.00000

 Dipole moment (field-independent basis, Debye):
    X=              1.9589    Y=             -1.5078    Z=              0.0961  Tot=              2.4739
 Quadrupole moment (field-independent basis, Debye-Ang):
   XX=           -397.2891   YY=           -395.5401   ZZ=           -408.3396
   XY=             -1.3523   XZ=             -5.5749   YZ=            -58.6046

 Normal termination of Gaussian 16 at Thu May  5 05:34:16 2022.
