 Gaussian 16, Revision A.03,
 Gaussian 16:  ES64L-G16RevA.03 25-Dec-2016

 --------------------
 #p ZINDO=(nstates=5)
 --------------------

 ----------------------------
 step_601_chromophore_8 ZINDO
 ----------------------------
 Symbolic Z-matrix:
 Charge =  0 Multiplicity = 1

                         Standard orientation:
 ---------------------------------------------------------------------
 Center     Atomic      Atomic             Coordinates (Angstroms)
 Number     Number       Type             X           Y           Z
 ---------------------------------------------------------------------
      1         12           0       -4.668809   -1.073330    0.167172
      2          6           0       -3.687419    2.285056    0.725209
      3          6           0       -4.517599   -0.385655   -3.199703
      4          6           0       -4.776825   -4.321214   -0.316497
      5          6           0       -3.953794   -1.592055    3.575102
      6          7           0       -4.150067    0.690691   -1.061448
      7          6           0       -3.838048    1.955776   -0.615524
      8          6           0       -3.602585    2.986351   -1.737289
      9          6           0       -4.364334    2.149820   -2.923256
     10          6           0       -4.332832    0.757759   -2.392564
     11          6           0       -5.673453    2.805453   -3.335367
     12          6           0       -2.100082    3.232226   -2.106019
     13          6           0       -1.592957    4.626214   -2.086015
     14          6           0       -0.388108    4.827631   -1.185085
     15          8           0       -0.445940    4.951393    0.023842
     16          8           0        0.774729    4.925990   -1.926641
     17          7           0       -4.652810   -2.223657   -1.485467
     18          6           0       -4.655190   -1.748302   -2.798993
     19          6           0       -4.798600   -2.876613   -3.705038
     20          6           0       -4.990174   -4.052251   -2.939903
     21          6           0       -4.869436   -3.560854   -1.538199
     22          6           0       -4.636846   -2.773631   -5.278093
     23          6           0       -5.270828   -5.451277   -3.459753
     24          8           0       -5.448017   -5.661521   -4.662726
     25          6           0       -5.339469   -6.672576   -2.600735
     26          7           0       -4.235054   -2.714176    1.437713
     27          6           0       -4.531005   -3.965052    0.995653
     28          6           0       -4.432283   -5.004264    2.150657
     29          6           0       -3.990440   -4.177141    3.318399
     30          6           0       -4.041709   -2.741255    2.767469
     31          6           0       -5.740950   -5.736830    2.551638
     32          6           0       -2.546863   -4.507280    3.768131
     33          6           0       -2.525017   -5.312478    4.965014
     34          7           0       -4.175824    0.099807    1.937597
     35          6           0       -3.879842   -0.251047    3.207779
     36          6           0       -3.572456    0.967351    4.067814
     37          6           0       -3.524771    1.999942    3.111544
     38          6           0       -3.900265    1.419957    1.804829
     39          6           0       -3.237313    1.054096    5.545444
     40          6           0       -3.280757    3.389629    2.943497
     41          8           0       -2.994703    4.314590    3.684862
     42          6           0       -3.438409    3.649364    1.378821
     43          6           0       -4.473783    4.669376    1.201193
     44          8           0       -5.652813    4.635478    1.603972
     45          8           0       -4.019729    5.682777    0.375789
     46          6           0       -5.120923    6.725303    0.157677
     47          6           0        2.036408    5.115556   -1.227010
     48          6           0        2.738467    3.769433   -0.953497
     49          6           0        3.822738    3.628031   -0.127675
     50          6           0        4.509766    4.852741    0.597671
     51          6           0        4.449215    2.255861    0.083847
     52          6           0        5.134095    1.446838   -1.056498
     53          6           0        4.492465    0.109682   -1.325379
     54          6           0        5.514083   -0.948958   -1.700398
     55          6           0        5.002088   -2.023640   -2.684363
     56          6           0        6.230691   -1.539278   -0.426675
     57          6           0        7.766889   -1.975080   -0.694616
     58          6           0        8.763469   -1.112218    0.075339
     59          6           0        9.782162   -1.905497    0.930908
     60          6           0        9.115130   -2.362077    2.245621
     61          6           0       11.094190   -1.170709    1.045906
     62          6           0       12.215116   -1.664283    0.142534
     63          6           0       13.159540   -0.588466   -0.315752
     64          6           0       14.604532   -1.240811   -0.291330
     65          6           0       15.561412   -0.534636   -1.208140
     66          6           0       15.136100   -1.153618    1.146619
     67          1           0       -4.595936   -0.041314   -4.232874
     68          1           0       -4.886314   -5.405741   -0.242097
     69          1           0       -3.776566   -1.976867    4.581668
     70          1           0       -4.153591    3.899163   -1.511383
     71          1           0       -3.819893    2.241745   -3.862529
     72          1           0       -6.499527    2.133422   -3.098753
     73          1           0       -5.721143    2.975886   -4.410762
     74          1           0       -5.947782    3.701044   -2.778820
     75          1           0       -1.894627    2.890710   -3.120172
     76          1           0       -1.489868    2.713304   -1.368136
     77          1           0       -2.411460    5.309169   -1.857992
     78          1           0       -1.227645    4.785737   -3.100231
     79          1           0       -5.647322   -2.800665   -5.685407
     80          1           0       -4.104493   -3.634692   -5.684076
     81          1           0       -4.141707   -1.835215   -5.528237
     82          1           0       -5.935660   -6.370679   -1.739063
     83          1           0       -4.350941   -6.995139   -2.274839
     84          1           0       -5.712814   -7.506529   -3.195786
     85          1           0       -3.638489   -5.721740    1.944005
     86          1           0       -4.658729   -4.257902    4.175417
     87          1           0       -6.284794   -6.008175    1.646920
     88          1           0       -6.256267   -5.102513    3.272980
     89          1           0       -5.404752   -6.658766    3.027177
     90          1           0       -1.985093   -3.610657    4.032650
     91          1           0       -1.965527   -5.105928    3.066566
     92          1           0       -3.396956   -5.196150    5.607287
     93          1           0       -1.726716   -5.046040    5.657061
     94          1           0       -2.417409   -6.360102    4.682347
     95          1           0       -3.787569    1.938821    5.864558
     96          1           0       -2.190430    1.345214    5.633449
     97          1           0       -3.620752    0.185687    6.082002
     98          1           0       -2.547770    4.114094    0.954658
     99          1           0       -4.706210    7.406863   -0.585780
    100          1           0       -5.484717    7.245518    1.043875
    101          1           0       -6.012002    6.285580   -0.291821
    102          1           0        1.963623    5.771647   -0.359560
    103          1           0        2.732882    5.614185   -1.900977
    104          1           0        2.266478    2.911344   -1.433653
    105          1           0        4.320434    4.696745    1.659622
    106          1           0        4.063701    5.779249    0.235049
    107          1           0        5.566390    4.759743    0.344478
    108          1           0        3.720800    1.657995    0.633152
    109          1           0        5.304305    2.477990    0.722111
    110          1           0        6.182544    1.222192   -0.860320
    111          1           0        5.048124    1.964362   -2.011059
    112          1           0        3.885599    0.208739   -2.225153
    113          1           0        3.809350   -0.134712   -0.511468
    114          1           0        6.186909   -0.315561   -2.277076
    115          1           0        5.097129   -1.763768   -3.738587
    116          1           0        3.970194   -2.304332   -2.471848
    117          1           0        5.571532   -2.940020   -2.524483
    118          1           0        5.774552   -2.455132   -0.051566
    119          1           0        6.175679   -0.767360    0.339966
    120          1           0        8.033705   -1.821616   -1.739992
    121          1           0        7.866457   -3.007129   -0.361014
    122          1           0        8.178518   -0.389829    0.645339
    123          1           0        9.213039   -0.519863   -0.720771
    124          1           0       10.014083   -2.841091    0.421162
    125          1           0        8.124625   -1.952024    2.441165
    126          1           0        9.640716   -1.913549    3.088877
    127          1           0        9.292969   -3.426192    2.403235
    128          1           0       11.300669   -1.239433    2.114175
    129          1           0       10.869934   -0.118779    0.869641
    130          1           0       11.809772   -2.118754   -0.761414
    131          1           0       12.676939   -2.478049    0.701802
    132          1           0       12.996423    0.297901    0.296507
    133          1           0       13.005886   -0.346169   -1.367770
    134          1           0       14.504953   -2.261048   -0.662859
    135          1           0       15.687891    0.471180   -0.808729
    136          1           0       15.097083   -0.385439   -2.182881
    137          1           0       16.454992   -1.151850   -1.304271
    138          1           0       15.999942   -0.500304    1.269055
    139          1           0       15.509084   -2.154408    1.360854
    140          1           0       14.278190   -0.924740    1.778085
 ---------------------------------------------------------------------

 SCF Done:  E(RZINDO/S) =  -474.358371532     A.U. after   19 cycles

 Excitation energies and oscillator strengths:

 Excited State   1:      Singlet-A      1.2721 eV  974.64 nm  f=0.5802  <S**2>=0.000
     175 ->178         0.18919
     176 ->177         0.66418
 This state for optimization and/or second-order correction.
 Total Energy, E(CIS/TDA) =  -474.311622858
 Copying the excited state density for this state as the 1-particle RhoCI density.

 Excited State   2:      Singlet-A      1.9150 eV  647.45 nm  f=0.0037  <S**2>=0.000
     175 ->177         0.49405
     176 ->178        -0.48221

 Excited State   3:      Singlet-A      2.8671 eV  432.44 nm  f=0.0456  <S**2>=0.000
     175 ->177        -0.10618
     176 ->178        -0.12543
     176 ->179         0.22506
     176 ->180         0.63798

 Excited State   4:      Singlet-A      2.9085 eV  426.29 nm  f=0.0071  <S**2>=0.000
     168 ->177         0.37677
     168 ->178        -0.14401
     168 ->179        -0.43448
     168 ->181         0.17721
     168 ->186        -0.18006
     168 ->187        -0.10004
     168 ->195         0.10608

 Excited State   5:      Singlet-A      2.9249 eV  423.89 nm  f=0.3783  <S**2>=0.000
     175 ->177         0.27836
     176 ->178         0.33280
     176 ->179         0.50902

 The electronic state is 1-A.
 Alpha  occ. eigenvalues --   -1.84089  -1.82051  -1.79370  -1.72649  -1.71343
 Alpha  occ. eigenvalues --   -1.70369  -1.66515  -1.62976  -1.58537  -1.58300
 Alpha  occ. eigenvalues --   -1.56838  -1.52515  -1.51432  -1.47895  -1.46929
 Alpha  occ. eigenvalues --   -1.44547  -1.41907  -1.40590  -1.39669  -1.37416
 Alpha  occ. eigenvalues --   -1.36180  -1.34247  -1.33107  -1.31509  -1.28501
 Alpha  occ. eigenvalues --   -1.28293  -1.25891  -1.22715  -1.20396  -1.18555
 Alpha  occ. eigenvalues --   -1.17452  -1.15402  -1.14580  -1.13792  -1.13505
 Alpha  occ. eigenvalues --   -1.12965  -1.10526  -1.09678  -1.05738  -1.04088
 Alpha  occ. eigenvalues --   -1.02834  -1.01278  -0.98460  -0.97720  -0.96566
 Alpha  occ. eigenvalues --   -0.95895  -0.94207  -0.93728  -0.92657  -0.92015
 Alpha  occ. eigenvalues --   -0.91818  -0.90714  -0.89418  -0.88023  -0.87328
 Alpha  occ. eigenvalues --   -0.86291  -0.84524  -0.83030  -0.82400  -0.81133
 Alpha  occ. eigenvalues --   -0.79341  -0.78778  -0.77086  -0.76880  -0.76215
 Alpha  occ. eigenvalues --   -0.75711  -0.75543  -0.74063  -0.73471  -0.73212
 Alpha  occ. eigenvalues --   -0.72795  -0.72658  -0.72521  -0.71969  -0.71440
 Alpha  occ. eigenvalues --   -0.70776  -0.70385  -0.69613  -0.69144  -0.68606
 Alpha  occ. eigenvalues --   -0.67466  -0.66996  -0.66260  -0.66012  -0.65562
 Alpha  occ. eigenvalues --   -0.65029  -0.64402  -0.63846  -0.63736  -0.63543
 Alpha  occ. eigenvalues --   -0.63019  -0.62773  -0.62186  -0.62122  -0.61254
 Alpha  occ. eigenvalues --   -0.60692  -0.60658  -0.59967  -0.59784  -0.59418
 Alpha  occ. eigenvalues --   -0.59229  -0.59033  -0.58992  -0.58331  -0.57988
 Alpha  occ. eigenvalues --   -0.57723  -0.57705  -0.57070  -0.56340  -0.56205
 Alpha  occ. eigenvalues --   -0.55614  -0.55340  -0.54454  -0.54411  -0.54286
 Alpha  occ. eigenvalues --   -0.54150  -0.53838  -0.53484  -0.53232  -0.52661
 Alpha  occ. eigenvalues --   -0.52339  -0.52237  -0.51771  -0.51716  -0.51523
 Alpha  occ. eigenvalues --   -0.51396  -0.51088  -0.50658  -0.50594  -0.50577
 Alpha  occ. eigenvalues --   -0.50175  -0.49915  -0.49642  -0.49548  -0.49278
 Alpha  occ. eigenvalues --   -0.48723  -0.48484  -0.48271  -0.47876  -0.47779
 Alpha  occ. eigenvalues --   -0.47574  -0.47046  -0.46689  -0.46485  -0.46336
 Alpha  occ. eigenvalues --   -0.46264  -0.45998  -0.45519  -0.45309  -0.45006
 Alpha  occ. eigenvalues --   -0.44881  -0.44550  -0.44268  -0.43818  -0.43753
 Alpha  occ. eigenvalues --   -0.43606  -0.43473  -0.42962  -0.42750  -0.42303
 Alpha  occ. eigenvalues --   -0.41685  -0.41585  -0.41034  -0.39082  -0.38705
 Alpha  occ. eigenvalues --   -0.38081  -0.37752  -0.35375  -0.34726  -0.34426
 Alpha  occ. eigenvalues --   -0.33638  -0.32804  -0.32380  -0.31797  -0.26903
 Alpha  occ. eigenvalues --   -0.21426
 Alpha virt. eigenvalues --   -0.08050  -0.02306  -0.00606   0.00844   0.01606
 Alpha virt. eigenvalues --    0.01946   0.02190   0.02886   0.04766   0.05119
 Alpha virt. eigenvalues --    0.06567   0.06879   0.07537   0.07899   0.08242

 Mulliken charges:
               1
     1  Mg   0.440734
     2  C   -0.042210
     3  C   -0.071911
     4  C   -0.087496
     5  C   -0.088339
     6  N   -0.276078
     7  C    0.140856
     8  C   -0.012266
     9  C    0.002207
    10  C    0.108439
    11  C   -0.047805
    12  C   -0.015333
    13  C    0.007709
    14  C    0.473881
    15  O   -0.515361
    16  O   -0.276275
    17  N   -0.304223
    18  C    0.072388
    19  C    0.016683
    20  C   -0.061255
    21  C    0.116027
    22  C   -0.042270
    23  C    0.327588
    24  O   -0.536343
    25  C   -0.027920
    26  N   -0.273644
    27  C    0.103344
    28  C    0.000183
    29  C    0.009075
    30  C    0.150900
    31  C   -0.053198
    32  C   -0.022588
    33  C   -0.051376
    34  N   -0.317775
    35  C    0.139348
    36  C    0.043441
    37  C   -0.042701
    38  C    0.120241
    39  C   -0.034442
    40  C    0.344042
    41  O   -0.502976
    42  C    0.051912
    43  C    0.492392
    44  O   -0.533615
    45  O   -0.270194
    46  C    0.073124
    47  C    0.103253
    48  C   -0.088513
    49  C   -0.021503
    50  C   -0.045597
    51  C   -0.024745
    52  C   -0.030172
    53  C   -0.031699
    54  C   -0.011227
    55  C   -0.056263
    56  C   -0.042054
    57  C   -0.048751
    58  C   -0.036792
    59  C   -0.007390
    60  C   -0.064210
    61  C   -0.034538
    62  C   -0.027891
    63  C   -0.036819
    64  C   -0.016229
    65  C   -0.057122
    66  C   -0.059369
    67  H    0.028300
    68  H    0.019339
    69  H    0.016826
    70  H    0.042531
    71  H    0.020747
    72  H    0.015895
    73  H    0.021470
    74  H    0.024641
    75  H    0.029121
    76  H    0.031383
    77  H    0.048638
    78  H    0.026426
    79  H    0.034980
    80  H    0.040602
    81  H    0.021254
    82  H    0.034465
    83  H    0.036913
    84  H    0.041581
    85  H    0.031169
    86  H    0.035690
    87  H    0.025048
    88  H    0.032481
    89  H    0.017023
    90  H    0.019141
    91  H    0.026772
    92  H    0.012172
    93  H    0.011593
    94  H    0.015099
    95  H    0.037488
    96  H    0.050018
    97  H    0.035000
    98  H    0.060735
    99  H    0.024277
   100  H    0.058096
   101  H    0.039656
   102  H    0.058882
   103  H    0.033390
   104  H    0.037836
   105  H    0.036637
   106  H    0.029310
   107  H    0.031118
   108  H    0.033773
   109  H    0.008195
   110  H    0.025337
   111  H    0.019870
   112  H    0.006586
   113  H    0.020022
   114  H    0.018296
   115  H    0.021687
   116  H    0.017449
   117  H    0.011383
   118  H    0.021313
   119  H    0.021968
   120  H    0.023857
   121  H    0.021449
   122  H    0.019357
   123  H    0.008945
   124  H    0.013999
   125  H    0.028821
   126  H    0.005193
   127  H    0.024564
   128  H    0.016266
   129  H    0.013352
   130  H    0.016206
   131  H    0.020174
   132  H    0.028920
   133  H    0.013863
   134  H    0.023301
   135  H    0.020375
   136  H    0.008252
   137  H    0.022015
   138  H    0.026585
   139  H    0.010387
   140  H    0.025205
 Sum of Mulliken charges =  -0.00000

 Dipole moment (field-independent basis, Debye):
    X=              2.9523    Y=             -1.5665    Z=              2.1170  Tot=              3.9562
 N-N= 4.409681632138D+03 E-N= 0.000000000000D+00  KE=-9.493846166356D+03
 Leave Link  601 at Thu May  5 05:52:28 2022, MaxMem=  6710886400 cpu:               1.8 elap:               0.1
 (Enter /sw/apps/gaussian-16.0/g16/l9999.exe)
 1\1\GINC-BP1-COMPUTE181\SP\RZINDO CIS\STO-3G\C55H74Mg1N4O6\OF15641\05-
 May-2022\0\\#p ZINDO=(nstates=5)\\step_601_chromophore_8 ZINDO\\0,1\Mg
 ,0,44.589,3.08,47.762\C,0,42.327,5.703,47.016\C,0,41.909,0.933,47.563\
 C,0,46.785,0.639,47.646\C,0,47.137,5.42,47.109\N,0,42.431,3.286,47.325
 \C,0,41.731,4.452,47.108\C,0,40.215,4.257,46.909\C,0,40.128,2.765,47.5
 82\C,0,41.537,2.292,47.475\C,0,39.403,2.782,48.919\C,0,39.742,4.223,45
 .416\C,0,38.665,5.155,45.001\C,0,39.045,6.052,43.837\O,0,39.722,7.058,

 Normal termination of Gaussian 16 at Thu May  5 05:52:28 2022.
