 Gaussian 16, Revision A.03,
 Gaussian 16:  ES64L-G16RevA.03 25-Dec-2016

 ------------------------------
 #p blyp/Def2SVP td=(nstates=5)
 ------------------------------

 --------------------------------------------------
 step_451_chromophore_21 TDDFT with blyp functional
 --------------------------------------------------
 Symbolic Z-matrix:
 Charge =  0 Multiplicity = 1

                         Standard orientation:
 ---------------------------------------------------------------------
 Center     Atomic      Atomic             Coordinates (Angstroms)
 Number     Number       Type             X           Y           Z
 ---------------------------------------------------------------------
      1         12           0        4.894012    1.374788    0.207513
      2          6           0        4.928464   -2.225503    0.355651
      3          6           0        1.691333    1.244399   -0.692554
      4          6           0        5.218365    4.675843   -0.102815
      5          6           0        8.407455    1.019505    0.476482
      6          7           0        3.567407   -0.322315   -0.199649
      7          6           0        3.714459   -1.643218    0.039864
      8          6           0        2.391642   -2.293933    0.129594
      9          6           0        1.390210   -1.364306   -0.639989
     10          6           0        2.266572   -0.052823   -0.494131
     11          6           0        0.947263   -1.733420   -2.047675
     12          6           0        1.991686   -2.493098    1.675183
     13          6           0        1.245218   -3.823715    2.037358
     14          6           0        0.380969   -4.448604    0.972032
     15          8           0        0.561160   -5.521778    0.377288
     16          8           0       -0.742496   -3.705569    0.708851
     17          7           0        3.570971    2.816508   -0.279323
     18          6           0        2.307347    2.578892   -0.645202
     19          6           0        1.607273    3.860684   -0.841610
     20          6           0        2.612725    4.905252   -0.764521
     21          6           0        3.828942    4.174217   -0.392257
     22          6           0        0.081459    3.832427   -1.160248
     23          6           0        2.501921    6.414909   -1.006693
     24          8           0        3.451839    7.179349   -0.903438
     25          6           0        1.223900    6.931780   -1.451413
     26          7           0        6.550340    2.615451    0.246412
     27          6           0        6.412762    3.975406    0.167314
     28          6           0        7.786100    4.694512    0.191317
     29          6           0        8.790736    3.470187    0.328593
     30          6           0        7.862056    2.305383    0.376318
     31          6           0        8.181458    5.562441   -1.009720
     32          6           0        9.778973    3.696731    1.564733
     33          6           0       11.215137    4.176930    1.197443
     34          7           0        6.461692   -0.205748    0.279334
     35          6           0        7.731792   -0.121510    0.549240
     36          6           0        8.372700   -1.391181    0.598313
     37          6           0        7.305075   -2.285130    0.582684
     38          6           0        6.164706   -1.521853    0.386103
     39          6           0        9.902602   -1.724286    0.743495
     40          6           0        6.926895   -3.611770    0.721972
     41          8           0        7.534935   -4.624420    0.926793
     42          6           0        5.367374   -3.611789    0.683585
     43          6           0        4.836487   -4.669641   -0.336936
     44          8           0        4.813291   -4.500964   -1.560925
     45          8           0        4.301580   -5.850822    0.197990
     46          6           0        3.558620   -6.666947   -0.656342
     47          6           0       -1.662180   -4.347563   -0.224099
     48          6           0       -2.862014   -3.475150   -0.601452
     49          6           0       -4.072166   -3.976745   -0.887475
     50          6           0       -4.385118   -5.464747   -1.180443
     51          6           0       -5.216573   -3.113159   -1.112476
     52          6           0       -6.437094   -3.418672   -0.213623
     53          6           0       -7.236632   -2.203071    0.367007
     54          6           0       -8.347693   -1.580085   -0.497982
     55          6           0       -7.850514   -0.311216   -1.313159
     56          6           0       -9.613957   -1.323254    0.306648
     57          6           0      -10.759299   -1.135944   -0.595179
     58          6           0      -11.060629    0.392632   -0.948710
     59          6           0      -12.517529    0.714002   -0.739559
     60          6           0      -13.483312   -0.002637   -1.784420
     61          6           0      -12.923432    2.233049   -0.670022
     62          6           0      -12.926144    2.764047    0.739151
     63          6           0      -14.071115    3.604864    1.001499
     64          6           0      -15.088242    2.871706    1.931516
     65          6           0      -16.520124    3.519255    1.742983
     66          6           0      -14.583724    3.001447    3.421291
     67          1           0        0.632020    1.162870   -0.947878
     68          1           0        5.496293    5.723902   -0.236525
     69          1           0        9.496443    1.011646    0.553291
     70          1           0        2.469545   -3.241641   -0.404711
     71          1           0        0.557298   -1.162777    0.034753
     72          1           0        1.135138   -0.900351   -2.724244
     73          1           0       -0.108194   -1.985612   -2.156154
     74          1           0        1.623304   -2.470292   -2.482178
     75          1           0        1.579371   -1.590337    2.126126
     76          1           0        2.966285   -2.612701    2.149357
     77          1           0        0.677467   -3.556647    2.928864
     78          1           0        1.815403   -4.702383    2.337871
     79          1           0       -0.285015    2.944031   -0.645030
     80          1           0       -0.140439    3.867317   -2.227188
     81          1           0       -0.376046    4.700724   -0.686065
     82          1           0        0.448126    6.899193   -0.687184
     83          1           0        0.954440    6.363790   -2.342262
     84          1           0        1.401146    7.911857   -1.893979
     85          1           0        7.757273    5.362551    1.051503
     86          1           0        9.359882    3.390003   -0.597693
     87          1           0        7.366549    5.743173   -1.710008
     88          1           0        9.054792    5.234113   -1.574058
     89          1           0        8.348730    6.553066   -0.585199
     90          1           0        9.683482    2.903202    2.305315
     91          1           0        9.431485    4.568206    2.120813
     92          1           0       11.278870    5.260612    1.096786
     93          1           0       11.420809    3.649421    0.265735
     94          1           0       12.028748    3.948618    1.885751
     95          1           0       10.004871   -2.807818    0.670562
     96          1           0       10.085615   -1.254957    1.710259
     97          1           0       10.419872   -1.218541   -0.071430
     98          1           0        5.045799   -3.986640    1.655466
     99          1           0        4.080759   -7.600367   -0.867765
    100          1           0        3.198661   -6.317472   -1.623335
    101          1           0        2.666455   -6.981136   -0.113452
    102          1           0       -1.976346   -5.326504    0.138205
    103          1           0       -1.244727   -4.477931   -1.223303
    104          1           0       -2.793359   -2.407615   -0.390831
    105          1           0       -5.107378   -5.615430   -1.982538
    106          1           0       -4.713651   -5.917157   -0.244938
    107          1           0       -3.601585   -6.119049   -1.563946
    108          1           0       -5.441782   -3.246113   -2.170129
    109          1           0       -4.912076   -2.070808   -1.019119
    110          1           0       -6.211456   -3.983911    0.690113
    111          1           0       -7.199059   -3.932270   -0.801198
    112          1           0       -6.452379   -1.469336    0.555732
    113          1           0       -7.676227   -2.612884    1.277083
    114          1           0       -8.585972   -2.277050   -1.302423
    115          1           0       -6.829690   -0.403190   -1.684992
    116          1           0       -7.918704    0.648523   -0.800647
    117          1           0       -8.505747   -0.242267   -2.181033
    118          1           0       -9.487187   -0.474599    0.978801
    119          1           0       -9.887541   -2.176413    0.926955
    120          1           0      -11.640841   -1.615561   -0.171146
    121          1           0      -10.477881   -1.644397   -1.518034
    122          1           0      -10.903539    0.633851   -2.000266
    123          1           0      -10.420130    1.035847   -0.345819
    124          1           0      -12.911044    0.322605    0.198147
    125          1           0      -14.268758   -0.559890   -1.273466
    126          1           0      -12.957661   -0.722970   -2.412826
    127          1           0      -13.962693    0.752981   -2.406079
    128          1           0      -13.877694    2.344766   -1.183859
    129          1           0      -12.201818    2.819700   -1.238483
    130          1           0      -11.981083    3.242720    0.996753
    131          1           0      -12.857915    1.998853    1.511577
    132          1           0      -14.569355    3.967958    0.101907
    133          1           0      -13.686039    4.482765    1.521837
    134          1           0      -15.238263    1.815803    1.708630
    135          1           0      -16.847366    4.229037    2.501665
    136          1           0      -17.229815    2.692984    1.711458
    137          1           0      -16.591339    4.025003    0.779915
    138          1           0      -14.911917    2.269617    4.159225
    139          1           0      -15.007275    3.872139    3.920601
    140          1           0      -13.510556    3.187288    3.470333
 ---------------------------------------------------------------------

 SCF Done:  E(RB-LYP) =  -3007.34965894     A.U. after   22 cycles

 Excitation energies and oscillator strengths:

 Excited State   1:      Singlet-A      1.8190 eV  681.62 nm  f=0.3073  <S**2>=0.000
     245 -> 248        0.17953
     246 -> 247        0.69273
     246 <- 247       -0.15756
 This state for optimization and/or second-order correction.
 Total Energy, E(TD-HF/TD-DFT) =  -3007.28281289
 Copying the excited state density for this state as the 1-particle RhoCI density.

 Excited State   2:      Singlet-A      1.9535 eV  634.69 nm  f=0.0465  <S**2>=0.000
     244 -> 247        0.50264
     245 -> 247        0.47188
     246 -> 248       -0.13225

 Excited State   3:      Singlet-A      2.0042 eV  618.63 nm  f=0.0001  <S**2>=0.000
     243 -> 247        0.70568

 Excited State   4:      Singlet-A      2.0461 eV  605.96 nm  f=0.0491  <S**2>=0.000
     244 -> 247        0.49339
     245 -> 247       -0.45841
     246 -> 248        0.17912

 Excited State   5:      Singlet-A      2.3493 eV  527.76 nm  f=0.0001  <S**2>=0.000
     242 -> 247        0.70703

 The electronic state is 1-A.
 Alpha  occ. eigenvalues --  -46.27405 -18.82930 -18.81018 -18.77555 -18.75833
 Alpha  occ. eigenvalues --  -18.75635 -18.75396 -14.03422 -14.03306 -14.01579
 Alpha  occ. eigenvalues --  -14.00072 -10.04836 -10.03538  -9.99826  -9.98810
 Alpha  occ. eigenvalues --   -9.97997  -9.96810  -9.96743  -9.96269  -9.96251
 Alpha  occ. eigenvalues --   -9.96111  -9.95987  -9.95118  -9.94912  -9.94645
 Alpha  occ. eigenvalues --   -9.94283  -9.94122  -9.94086  -9.94018  -9.93985
 Alpha  occ. eigenvalues --   -9.93856  -9.93811  -9.93718  -9.93503  -9.93381
 Alpha  occ. eigenvalues --   -9.93326  -9.93238  -9.93214  -9.93141  -9.93029
 Alpha  occ. eigenvalues --   -9.92976  -9.92953  -9.92654  -9.92599  -9.92310
 Alpha  occ. eigenvalues --   -9.92293  -9.92291  -9.92075  -9.92019  -9.92005
 Alpha  occ. eigenvalues --   -9.91872  -9.91806  -9.91544  -9.91428  -9.91426
 Alpha  occ. eigenvalues --   -9.91329  -9.91299  -9.91045  -9.91024  -9.90926
 Alpha  occ. eigenvalues --   -9.90691  -9.90682  -9.90647  -9.90477  -9.90207
 Alpha  occ. eigenvalues --   -9.89985  -2.92090  -1.72514  -1.71938  -1.71835
 Alpha  occ. eigenvalues --   -0.98550  -0.96632  -0.92461  -0.91642  -0.89657
 Alpha  occ. eigenvalues --   -0.88451  -0.88194  -0.86672  -0.86131  -0.85383
 Alpha  occ. eigenvalues --   -0.76487  -0.74435  -0.73687  -0.72988  -0.72759
 Alpha  occ. eigenvalues --   -0.72085  -0.71380  -0.70917  -0.70572  -0.69931
 Alpha  occ. eigenvalues --   -0.69702  -0.69482  -0.68369  -0.67513  -0.67070
 Alpha  occ. eigenvalues --   -0.66471  -0.66135  -0.65521  -0.65191  -0.64053
 Alpha  occ. eigenvalues --   -0.63712  -0.62975  -0.62476  -0.61897  -0.61342
 Alpha  occ. eigenvalues --   -0.60446  -0.60092  -0.60012  -0.59631  -0.59014
 Alpha  occ. eigenvalues --   -0.58780  -0.57874  -0.56729  -0.56260  -0.54852
 Alpha  occ. eigenvalues --   -0.54438  -0.54302  -0.52722  -0.52363  -0.51871
 Alpha  occ. eigenvalues --   -0.51584  -0.50967  -0.50573  -0.50376  -0.50174
 Alpha  occ. eigenvalues --   -0.49898  -0.49630  -0.48738  -0.48316  -0.47002
 Alpha  occ. eigenvalues --   -0.46265  -0.46158  -0.45472  -0.45167  -0.44427
 Alpha  occ. eigenvalues --   -0.44025  -0.43483  -0.42873  -0.42602  -0.42045
 Alpha  occ. eigenvalues --   -0.41961  -0.41778  -0.41753  -0.41410  -0.41130
 Alpha  occ. eigenvalues --   -0.40806  -0.40600  -0.40472  -0.40384  -0.40268
 Alpha  occ. eigenvalues --   -0.40032  -0.39791  -0.39429  -0.39384  -0.39182
 Alpha  occ. eigenvalues --   -0.39061  -0.38851  -0.38741  -0.38591  -0.38552
 Alpha  occ. eigenvalues --   -0.38247  -0.37950  -0.37869  -0.37459  -0.37381
 Alpha  occ. eigenvalues --   -0.37187  -0.37062  -0.36730  -0.36696  -0.36542
 Alpha  occ. eigenvalues --   -0.36311  -0.36146  -0.35892  -0.35685  -0.35649
 Alpha  occ. eigenvalues --   -0.35510  -0.35334  -0.35124  -0.35032  -0.34890
 Alpha  occ. eigenvalues --   -0.34824  -0.34549  -0.34298  -0.34141  -0.34059
 Alpha  occ. eigenvalues --   -0.33913  -0.33369  -0.33273  -0.33065  -0.32908
 Alpha  occ. eigenvalues --   -0.32692  -0.32622  -0.32473  -0.32350  -0.32285
 Alpha  occ. eigenvalues --   -0.31935  -0.31906  -0.31821  -0.31728  -0.31605
 Alpha  occ. eigenvalues --   -0.31502  -0.31369  -0.31175  -0.31134  -0.30945
 Alpha  occ. eigenvalues --   -0.30631  -0.30429  -0.30349  -0.30218  -0.29969
 Alpha  occ. eigenvalues --   -0.29789  -0.29408  -0.29222  -0.29194  -0.29019
 Alpha  occ. eigenvalues --   -0.28669  -0.28234  -0.28182  -0.28077  -0.28048
 Alpha  occ. eigenvalues --   -0.27707  -0.27333  -0.27272  -0.27090  -0.26553
 Alpha  occ. eigenvalues --   -0.26407  -0.26308  -0.26215  -0.26102  -0.25482
 Alpha  occ. eigenvalues --   -0.25283  -0.24505  -0.23829  -0.23782  -0.23465
 Alpha  occ. eigenvalues --   -0.23159  -0.22466  -0.22004  -0.21102  -0.20801
 Alpha  occ. eigenvalues --   -0.20602  -0.20260  -0.18927  -0.18843  -0.17219
 Alpha  occ. eigenvalues --   -0.15834
 Alpha virt. eigenvalues --   -0.11627  -0.06704  -0.06020  -0.04645  -0.04187
 Alpha virt. eigenvalues --   -0.03090  -0.02488  -0.01867  -0.01366   0.00074
 Alpha virt. eigenvalues --    0.01276   0.01609   0.02552   0.02834   0.02971

 Mulliken charges:
               1
     1  Mg   0.705849
     2  C    0.070169
     3  C   -0.046308
     4  C   -0.012660
     5  C   -0.145225
     6  N   -0.192180
     7  C   -0.086490
     8  C   -0.047095
     9  C    0.021097
    10  C   -0.030481
    11  C    0.166787
    12  C    0.130545
    13  C    0.172252
    14  C    0.076285
    15  O   -0.206052
    16  O   -0.271386
    17  N   -0.307607
    18  C    0.138523
    19  C   -0.171285
    20  C    0.027440
    21  C    0.093150
    22  C    0.157761
    23  C   -0.084583
    24  O   -0.155389
    25  C    0.144317
    26  N   -0.230580
    27  C    0.001790
    28  C    0.000273
    29  C    0.033954
    30  C    0.018020
    31  C    0.121345
    32  C    0.095024
    33  C    0.048877
    34  N   -0.157422
    35  C    0.182180
    36  C   -0.257611
    37  C    0.172585
    38  C   -0.013523
    39  C    0.189340
    40  C   -0.105382
    41  O   -0.099572
    42  C    0.064300
    43  C    0.103152
    44  O   -0.199121
    45  O   -0.253396
    46  C    0.210970
    47  C    0.298749
    48  C   -0.104617
    49  C   -0.155059
    50  C    0.124180
    51  C    0.173428
    52  C    0.052631
    53  C    0.115702
    54  C   -0.077176
    55  C    0.089170
    56  C    0.117404
    57  C    0.088677
    58  C    0.127023
    59  C   -0.110665
    60  C    0.082835
    61  C    0.136446
    62  C    0.086207
    63  C    0.111771
    64  C   -0.078334
    65  C    0.092721
    66  C    0.090291
    67  H   -0.061381
    68  H   -0.046591
    69  H   -0.070775
    70  H   -0.005388
    71  H   -0.029844
    72  H   -0.022930
    73  H    0.007042
    74  H   -0.000547
    75  H   -0.009095
    76  H   -0.019993
    77  H   -0.005868
    78  H    0.005869
    79  H    0.002183
    80  H    0.019093
    81  H   -0.016934
    82  H    0.028633
    83  H   -0.002448
    84  H   -0.013311
    85  H   -0.009562
    86  H   -0.013066
    87  H   -0.002844
    88  H   -0.002731
    89  H   -0.015900
    90  H   -0.019594
    91  H   -0.030240
    92  H    0.000463
    93  H   -0.008963
    94  H   -0.007786
    95  H    0.020602
    96  H    0.014031
    97  H    0.006950
    98  H   -0.007436
    99  H   -0.010417
   100  H    0.008295
   101  H    0.005965
   102  H    0.003231
   103  H    0.007167
   104  H   -0.038390
   105  H   -0.009076
   106  H    0.006617
   107  H   -0.008852
   108  H   -0.022379
   109  H   -0.042848
   110  H   -0.019851
   111  H   -0.032618
   112  H   -0.036295
   113  H   -0.039519
   114  H   -0.043068
   115  H   -0.014773
   116  H   -0.013522
   117  H   -0.017325
   118  H   -0.031702
   119  H   -0.044994
   120  H   -0.030547
   121  H   -0.037873
   122  H   -0.030362
   123  H   -0.033285
   124  H   -0.041047
   125  H   -0.017967
   126  H   -0.020916
   127  H   -0.016288
   128  H   -0.036609
   129  H   -0.040601
   130  H   -0.053334
   131  H   -0.040541
   132  H   -0.032680
   133  H   -0.043939
   134  H   -0.024236
   135  H   -0.012263
   136  H   -0.021135
   137  H   -0.023210
   138  H   -0.018710
   139  H   -0.031498
   140  H   -0.014268
 Sum of Mulliken charges =  -0.00000

 Dipole moment (field-independent basis, Debye):
    X=             -4.5024    Y=              2.8510    Z=              1.8906  Tot=              5.6546
 Quadrupole moment (field-independent basis, Debye-Ang):
   XX=           -393.3311   YY=           -443.3936   ZZ=           -400.7814
   XY=             43.5062   XZ=             12.6933   YZ=              0.7802

 Normal termination of Gaussian 16 at Wed May  4 22:28:31 2022.
