 Gaussian 16, Revision A.03,
 Gaussian 16:  ES64L-G16RevA.03 25-Dec-2016

 -----------------------------------
 #p cam-b3lyp/Def2SVP td=(nstates=5)
 -----------------------------------

 -------------------------------------------------------
 step_451_chromophore_21 TDDFT with cam-b3lyp functional
 -------------------------------------------------------
 Symbolic Z-matrix:
 Charge =  0 Multiplicity = 1

                         Standard orientation:
 ---------------------------------------------------------------------
 Center     Atomic      Atomic             Coordinates (Angstroms)
 Number     Number       Type             X           Y           Z
 ---------------------------------------------------------------------
      1         12           0        4.894012    1.374788    0.207513
      2          6           0        4.928464   -2.225503    0.355651
      3          6           0        1.691333    1.244399   -0.692554
      4          6           0        5.218365    4.675843   -0.102815
      5          6           0        8.407455    1.019505    0.476482
      6          7           0        3.567407   -0.322315   -0.199649
      7          6           0        3.714459   -1.643218    0.039864
      8          6           0        2.391642   -2.293933    0.129594
      9          6           0        1.390210   -1.364306   -0.639989
     10          6           0        2.266572   -0.052823   -0.494131
     11          6           0        0.947263   -1.733420   -2.047675
     12          6           0        1.991686   -2.493098    1.675183
     13          6           0        1.245218   -3.823715    2.037358
     14          6           0        0.380969   -4.448604    0.972032
     15          8           0        0.561160   -5.521778    0.377288
     16          8           0       -0.742496   -3.705569    0.708851
     17          7           0        3.570971    2.816508   -0.279323
     18          6           0        2.307347    2.578892   -0.645202
     19          6           0        1.607273    3.860684   -0.841610
     20          6           0        2.612725    4.905252   -0.764521
     21          6           0        3.828942    4.174217   -0.392257
     22          6           0        0.081459    3.832427   -1.160248
     23          6           0        2.501921    6.414909   -1.006693
     24          8           0        3.451839    7.179349   -0.903438
     25          6           0        1.223900    6.931780   -1.451413
     26          7           0        6.550340    2.615451    0.246412
     27          6           0        6.412762    3.975406    0.167314
     28          6           0        7.786100    4.694512    0.191317
     29          6           0        8.790736    3.470187    0.328593
     30          6           0        7.862056    2.305383    0.376318
     31          6           0        8.181458    5.562441   -1.009720
     32          6           0        9.778973    3.696731    1.564733
     33          6           0       11.215137    4.176930    1.197443
     34          7           0        6.461692   -0.205748    0.279334
     35          6           0        7.731792   -0.121510    0.549240
     36          6           0        8.372700   -1.391181    0.598313
     37          6           0        7.305075   -2.285130    0.582684
     38          6           0        6.164706   -1.521853    0.386103
     39          6           0        9.902602   -1.724286    0.743495
     40          6           0        6.926895   -3.611770    0.721972
     41          8           0        7.534935   -4.624420    0.926793
     42          6           0        5.367374   -3.611789    0.683585
     43          6           0        4.836487   -4.669641   -0.336936
     44          8           0        4.813291   -4.500964   -1.560925
     45          8           0        4.301580   -5.850822    0.197990
     46          6           0        3.558620   -6.666947   -0.656342
     47          6           0       -1.662180   -4.347563   -0.224099
     48          6           0       -2.862014   -3.475150   -0.601452
     49          6           0       -4.072166   -3.976745   -0.887475
     50          6           0       -4.385118   -5.464747   -1.180443
     51          6           0       -5.216573   -3.113159   -1.112476
     52          6           0       -6.437094   -3.418672   -0.213623
     53          6           0       -7.236632   -2.203071    0.367007
     54          6           0       -8.347693   -1.580085   -0.497982
     55          6           0       -7.850514   -0.311216   -1.313159
     56          6           0       -9.613957   -1.323254    0.306648
     57          6           0      -10.759299   -1.135944   -0.595179
     58          6           0      -11.060629    0.392632   -0.948710
     59          6           0      -12.517529    0.714002   -0.739559
     60          6           0      -13.483312   -0.002637   -1.784420
     61          6           0      -12.923432    2.233049   -0.670022
     62          6           0      -12.926144    2.764047    0.739151
     63          6           0      -14.071115    3.604864    1.001499
     64          6           0      -15.088242    2.871706    1.931516
     65          6           0      -16.520124    3.519255    1.742983
     66          6           0      -14.583724    3.001447    3.421291
     67          1           0        0.632020    1.162870   -0.947878
     68          1           0        5.496293    5.723902   -0.236525
     69          1           0        9.496443    1.011646    0.553291
     70          1           0        2.469545   -3.241641   -0.404711
     71          1           0        0.557298   -1.162777    0.034753
     72          1           0        1.135138   -0.900351   -2.724244
     73          1           0       -0.108194   -1.985612   -2.156154
     74          1           0        1.623304   -2.470292   -2.482178
     75          1           0        1.579371   -1.590337    2.126126
     76          1           0        2.966285   -2.612701    2.149357
     77          1           0        0.677467   -3.556647    2.928864
     78          1           0        1.815403   -4.702383    2.337871
     79          1           0       -0.285015    2.944031   -0.645030
     80          1           0       -0.140439    3.867317   -2.227188
     81          1           0       -0.376046    4.700724   -0.686065
     82          1           0        0.448126    6.899193   -0.687184
     83          1           0        0.954440    6.363790   -2.342262
     84          1           0        1.401146    7.911857   -1.893979
     85          1           0        7.757273    5.362551    1.051503
     86          1           0        9.359882    3.390003   -0.597693
     87          1           0        7.366549    5.743173   -1.710008
     88          1           0        9.054792    5.234113   -1.574058
     89          1           0        8.348730    6.553066   -0.585199
     90          1           0        9.683482    2.903202    2.305315
     91          1           0        9.431485    4.568206    2.120813
     92          1           0       11.278870    5.260612    1.096786
     93          1           0       11.420809    3.649421    0.265735
     94          1           0       12.028748    3.948618    1.885751
     95          1           0       10.004871   -2.807818    0.670562
     96          1           0       10.085615   -1.254957    1.710259
     97          1           0       10.419872   -1.218541   -0.071430
     98          1           0        5.045799   -3.986640    1.655466
     99          1           0        4.080759   -7.600367   -0.867765
    100          1           0        3.198661   -6.317472   -1.623335
    101          1           0        2.666455   -6.981136   -0.113452
    102          1           0       -1.976346   -5.326504    0.138205
    103          1           0       -1.244727   -4.477931   -1.223303
    104          1           0       -2.793359   -2.407615   -0.390831
    105          1           0       -5.107378   -5.615430   -1.982538
    106          1           0       -4.713651   -5.917157   -0.244938
    107          1           0       -3.601585   -6.119049   -1.563946
    108          1           0       -5.441782   -3.246113   -2.170129
    109          1           0       -4.912076   -2.070808   -1.019119
    110          1           0       -6.211456   -3.983911    0.690113
    111          1           0       -7.199059   -3.932270   -0.801198
    112          1           0       -6.452379   -1.469336    0.555732
    113          1           0       -7.676227   -2.612884    1.277083
    114          1           0       -8.585972   -2.277050   -1.302423
    115          1           0       -6.829690   -0.403190   -1.684992
    116          1           0       -7.918704    0.648523   -0.800647
    117          1           0       -8.505747   -0.242267   -2.181033
    118          1           0       -9.487187   -0.474599    0.978801
    119          1           0       -9.887541   -2.176413    0.926955
    120          1           0      -11.640841   -1.615561   -0.171146
    121          1           0      -10.477881   -1.644397   -1.518034
    122          1           0      -10.903539    0.633851   -2.000266
    123          1           0      -10.420130    1.035847   -0.345819
    124          1           0      -12.911044    0.322605    0.198147
    125          1           0      -14.268758   -0.559890   -1.273466
    126          1           0      -12.957661   -0.722970   -2.412826
    127          1           0      -13.962693    0.752981   -2.406079
    128          1           0      -13.877694    2.344766   -1.183859
    129          1           0      -12.201818    2.819700   -1.238483
    130          1           0      -11.981083    3.242720    0.996753
    131          1           0      -12.857915    1.998853    1.511577
    132          1           0      -14.569355    3.967958    0.101907
    133          1           0      -13.686039    4.482765    1.521837
    134          1           0      -15.238263    1.815803    1.708630
    135          1           0      -16.847366    4.229037    2.501665
    136          1           0      -17.229815    2.692984    1.711458
    137          1           0      -16.591339    4.025003    0.779915
    138          1           0      -14.911917    2.269617    4.159225
    139          1           0      -15.007275    3.872139    3.920601
    140          1           0      -13.510556    3.187288    3.470333
 ---------------------------------------------------------------------

 SCF Done:  E(RCAM-B3LYP) =  -3007.15012165     A.U. after   19 cycles

 Excitation energies and oscillator strengths:

 Excited State   1:      Singlet-A      1.7057 eV  726.89 nm  f=0.3935  <S**2>=0.000
     245 -> 248       -0.17227
     246 -> 247        0.68700
     245 <- 248       -0.10617
 This state for optimization and/or second-order correction.
 Total Energy, E(TD-HF/TD-DFT) =  -3007.08743943
 Copying the excited state density for this state as the 1-particle RhoCI density.

 Excited State   2:      Singlet-A      2.2016 eV  563.15 nm  f=0.1373  <S**2>=0.000
     245 -> 247        0.64822
     246 -> 248        0.27015

 Excited State   3:      Singlet-A      3.4264 eV  361.85 nm  f=0.0076  <S**2>=0.000
     242 -> 247       -0.34649
     243 -> 247        0.52226
     244 -> 247       -0.26004
     246 -> 248        0.10491

 Excited State   4:      Singlet-A      3.5301 eV  351.22 nm  f=0.2061  <S**2>=0.000
     239 -> 247       -0.25289
     239 -> 249        0.12894
     241 -> 247       -0.24862
     241 -> 249        0.12129
     242 -> 247       -0.20255
     243 -> 247       -0.24876
     244 -> 247        0.12044
     245 -> 247       -0.15386
     246 -> 248        0.41532

 Excited State   5:      Singlet-A      3.5682 eV  347.47 nm  f=0.1115  <S**2>=0.000
     239 -> 247        0.29296
     239 -> 249       -0.16481
     239 -> 251        0.10094
     241 -> 247        0.37685
     241 -> 249       -0.15596
     242 -> 247       -0.24436
     245 -> 247       -0.11270
     246 -> 248        0.32288

 The electronic state is 1-A.
 Alpha  occ. eigenvalues --  -46.88971 -19.25782 -19.23915 -19.20557 -19.19074
 Alpha  occ. eigenvalues --  -19.18865 -19.18670 -14.42283 -14.42227 -14.39930
 Alpha  occ. eigenvalues --  -14.38582 -10.40165 -10.39218 -10.34782 -10.34323
 Alpha  occ. eigenvalues --  -10.31994 -10.31100 -10.30983 -10.30950 -10.30745
 Alpha  occ. eigenvalues --  -10.30512 -10.29996 -10.28953 -10.28902 -10.28774
 Alpha  occ. eigenvalues --  -10.28649 -10.28593 -10.28552 -10.28311 -10.28228
 Alpha  occ. eigenvalues --  -10.28131 -10.28063 -10.27866 -10.27614 -10.27548
 Alpha  occ. eigenvalues --  -10.27498 -10.27388 -10.27130 -10.27110 -10.27106
 Alpha  occ. eigenvalues --  -10.27072 -10.26991 -10.26407 -10.26285 -10.26022
 Alpha  occ. eigenvalues --  -10.26017 -10.25993 -10.25885 -10.25785 -10.25744
 Alpha  occ. eigenvalues --  -10.25655 -10.25639 -10.25480 -10.25174 -10.25073
 Alpha  occ. eigenvalues --  -10.24991 -10.24977 -10.24698 -10.24636 -10.24554
 Alpha  occ. eigenvalues --  -10.24491 -10.24334 -10.24307 -10.24258 -10.24066
 Alpha  occ. eigenvalues --  -10.23534  -3.17559  -1.92458  -1.91988  -1.91889
 Alpha  occ. eigenvalues --   -1.16970  -1.15169  -1.11206  -1.09878  -1.07468
 Alpha  occ. eigenvalues --   -1.06480  -1.06200  -1.04385  -1.03804  -1.02729
 Alpha  occ. eigenvalues --   -0.93925  -0.91349  -0.90528  -0.89748  -0.89512
 Alpha  occ. eigenvalues --   -0.88799  -0.88057  -0.87651  -0.87120  -0.86484
 Alpha  occ. eigenvalues --   -0.86211  -0.85849  -0.84629  -0.83767  -0.83228
 Alpha  occ. eigenvalues --   -0.82535  -0.82191  -0.81505  -0.81107  -0.79801
 Alpha  occ. eigenvalues --   -0.79427  -0.78698  -0.78061  -0.77394  -0.76747
 Alpha  occ. eigenvalues --   -0.75882  -0.75434  -0.75336  -0.74934  -0.74248
 Alpha  occ. eigenvalues --   -0.73841  -0.73015  -0.71597  -0.71156  -0.69622
 Alpha  occ. eigenvalues --   -0.69090  -0.68858  -0.67102  -0.66750  -0.66035
 Alpha  occ. eigenvalues --   -0.65751  -0.65081  -0.64555  -0.64398  -0.64058
 Alpha  occ. eigenvalues --   -0.63895  -0.63566  -0.62649  -0.62091  -0.60588
 Alpha  occ. eigenvalues --   -0.59871  -0.59754  -0.58946  -0.58539  -0.57854
 Alpha  occ. eigenvalues --   -0.57700  -0.56805  -0.56052  -0.55773  -0.55250
 Alpha  occ. eigenvalues --   -0.55142  -0.55017  -0.54740  -0.54298  -0.53965
 Alpha  occ. eigenvalues --   -0.53743  -0.53294  -0.53168  -0.53082  -0.52926
 Alpha  occ. eigenvalues --   -0.52806  -0.52698  -0.52275  -0.52027  -0.51853
 Alpha  occ. eigenvalues --   -0.51801  -0.51590  -0.51499  -0.51169  -0.50848
 Alpha  occ. eigenvalues --   -0.50483  -0.50231  -0.50146  -0.49832  -0.49728
 Alpha  occ. eigenvalues --   -0.49545  -0.49425  -0.49239  -0.49042  -0.48805
 Alpha  occ. eigenvalues --   -0.48783  -0.48426  -0.48314  -0.47974  -0.47883
 Alpha  occ. eigenvalues --   -0.47517  -0.47369  -0.47261  -0.47156  -0.46847
 Alpha  occ. eigenvalues --   -0.46720  -0.46335  -0.46259  -0.46097  -0.45844
 Alpha  occ. eigenvalues --   -0.45578  -0.45103  -0.45055  -0.44666  -0.44639
 Alpha  occ. eigenvalues --   -0.44379  -0.44279  -0.44156  -0.44080  -0.43904
 Alpha  occ. eigenvalues --   -0.43474  -0.43347  -0.43320  -0.43225  -0.43152
 Alpha  occ. eigenvalues --   -0.43102  -0.42991  -0.42560  -0.42514  -0.42396
 Alpha  occ. eigenvalues --   -0.42204  -0.41978  -0.41698  -0.41431  -0.41229
 Alpha  occ. eigenvalues --   -0.41048  -0.40661  -0.40397  -0.40259  -0.40174
 Alpha  occ. eigenvalues --   -0.39997  -0.39758  -0.39449  -0.39136  -0.38975
 Alpha  occ. eigenvalues --   -0.38562  -0.38420  -0.38145  -0.37838  -0.37662
 Alpha  occ. eigenvalues --   -0.37485  -0.37162  -0.36965  -0.36787  -0.36215
 Alpha  occ. eigenvalues --   -0.35842  -0.34993  -0.34978  -0.34506  -0.34371
 Alpha  occ. eigenvalues --   -0.34243  -0.33430  -0.32973  -0.31410  -0.31184
 Alpha  occ. eigenvalues --   -0.30970  -0.30482  -0.29914  -0.29892  -0.23993
 Alpha  occ. eigenvalues --   -0.21183
 Alpha virt. eigenvalues --   -0.08854  -0.01397   0.00453   0.01981   0.02327
 Alpha virt. eigenvalues --    0.03609   0.05024   0.05494   0.05731   0.06705
 Alpha virt. eigenvalues --    0.07916   0.08460   0.09020   0.09115   0.09211

 Mulliken charges:
               1
     1  Mg   0.838529
     2  C    0.031698
     3  C   -0.061265
     4  C   -0.025013
     5  C   -0.144950
     6  N   -0.264684
     7  C   -0.032122
     8  C   -0.104820
     9  C   -0.027073
    10  C   -0.014640
    11  C    0.106517
    12  C    0.081245
    13  C    0.105769
    14  C    0.149836
    15  O   -0.248397
    16  O   -0.332743
    17  N   -0.394725
    18  C    0.142756
    19  C   -0.178569
    20  C   -0.043155
    21  C    0.110966
    22  C    0.107683
    23  C    0.000203
    24  O   -0.197383
    25  C    0.055677
    26  N   -0.305366
    27  C    0.018707
    28  C   -0.048145
    29  C   -0.028802
    30  C    0.041877
    31  C    0.059795
    32  C    0.034257
    33  C   -0.006899
    34  N   -0.243878
    35  C    0.178763
    36  C   -0.228449
    37  C    0.075454
    38  C    0.025652
    39  C    0.140472
    40  C   -0.003231
    41  O   -0.137072
    42  C   -0.004250
    43  C    0.191755
    44  O   -0.234942
    45  O   -0.316795
    46  C    0.169516
    47  C    0.264488
    48  C   -0.120864
    49  C   -0.169968
    50  C    0.057574
    51  C    0.107711
    52  C   -0.002642
    53  C    0.062501
    54  C   -0.132762
    55  C    0.035236
    56  C    0.059172
    57  C    0.030264
    58  C    0.077698
    59  C   -0.164536
    60  C    0.026490
    61  C    0.081548
    62  C    0.031157
    63  C    0.048139
    64  C   -0.137454
    65  C    0.036568
    66  C    0.031683
    67  H   -0.027510
    68  H   -0.008132
    69  H   -0.033057
    70  H    0.026628
    71  H    0.006780
    72  H    0.005436
    73  H    0.028367
    74  H    0.024377
    75  H    0.022594
    76  H    0.010040
    77  H    0.029534
    78  H    0.037460
    79  H    0.026327
    80  H    0.043053
    81  H    0.007492
    82  H    0.054792
    83  H    0.025836
    84  H    0.021943
    85  H    0.023936
    86  H    0.021085
    87  H    0.023783
    88  H    0.020641
    89  H    0.008851
    90  H    0.010398
    91  H   -0.000226
    92  H    0.022534
    93  H    0.010994
    94  H    0.017735
    95  H    0.049080
    96  H    0.039035
    97  H    0.032636
    98  H    0.034798
    99  H    0.011745
   100  H    0.033736
   101  H    0.029042
   102  H    0.031041
   103  H    0.033215
   104  H   -0.004246
   105  H    0.017328
   106  H    0.031254
   107  H    0.017252
   108  H    0.007348
   109  H   -0.014221
   110  H    0.008863
   111  H   -0.005001
   112  H   -0.008365
   113  H   -0.008453
   114  H   -0.011779
   115  H    0.008213
   116  H    0.009533
   117  H    0.005585
   118  H   -0.003281
   119  H   -0.012762
   120  H   -0.000772
   121  H   -0.009444
   122  H   -0.003342
   123  H   -0.007544
   124  H   -0.010194
   125  H    0.006251
   126  H    0.002886
   127  H    0.007049
   128  H   -0.007248
   129  H   -0.010756
   130  H   -0.021894
   131  H   -0.012058
   132  H   -0.003631
   133  H   -0.012104
   134  H    0.005307
   135  H    0.010816
   136  H    0.002907
   137  H    0.000673
   138  H    0.006898
   139  H   -0.006963
   140  H    0.008112
 Sum of Mulliken charges =  -0.00000

 Dipole moment (field-independent basis, Debye):
    X=             -4.3213    Y=              2.8301    Z=              2.0672  Tot=              5.5639
 Quadrupole moment (field-independent basis, Debye-Ang):
   XX=           -386.6463   YY=           -442.8058   ZZ=           -400.3283
   XY=             42.7947   XZ=             14.2973   YZ=              0.1904

 Normal termination of Gaussian 16 at Wed May  4 21:22:36 2022.
