 Gaussian 16, Revision A.03,
 Gaussian 16:  ES64L-G16RevA.03 25-Dec-2016

 ---------------------------------
 #p PBE1PBE/Def2SVP td=(nstates=5)
 ---------------------------------

 -----------------------------------------------------
 step_451_chromophore_21 TDDFT with PBE1PBE functional
 -----------------------------------------------------
 Symbolic Z-matrix:
 Charge =  0 Multiplicity = 1

                         Standard orientation:
 ---------------------------------------------------------------------
 Center     Atomic      Atomic             Coordinates (Angstroms)
 Number     Number       Type             X           Y           Z
 ---------------------------------------------------------------------
      1         12           0        4.894012    1.374788    0.207513
      2          6           0        4.928464   -2.225503    0.355651
      3          6           0        1.691333    1.244399   -0.692554
      4          6           0        5.218365    4.675843   -0.102815
      5          6           0        8.407455    1.019505    0.476482
      6          7           0        3.567407   -0.322315   -0.199649
      7          6           0        3.714459   -1.643218    0.039864
      8          6           0        2.391642   -2.293933    0.129594
      9          6           0        1.390210   -1.364306   -0.639989
     10          6           0        2.266572   -0.052823   -0.494131
     11          6           0        0.947263   -1.733420   -2.047675
     12          6           0        1.991686   -2.493098    1.675183
     13          6           0        1.245218   -3.823715    2.037358
     14          6           0        0.380969   -4.448604    0.972032
     15          8           0        0.561160   -5.521778    0.377288
     16          8           0       -0.742496   -3.705569    0.708851
     17          7           0        3.570971    2.816508   -0.279323
     18          6           0        2.307347    2.578892   -0.645202
     19          6           0        1.607273    3.860684   -0.841610
     20          6           0        2.612725    4.905252   -0.764521
     21          6           0        3.828942    4.174217   -0.392257
     22          6           0        0.081459    3.832427   -1.160248
     23          6           0        2.501921    6.414909   -1.006693
     24          8           0        3.451839    7.179349   -0.903438
     25          6           0        1.223900    6.931780   -1.451413
     26          7           0        6.550340    2.615451    0.246412
     27          6           0        6.412762    3.975406    0.167314
     28          6           0        7.786100    4.694512    0.191317
     29          6           0        8.790736    3.470187    0.328593
     30          6           0        7.862056    2.305383    0.376318
     31          6           0        8.181458    5.562441   -1.009720
     32          6           0        9.778973    3.696731    1.564733
     33          6           0       11.215137    4.176930    1.197443
     34          7           0        6.461692   -0.205748    0.279334
     35          6           0        7.731792   -0.121510    0.549240
     36          6           0        8.372700   -1.391181    0.598313
     37          6           0        7.305075   -2.285130    0.582684
     38          6           0        6.164706   -1.521853    0.386103
     39          6           0        9.902602   -1.724286    0.743495
     40          6           0        6.926895   -3.611770    0.721972
     41          8           0        7.534935   -4.624420    0.926793
     42          6           0        5.367374   -3.611789    0.683585
     43          6           0        4.836487   -4.669641   -0.336936
     44          8           0        4.813291   -4.500964   -1.560925
     45          8           0        4.301580   -5.850822    0.197990
     46          6           0        3.558620   -6.666947   -0.656342
     47          6           0       -1.662180   -4.347563   -0.224099
     48          6           0       -2.862014   -3.475150   -0.601452
     49          6           0       -4.072166   -3.976745   -0.887475
     50          6           0       -4.385118   -5.464747   -1.180443
     51          6           0       -5.216573   -3.113159   -1.112476
     52          6           0       -6.437094   -3.418672   -0.213623
     53          6           0       -7.236632   -2.203071    0.367007
     54          6           0       -8.347693   -1.580085   -0.497982
     55          6           0       -7.850514   -0.311216   -1.313159
     56          6           0       -9.613957   -1.323254    0.306648
     57          6           0      -10.759299   -1.135944   -0.595179
     58          6           0      -11.060629    0.392632   -0.948710
     59          6           0      -12.517529    0.714002   -0.739559
     60          6           0      -13.483312   -0.002637   -1.784420
     61          6           0      -12.923432    2.233049   -0.670022
     62          6           0      -12.926144    2.764047    0.739151
     63          6           0      -14.071115    3.604864    1.001499
     64          6           0      -15.088242    2.871706    1.931516
     65          6           0      -16.520124    3.519255    1.742983
     66          6           0      -14.583724    3.001447    3.421291
     67          1           0        0.632020    1.162870   -0.947878
     68          1           0        5.496293    5.723902   -0.236525
     69          1           0        9.496443    1.011646    0.553291
     70          1           0        2.469545   -3.241641   -0.404711
     71          1           0        0.557298   -1.162777    0.034753
     72          1           0        1.135138   -0.900351   -2.724244
     73          1           0       -0.108194   -1.985612   -2.156154
     74          1           0        1.623304   -2.470292   -2.482178
     75          1           0        1.579371   -1.590337    2.126126
     76          1           0        2.966285   -2.612701    2.149357
     77          1           0        0.677467   -3.556647    2.928864
     78          1           0        1.815403   -4.702383    2.337871
     79          1           0       -0.285015    2.944031   -0.645030
     80          1           0       -0.140439    3.867317   -2.227188
     81          1           0       -0.376046    4.700724   -0.686065
     82          1           0        0.448126    6.899193   -0.687184
     83          1           0        0.954440    6.363790   -2.342262
     84          1           0        1.401146    7.911857   -1.893979
     85          1           0        7.757273    5.362551    1.051503
     86          1           0        9.359882    3.390003   -0.597693
     87          1           0        7.366549    5.743173   -1.710008
     88          1           0        9.054792    5.234113   -1.574058
     89          1           0        8.348730    6.553066   -0.585199
     90          1           0        9.683482    2.903202    2.305315
     91          1           0        9.431485    4.568206    2.120813
     92          1           0       11.278870    5.260612    1.096786
     93          1           0       11.420809    3.649421    0.265735
     94          1           0       12.028748    3.948618    1.885751
     95          1           0       10.004871   -2.807818    0.670562
     96          1           0       10.085615   -1.254957    1.710259
     97          1           0       10.419872   -1.218541   -0.071430
     98          1           0        5.045799   -3.986640    1.655466
     99          1           0        4.080759   -7.600367   -0.867765
    100          1           0        3.198661   -6.317472   -1.623335
    101          1           0        2.666455   -6.981136   -0.113452
    102          1           0       -1.976346   -5.326504    0.138205
    103          1           0       -1.244727   -4.477931   -1.223303
    104          1           0       -2.793359   -2.407615   -0.390831
    105          1           0       -5.107378   -5.615430   -1.982538
    106          1           0       -4.713651   -5.917157   -0.244938
    107          1           0       -3.601585   -6.119049   -1.563946
    108          1           0       -5.441782   -3.246113   -2.170129
    109          1           0       -4.912076   -2.070808   -1.019119
    110          1           0       -6.211456   -3.983911    0.690113
    111          1           0       -7.199059   -3.932270   -0.801198
    112          1           0       -6.452379   -1.469336    0.555732
    113          1           0       -7.676227   -2.612884    1.277083
    114          1           0       -8.585972   -2.277050   -1.302423
    115          1           0       -6.829690   -0.403190   -1.684992
    116          1           0       -7.918704    0.648523   -0.800647
    117          1           0       -8.505747   -0.242267   -2.181033
    118          1           0       -9.487187   -0.474599    0.978801
    119          1           0       -9.887541   -2.176413    0.926955
    120          1           0      -11.640841   -1.615561   -0.171146
    121          1           0      -10.477881   -1.644397   -1.518034
    122          1           0      -10.903539    0.633851   -2.000266
    123          1           0      -10.420130    1.035847   -0.345819
    124          1           0      -12.911044    0.322605    0.198147
    125          1           0      -14.268758   -0.559890   -1.273466
    126          1           0      -12.957661   -0.722970   -2.412826
    127          1           0      -13.962693    0.752981   -2.406079
    128          1           0      -13.877694    2.344766   -1.183859
    129          1           0      -12.201818    2.819700   -1.238483
    130          1           0      -11.981083    3.242720    0.996753
    131          1           0      -12.857915    1.998853    1.511577
    132          1           0      -14.569355    3.967958    0.101907
    133          1           0      -13.686039    4.482765    1.521837
    134          1           0      -15.238263    1.815803    1.708630
    135          1           0      -16.847366    4.229037    2.501665
    136          1           0      -17.229815    2.692984    1.711458
    137          1           0      -16.591339    4.025003    0.779915
    138          1           0      -14.911917    2.269617    4.159225
    139          1           0      -15.007275    3.872139    3.920601
    140          1           0      -13.510556    3.187288    3.470333
 ---------------------------------------------------------------------

 SCF Done:  E(RPBE1PBE) =  -3005.33913254     A.U. after   16 cycles

 Excitation energies and oscillator strengths:

 Excited State   1:      Singlet-A      1.8603 eV  666.48 nm  f=0.3780  <S**2>=0.000
     245 -> 248        0.16759
     246 -> 247        0.69451
     246 <- 247       -0.11473
 This state for optimization and/or second-order correction.
 Total Energy, E(TD-HF/TD-DFT) =  -3005.27076854
 Copying the excited state density for this state as the 1-particle RhoCI density.

 Excited State   2:      Singlet-A      2.2116 eV  560.61 nm  f=0.1303  <S**2>=0.000
     245 -> 247        0.65851
     246 -> 248       -0.24565

 Excited State   3:      Singlet-A      3.0304 eV  409.13 nm  f=0.0011  <S**2>=0.000
     242 -> 247        0.57116
     242 -> 249       -0.14147
     243 -> 247        0.35931

 Excited State   4:      Singlet-A      3.1242 eV  396.85 nm  f=0.0008  <S**2>=0.000
     242 -> 247       -0.35366
     243 -> 247        0.59673

 Excited State   5:      Singlet-A      3.2034 eV  387.04 nm  f=0.0001  <S**2>=0.000
     240 -> 247       -0.18090
     241 -> 247        0.65132
     241 -> 249        0.11358

 The electronic state is 1-A.
 Alpha  occ. eigenvalues --  -46.92370 -19.26415 -19.24540 -19.20814 -19.19248
 Alpha  occ. eigenvalues --  -19.19014 -19.18896 -14.41770 -14.41728 -14.39677
 Alpha  occ. eigenvalues --  -14.38102 -10.37183 -10.36222 -10.32031 -10.31242
 Alpha  occ. eigenvalues --  -10.29403 -10.28980 -10.28969 -10.28492 -10.28383
 Alpha  occ. eigenvalues --  -10.28287 -10.27954 -10.26576 -10.26562 -10.26231
 Alpha  occ. eigenvalues --  -10.26132 -10.26118 -10.26094 -10.25901 -10.25887
 Alpha  occ. eigenvalues --  -10.25695 -10.25684 -10.25608 -10.25479 -10.25354
 Alpha  occ. eigenvalues --  -10.25332 -10.25267 -10.24844 -10.24710 -10.24707
 Alpha  occ. eigenvalues --  -10.24606 -10.24377 -10.24111 -10.23740 -10.23692
 Alpha  occ. eigenvalues --  -10.23555 -10.23418 -10.23351 -10.23327 -10.23219
 Alpha  occ. eigenvalues --  -10.23200 -10.23015 -10.23004 -10.22892 -10.22577
 Alpha  occ. eigenvalues --  -10.22537 -10.22496 -10.22253 -10.22051 -10.22036
 Alpha  occ. eigenvalues --  -10.22013 -10.21906 -10.21734 -10.21667 -10.21615
 Alpha  occ. eigenvalues --  -10.21045  -3.14537  -1.87377  -1.86884  -1.86790
 Alpha  occ. eigenvalues --   -1.11750  -1.09913  -1.05790  -1.04740  -1.02297
 Alpha  occ. eigenvalues --   -1.01226  -1.00770  -0.98999  -0.98419  -0.97562
 Alpha  occ. eigenvalues --   -0.88183  -0.85490  -0.84642  -0.83891  -0.83677
 Alpha  occ. eigenvalues --   -0.83043  -0.82353  -0.81912  -0.81238  -0.80786
 Alpha  occ. eigenvalues --   -0.80547  -0.80116  -0.78810  -0.78014  -0.77533
 Alpha  occ. eigenvalues --   -0.76729  -0.76492  -0.75765  -0.75327  -0.74131
 Alpha  occ. eigenvalues --   -0.73614  -0.72890  -0.72437  -0.71731  -0.70873
 Alpha  occ. eigenvalues --   -0.70185  -0.69539  -0.69443  -0.69272  -0.68407
 Alpha  occ. eigenvalues --   -0.68162  -0.67404  -0.65904  -0.65554  -0.63997
 Alpha  occ. eigenvalues --   -0.63441  -0.63144  -0.61627  -0.60971  -0.60418
 Alpha  occ. eigenvalues --   -0.60235  -0.59351  -0.59115  -0.58959  -0.58473
 Alpha  occ. eigenvalues --   -0.58049  -0.57765  -0.56844  -0.56602  -0.54946
 Alpha  occ. eigenvalues --   -0.54401  -0.54298  -0.53584  -0.53130  -0.52464
 Alpha  occ. eigenvalues --   -0.52020  -0.51331  -0.50446  -0.50361  -0.49803
 Alpha  occ. eigenvalues --   -0.49667  -0.49558  -0.49111  -0.48725  -0.48424
 Alpha  occ. eigenvalues --   -0.48232  -0.47835  -0.47652  -0.47538  -0.47376
 Alpha  occ. eigenvalues --   -0.47313  -0.47282  -0.46722  -0.46576  -0.46363
 Alpha  occ. eigenvalues --   -0.46310  -0.46094  -0.46068  -0.45805  -0.45465
 Alpha  occ. eigenvalues --   -0.45116  -0.44880  -0.44708  -0.44389  -0.44304
 Alpha  occ. eigenvalues --   -0.44184  -0.44028  -0.43833  -0.43671  -0.43397
 Alpha  occ. eigenvalues --   -0.43315  -0.43064  -0.42869  -0.42626  -0.42518
 Alpha  occ. eigenvalues --   -0.42129  -0.42038  -0.41927  -0.41786  -0.41564
 Alpha  occ. eigenvalues --   -0.41394  -0.41005  -0.40951  -0.40828  -0.40664
 Alpha  occ. eigenvalues --   -0.40170  -0.39881  -0.39768  -0.39297  -0.39260
 Alpha  occ. eigenvalues --   -0.39108  -0.39031  -0.38882  -0.38811  -0.38717
 Alpha  occ. eigenvalues --   -0.38327  -0.38108  -0.38056  -0.38038  -0.37951
 Alpha  occ. eigenvalues --   -0.37818  -0.37700  -0.37387  -0.37270  -0.37210
 Alpha  occ. eigenvalues --   -0.37017  -0.36802  -0.36623  -0.36147  -0.36106
 Alpha  occ. eigenvalues --   -0.35867  -0.35527  -0.35257  -0.35008  -0.34890
 Alpha  occ. eigenvalues --   -0.34776  -0.34641  -0.34391  -0.33972  -0.33819
 Alpha  occ. eigenvalues --   -0.33438  -0.33315  -0.32961  -0.32728  -0.32607
 Alpha  occ. eigenvalues --   -0.32436  -0.32234  -0.31799  -0.31664  -0.31307
 Alpha  occ. eigenvalues --   -0.30701  -0.29902  -0.29764  -0.29676  -0.29239
 Alpha  occ. eigenvalues --   -0.29183  -0.28805  -0.27974  -0.26846  -0.26150
 Alpha  occ. eigenvalues --   -0.25982  -0.25850  -0.25563  -0.25182  -0.20915
 Alpha  occ. eigenvalues --   -0.18794
 Alpha virt. eigenvalues --   -0.11274  -0.04955  -0.03773  -0.02092  -0.01005
 Alpha virt. eigenvalues --   -0.00767   0.00493   0.01131   0.01458   0.03013
 Alpha virt. eigenvalues --    0.04120   0.04364   0.05454   0.05803   0.05921

 Mulliken charges:
               1
     1  Mg   0.986738
     2  C    0.018152
     3  C   -0.059934
     4  C   -0.024430
     5  C   -0.120081
     6  N   -0.369739
     7  C    0.041574
     8  C   -0.180596
     9  C   -0.096696
    10  C    0.020540
    11  C    0.048672
    12  C    0.029069
    13  C    0.037541
    14  C    0.208820
    15  O   -0.281955
    16  O   -0.362559
    17  N   -0.511493
    18  C    0.173966
    19  C   -0.199264
    20  C   -0.095167
    21  C    0.145026
    22  C    0.046332
    23  C    0.054783
    24  O   -0.234705
    25  C   -0.017854
    26  N   -0.417768
    27  C    0.056538
    28  C   -0.122957
    29  C   -0.106666
    30  C    0.082424
    31  C    0.003985
    32  C   -0.025883
    33  C   -0.077472
    34  N   -0.366829
    35  C    0.181272
    36  C   -0.216621
    37  C    0.017200
    38  C    0.074011
    39  C    0.079607
    40  C    0.094076
    41  O   -0.188067
    42  C   -0.111437
    43  C    0.279632
    44  O   -0.267796
    45  O   -0.352000
    46  C    0.116502
    47  C    0.225377
    48  C   -0.136011
    49  C   -0.207079
    50  C   -0.001997
    51  C    0.039645
    52  C   -0.065244
    53  C    0.006385
    54  C   -0.219559
    55  C   -0.022927
    56  C    0.003685
    57  C   -0.033307
    58  C    0.021805
    59  C   -0.250088
    60  C   -0.032175
    61  C    0.029431
    62  C   -0.024903
    63  C   -0.015100
    64  C   -0.231700
    65  C   -0.021055
    66  C   -0.025726
    67  H    0.003701
    68  H    0.024015
    69  H   -0.001359
    70  H    0.069760
    71  H    0.043805
    72  H    0.033333
    73  H    0.056386
    74  H    0.051595
    75  H    0.051856
    76  H    0.047693
    77  H    0.062011
    78  H    0.067514
    79  H    0.053672
    80  H    0.070909
    81  H    0.038142
    82  H    0.080213
    83  H    0.053916
    84  H    0.050217
    85  H    0.059647
    86  H    0.057428
    87  H    0.050887
    88  H    0.047349
    89  H    0.036286
    90  H    0.041819
    91  H    0.032931
    92  H    0.049212
    93  H    0.038476
    94  H    0.045571
    95  H    0.075536
    96  H    0.066143
    97  H    0.058714
    98  H    0.071764
    99  H    0.035280
   100  H    0.054609
   101  H    0.052846
   102  H    0.057641
   103  H    0.060410
   104  H    0.024896
   105  H    0.043246
   106  H    0.058679
   107  H    0.043728
   108  H    0.041042
   109  H    0.016616
   110  H    0.040873
   111  H    0.028328
   112  H    0.025718
   113  H    0.023985
   114  H    0.026344
   115  H    0.037678
   116  H    0.036375
   117  H    0.033511
   118  H    0.029387
   119  H    0.020908
   120  H    0.030816
   121  H    0.023539
   122  H    0.029079
   123  H    0.025117
   124  H    0.029651
   125  H    0.033639
   126  H    0.030633
   127  H    0.034215
   128  H    0.024077
   129  H    0.022784
   130  H    0.010548
   131  H    0.019321
   132  H    0.027519
   133  H    0.021881
   134  H    0.042518
   135  H    0.037106
   136  H    0.030727
   137  H    0.027711
   138  H    0.034380
   139  H    0.020638
   140  H    0.034910
 Sum of Mulliken charges =  -0.00000

 Dipole moment (field-independent basis, Debye):
    X=             -4.6265    Y=              3.1308    Z=              1.9731  Tot=              5.9245
 Quadrupole moment (field-independent basis, Debye-Ang):
   XX=           -384.4752   YY=           -438.2701   ZZ=           -397.8823
   XY=             45.0298   XZ=             14.1502   YZ=              0.1761

 Normal termination of Gaussian 16 at Wed May  4 21:47:06 2022.
