 Gaussian 16, Revision A.03,
 Gaussian 16:  ES64L-G16RevA.03 25-Dec-2016

 --------------------------------
 #p wB97XD/Def2SVP td=(nstates=5)
 --------------------------------

 ----------------------------------------------------
 step_451_chromophore_21 TDDFT with wB97XD functional
 ----------------------------------------------------
 Symbolic Z-matrix:
 Charge =  0 Multiplicity = 1

                         Standard orientation:
 ---------------------------------------------------------------------
 Center     Atomic      Atomic             Coordinates (Angstroms)
 Number     Number       Type             X           Y           Z
 ---------------------------------------------------------------------
      1         12           0        4.894012    1.374788    0.207513
      2          6           0        4.928464   -2.225503    0.355651
      3          6           0        1.691333    1.244399   -0.692554
      4          6           0        5.218365    4.675843   -0.102815
      5          6           0        8.407455    1.019505    0.476482
      6          7           0        3.567407   -0.322315   -0.199649
      7          6           0        3.714459   -1.643218    0.039864
      8          6           0        2.391642   -2.293933    0.129594
      9          6           0        1.390210   -1.364306   -0.639989
     10          6           0        2.266572   -0.052823   -0.494131
     11          6           0        0.947263   -1.733420   -2.047675
     12          6           0        1.991686   -2.493098    1.675183
     13          6           0        1.245218   -3.823715    2.037358
     14          6           0        0.380969   -4.448604    0.972032
     15          8           0        0.561160   -5.521778    0.377288
     16          8           0       -0.742496   -3.705569    0.708851
     17          7           0        3.570971    2.816508   -0.279323
     18          6           0        2.307347    2.578892   -0.645202
     19          6           0        1.607273    3.860684   -0.841610
     20          6           0        2.612725    4.905252   -0.764521
     21          6           0        3.828942    4.174217   -0.392257
     22          6           0        0.081459    3.832427   -1.160248
     23          6           0        2.501921    6.414909   -1.006693
     24          8           0        3.451839    7.179349   -0.903438
     25          6           0        1.223900    6.931780   -1.451413
     26          7           0        6.550340    2.615451    0.246412
     27          6           0        6.412762    3.975406    0.167314
     28          6           0        7.786100    4.694512    0.191317
     29          6           0        8.790736    3.470187    0.328593
     30          6           0        7.862056    2.305383    0.376318
     31          6           0        8.181458    5.562441   -1.009720
     32          6           0        9.778973    3.696731    1.564733
     33          6           0       11.215137    4.176930    1.197443
     34          7           0        6.461692   -0.205748    0.279334
     35          6           0        7.731792   -0.121510    0.549240
     36          6           0        8.372700   -1.391181    0.598313
     37          6           0        7.305075   -2.285130    0.582684
     38          6           0        6.164706   -1.521853    0.386103
     39          6           0        9.902602   -1.724286    0.743495
     40          6           0        6.926895   -3.611770    0.721972
     41          8           0        7.534935   -4.624420    0.926793
     42          6           0        5.367374   -3.611789    0.683585
     43          6           0        4.836487   -4.669641   -0.336936
     44          8           0        4.813291   -4.500964   -1.560925
     45          8           0        4.301580   -5.850822    0.197990
     46          6           0        3.558620   -6.666947   -0.656342
     47          6           0       -1.662180   -4.347563   -0.224099
     48          6           0       -2.862014   -3.475150   -0.601452
     49          6           0       -4.072166   -3.976745   -0.887475
     50          6           0       -4.385118   -5.464747   -1.180443
     51          6           0       -5.216573   -3.113159   -1.112476
     52          6           0       -6.437094   -3.418672   -0.213623
     53          6           0       -7.236632   -2.203071    0.367007
     54          6           0       -8.347693   -1.580085   -0.497982
     55          6           0       -7.850514   -0.311216   -1.313159
     56          6           0       -9.613957   -1.323254    0.306648
     57          6           0      -10.759299   -1.135944   -0.595179
     58          6           0      -11.060629    0.392632   -0.948710
     59          6           0      -12.517529    0.714002   -0.739559
     60          6           0      -13.483312   -0.002637   -1.784420
     61          6           0      -12.923432    2.233049   -0.670022
     62          6           0      -12.926144    2.764047    0.739151
     63          6           0      -14.071115    3.604864    1.001499
     64          6           0      -15.088242    2.871706    1.931516
     65          6           0      -16.520124    3.519255    1.742983
     66          6           0      -14.583724    3.001447    3.421291
     67          1           0        0.632020    1.162870   -0.947878
     68          1           0        5.496293    5.723902   -0.236525
     69          1           0        9.496443    1.011646    0.553291
     70          1           0        2.469545   -3.241641   -0.404711
     71          1           0        0.557298   -1.162777    0.034753
     72          1           0        1.135138   -0.900351   -2.724244
     73          1           0       -0.108194   -1.985612   -2.156154
     74          1           0        1.623304   -2.470292   -2.482178
     75          1           0        1.579371   -1.590337    2.126126
     76          1           0        2.966285   -2.612701    2.149357
     77          1           0        0.677467   -3.556647    2.928864
     78          1           0        1.815403   -4.702383    2.337871
     79          1           0       -0.285015    2.944031   -0.645030
     80          1           0       -0.140439    3.867317   -2.227188
     81          1           0       -0.376046    4.700724   -0.686065
     82          1           0        0.448126    6.899193   -0.687184
     83          1           0        0.954440    6.363790   -2.342262
     84          1           0        1.401146    7.911857   -1.893979
     85          1           0        7.757273    5.362551    1.051503
     86          1           0        9.359882    3.390003   -0.597693
     87          1           0        7.366549    5.743173   -1.710008
     88          1           0        9.054792    5.234113   -1.574058
     89          1           0        8.348730    6.553066   -0.585199
     90          1           0        9.683482    2.903202    2.305315
     91          1           0        9.431485    4.568206    2.120813
     92          1           0       11.278870    5.260612    1.096786
     93          1           0       11.420809    3.649421    0.265735
     94          1           0       12.028748    3.948618    1.885751
     95          1           0       10.004871   -2.807818    0.670562
     96          1           0       10.085615   -1.254957    1.710259
     97          1           0       10.419872   -1.218541   -0.071430
     98          1           0        5.045799   -3.986640    1.655466
     99          1           0        4.080759   -7.600367   -0.867765
    100          1           0        3.198661   -6.317472   -1.623335
    101          1           0        2.666455   -6.981136   -0.113452
    102          1           0       -1.976346   -5.326504    0.138205
    103          1           0       -1.244727   -4.477931   -1.223303
    104          1           0       -2.793359   -2.407615   -0.390831
    105          1           0       -5.107378   -5.615430   -1.982538
    106          1           0       -4.713651   -5.917157   -0.244938
    107          1           0       -3.601585   -6.119049   -1.563946
    108          1           0       -5.441782   -3.246113   -2.170129
    109          1           0       -4.912076   -2.070808   -1.019119
    110          1           0       -6.211456   -3.983911    0.690113
    111          1           0       -7.199059   -3.932270   -0.801198
    112          1           0       -6.452379   -1.469336    0.555732
    113          1           0       -7.676227   -2.612884    1.277083
    114          1           0       -8.585972   -2.277050   -1.302423
    115          1           0       -6.829690   -0.403190   -1.684992
    116          1           0       -7.918704    0.648523   -0.800647
    117          1           0       -8.505747   -0.242267   -2.181033
    118          1           0       -9.487187   -0.474599    0.978801
    119          1           0       -9.887541   -2.176413    0.926955
    120          1           0      -11.640841   -1.615561   -0.171146
    121          1           0      -10.477881   -1.644397   -1.518034
    122          1           0      -10.903539    0.633851   -2.000266
    123          1           0      -10.420130    1.035847   -0.345819
    124          1           0      -12.911044    0.322605    0.198147
    125          1           0      -14.268758   -0.559890   -1.273466
    126          1           0      -12.957661   -0.722970   -2.412826
    127          1           0      -13.962693    0.752981   -2.406079
    128          1           0      -13.877694    2.344766   -1.183859
    129          1           0      -12.201818    2.819700   -1.238483
    130          1           0      -11.981083    3.242720    0.996753
    131          1           0      -12.857915    1.998853    1.511577
    132          1           0      -14.569355    3.967958    0.101907
    133          1           0      -13.686039    4.482765    1.521837
    134          1           0      -15.238263    1.815803    1.708630
    135          1           0      -16.847366    4.229037    2.501665
    136          1           0      -17.229815    2.692984    1.711458
    137          1           0      -16.591339    4.025003    0.779915
    138          1           0      -14.911917    2.269617    4.159225
    139          1           0      -15.007275    3.872139    3.920601
    140          1           0      -13.510556    3.187288    3.470333
 ---------------------------------------------------------------------

 SCF Done:  E(RwB97XD) =  -3007.84911928     A.U. after   19 cycles

 Excitation energies and oscillator strengths:

 Excited State   1:      Singlet-A      1.6520 eV  750.49 nm  f=0.3926  <S**2>=0.000
     245 -> 248       -0.17745
     246 -> 247        0.68467
     245 <- 248       -0.11505
 This state for optimization and/or second-order correction.
 Total Energy, E(TD-HF/TD-DFT) =  -3007.78840792
 Copying the excited state density for this state as the 1-particle RhoCI density.

 Excited State   2:      Singlet-A      2.1450 eV  578.00 nm  f=0.1339  <S**2>=0.000
     245 -> 247        0.64635
     246 -> 248        0.27285

 Excited State   3:      Singlet-A      3.4440 eV  360.00 nm  f=0.0208  <S**2>=0.000
     242 -> 247       -0.43097
     243 -> 247        0.50438
     246 -> 248        0.16437

 Excited State   4:      Singlet-A      3.5554 eV  348.72 nm  f=0.1830  <S**2>=0.000
     239 -> 247       -0.20305
     239 -> 249        0.11571
     240 -> 247       -0.35024
     240 -> 249        0.18431
     242 -> 247       -0.10586
     243 -> 247       -0.29938
     245 -> 247       -0.14446
     246 -> 248        0.36237

 Excited State   5:      Singlet-A      3.5876 eV  345.59 nm  f=0.1901  <S**2>=0.000
     239 -> 247        0.16554
     239 -> 249       -0.11683
     240 -> 247        0.39286
     240 -> 249       -0.18335
     240 -> 250        0.10475
     242 -> 247       -0.17521
     243 -> 247       -0.19762
     245 -> 247       -0.14331
     246 -> 248        0.39013

 The electronic state is 1-A.
 Alpha  occ. eigenvalues --  -46.95304 -19.30992 -19.29171 -19.25472 -19.24054
 Alpha  occ. eigenvalues --  -19.23956 -19.23639 -14.46894 -14.46797 -14.44489
 Alpha  occ. eigenvalues --  -14.43196 -10.43970 -10.43134 -10.38677 -10.38348
 Alpha  occ. eigenvalues --  -10.35891 -10.35110 -10.34997 -10.34997 -10.34774
 Alpha  occ. eigenvalues --  -10.34508 -10.33972 -10.32963 -10.32847 -10.32676
 Alpha  occ. eigenvalues --  -10.32657 -10.32650 -10.32556 -10.32542 -10.32246
 Alpha  occ. eigenvalues --  -10.32202 -10.32104 -10.31939 -10.31653 -10.31624
 Alpha  occ. eigenvalues --  -10.31614 -10.31437 -10.31187 -10.31085 -10.31063
 Alpha  occ. eigenvalues --  -10.31007 -10.30962 -10.30369 -10.30140 -10.30007
 Alpha  occ. eigenvalues --  -10.29936 -10.29859 -10.29810 -10.29697 -10.29681
 Alpha  occ. eigenvalues --  -10.29580 -10.29447 -10.29334 -10.29165 -10.28933
 Alpha  occ. eigenvalues --  -10.28921 -10.28919 -10.28639 -10.28614 -10.28463
 Alpha  occ. eigenvalues --  -10.28393 -10.28262 -10.28145 -10.28070 -10.27966
 Alpha  occ. eigenvalues --  -10.27413  -3.21331  -1.94922  -1.94429  -1.94328
 Alpha  occ. eigenvalues --   -1.19127  -1.17377  -1.13488  -1.12039  -1.09646
 Alpha  occ. eigenvalues --   -1.08691  -1.08314  -1.06387  -1.05813  -1.04731
 Alpha  occ. eigenvalues --   -0.95964  -0.93152  -0.92296  -0.91548  -0.91329
 Alpha  occ. eigenvalues --   -0.90689  -0.89981  -0.89608  -0.88898  -0.88402
 Alpha  occ. eigenvalues --   -0.88112  -0.87732  -0.86458  -0.85675  -0.85138
 Alpha  occ. eigenvalues --   -0.84372  -0.84083  -0.83418  -0.82986  -0.81773
 Alpha  occ. eigenvalues --   -0.81284  -0.80602  -0.79981  -0.79313  -0.78565
 Alpha  occ. eigenvalues --   -0.77857  -0.77228  -0.77132  -0.76878  -0.76070
 Alpha  occ. eigenvalues --   -0.75757  -0.75021  -0.73508  -0.73130  -0.71614
 Alpha  occ. eigenvalues --   -0.71023  -0.70751  -0.69059  -0.68597  -0.67965
 Alpha  occ. eigenvalues --   -0.67700  -0.66952  -0.66562  -0.66403  -0.65982
 Alpha  occ. eigenvalues --   -0.65704  -0.65403  -0.64480  -0.64097  -0.62497
 Alpha  occ. eigenvalues --   -0.61831  -0.61747  -0.60942  -0.60518  -0.59848
 Alpha  occ. eigenvalues --   -0.59672  -0.58753  -0.57918  -0.57759  -0.57197
 Alpha  occ. eigenvalues --   -0.57121  -0.56996  -0.56585  -0.56163  -0.55898
 Alpha  occ. eigenvalues --   -0.55650  -0.55207  -0.55090  -0.54957  -0.54799
 Alpha  occ. eigenvalues --   -0.54711  -0.54627  -0.54251  -0.53919  -0.53807
 Alpha  occ. eigenvalues --   -0.53688  -0.53518  -0.53425  -0.53082  -0.52743
 Alpha  occ. eigenvalues --   -0.52392  -0.52145  -0.52008  -0.51790  -0.51675
 Alpha  occ. eigenvalues --   -0.51445  -0.51324  -0.51121  -0.50994  -0.50698
 Alpha  occ. eigenvalues --   -0.50656  -0.50326  -0.50269  -0.49874  -0.49820
 Alpha  occ. eigenvalues --   -0.49380  -0.49330  -0.49195  -0.49066  -0.48762
 Alpha  occ. eigenvalues --   -0.48599  -0.48246  -0.48176  -0.48052  -0.47752
 Alpha  occ. eigenvalues --   -0.47409  -0.47056  -0.46981  -0.46599  -0.46496
 Alpha  occ. eigenvalues --   -0.46266  -0.46196  -0.46055  -0.45972  -0.45816
 Alpha  occ. eigenvalues --   -0.45420  -0.45280  -0.45184  -0.45103  -0.45051
 Alpha  occ. eigenvalues --   -0.44996  -0.44850  -0.44460  -0.44365  -0.44314
 Alpha  occ. eigenvalues --   -0.44158  -0.43878  -0.43663  -0.43267  -0.43149
 Alpha  occ. eigenvalues --   -0.42927  -0.42536  -0.42296  -0.42135  -0.42103
 Alpha  occ. eigenvalues --   -0.41841  -0.41660  -0.41344  -0.40998  -0.40826
 Alpha  occ. eigenvalues --   -0.40390  -0.40322  -0.39973  -0.39750  -0.39575
 Alpha  occ. eigenvalues --   -0.39444  -0.39332  -0.38800  -0.38634  -0.38161
 Alpha  occ. eigenvalues --   -0.37669  -0.36912  -0.36811  -0.36509  -0.36350
 Alpha  occ. eigenvalues --   -0.36081  -0.35532  -0.35095  -0.33555  -0.33093
 Alpha  occ. eigenvalues --   -0.33064  -0.32686  -0.32072  -0.31925  -0.25914
 Alpha  occ. eigenvalues --   -0.22998
 Alpha virt. eigenvalues --   -0.07209   0.00528   0.02496   0.04429   0.05098
 Alpha virt. eigenvalues --    0.05886   0.07166   0.07828   0.08144   0.09467
 Alpha virt. eigenvalues --    0.10598   0.11110   0.12205   0.12577   0.12705

 Mulliken charges:
               1
     1  Mg   0.976633
     2  C    0.012275
     3  C   -0.072702
     4  C   -0.034646
     5  C   -0.143668
     6  N   -0.337118
     7  C    0.015599
     8  C   -0.149847
     9  C   -0.073582
    10  C    0.005957
    11  C    0.058094
    12  C    0.039951
    13  C    0.050899
    14  C    0.196420
    15  O   -0.278333
    16  O   -0.360221
    17  N   -0.478452
    18  C    0.160134
    19  C   -0.195551
    20  C   -0.087972
    21  C    0.132361
    22  C    0.062294
    23  C    0.051198
    24  O   -0.230064
    25  C   -0.009143
    26  N   -0.383037
    27  C    0.038723
    28  C   -0.095462
    29  C   -0.078889
    30  C    0.069769
    31  C    0.012817
    32  C   -0.013100
    33  C   -0.060379
    34  N   -0.328057
    35  C    0.182514
    36  C   -0.220849
    37  C    0.021335
    38  C    0.060889
    39  C    0.093159
    40  C    0.077678
    41  O   -0.175999
    42  C   -0.072697
    43  C    0.257474
    44  O   -0.262571
    45  O   -0.349457
    46  C    0.130835
    47  C    0.238867
    48  C   -0.142163
    49  C   -0.194265
    50  C    0.006349
    51  C    0.060160
    52  C   -0.048356
    53  C    0.021798
    54  C   -0.187292
    55  C   -0.010252
    56  C    0.016392
    57  C   -0.014571
    58  C    0.037299
    59  C   -0.215266
    60  C   -0.020604
    61  C    0.042181
    62  C   -0.010685
    63  C    0.005458
    64  C   -0.201951
    65  C   -0.009002
    66  C   -0.015712
    67  H   -0.003368
    68  H    0.018559
    69  H   -0.007237
    70  H    0.050377
    71  H    0.033245
    72  H    0.027268
    73  H    0.050824
    74  H    0.046297
    75  H    0.047451
    76  H    0.034373
    77  H    0.057580
    78  H    0.063343
    79  H    0.047141
    80  H    0.065888
    81  H    0.030063
    82  H    0.076472
    83  H    0.047569
    84  H    0.048115
    85  H    0.049129
    86  H    0.043992
    87  H    0.045089
    88  H    0.041361
    89  H    0.030959
    90  H    0.034761
    91  H    0.024183
    92  H    0.043632
    93  H    0.030244
    94  H    0.040789
    95  H    0.074057
    96  H    0.061268
    97  H    0.054886
    98  H    0.065439
    99  H    0.031170
   100  H    0.051270
   101  H    0.047957
   102  H    0.051690
   103  H    0.053973
   104  H    0.022566
   105  H    0.038881
   106  H    0.053029
   107  H    0.039348
   108  H    0.032842
   109  H    0.006058
   110  H    0.033306
   111  H    0.018394
   112  H    0.015496
   113  H    0.016445
   114  H    0.010849
   115  H    0.030963
   116  H    0.030164
   117  H    0.025399
   118  H    0.019960
   119  H    0.013365
   120  H    0.023270
   121  H    0.012109
   122  H    0.019115
   123  H    0.013154
   124  H    0.012314
   125  H    0.028559
   126  H    0.024285
   127  H    0.027667
   128  H    0.012933
   129  H    0.015107
   130  H    0.004269
   131  H    0.006238
   132  H    0.017663
   133  H    0.013184
   134  H    0.031041
   135  H    0.031282
   136  H    0.025057
   137  H    0.021118
   138  H    0.029819
   139  H    0.013243
   140  H    0.028100
 Sum of Mulliken charges =  -0.00000

 Dipole moment (field-independent basis, Debye):
    X=             -4.2834    Y=              2.7876    Z=              2.1048  Tot=              5.5271
 Quadrupole moment (field-independent basis, Debye-Ang):
   XX=           -380.3653   YY=           -438.7500   ZZ=           -397.4972
   XY=             42.7011   XZ=             14.9008   YZ=              0.0590

 Normal termination of Gaussian 16 at Wed May  4 22:14:01 2022.
