 Gaussian 16, Revision A.03,
 Gaussian 16:  ES64L-G16RevA.03 25-Dec-2016

 --------------------
 #p ZINDO=(nstates=5)
 --------------------

 -----------------------------
 step_451_chromophore_21 ZINDO
 -----------------------------
 Symbolic Z-matrix:
 Charge =  0 Multiplicity = 1

                         Standard orientation:
 ---------------------------------------------------------------------
 Center     Atomic      Atomic             Coordinates (Angstroms)
 Number     Number       Type             X           Y           Z
 ---------------------------------------------------------------------
      1         12           0        4.894012    1.374788    0.207513
      2          6           0        4.928464   -2.225503    0.355651
      3          6           0        1.691333    1.244399   -0.692554
      4          6           0        5.218365    4.675843   -0.102815
      5          6           0        8.407455    1.019505    0.476482
      6          7           0        3.567407   -0.322315   -0.199649
      7          6           0        3.714459   -1.643218    0.039864
      8          6           0        2.391642   -2.293933    0.129594
      9          6           0        1.390210   -1.364306   -0.639989
     10          6           0        2.266572   -0.052823   -0.494131
     11          6           0        0.947263   -1.733420   -2.047675
     12          6           0        1.991686   -2.493098    1.675183
     13          6           0        1.245218   -3.823715    2.037358
     14          6           0        0.380969   -4.448604    0.972032
     15          8           0        0.561160   -5.521778    0.377288
     16          8           0       -0.742496   -3.705569    0.708851
     17          7           0        3.570971    2.816508   -0.279323
     18          6           0        2.307347    2.578892   -0.645202
     19          6           0        1.607273    3.860684   -0.841610
     20          6           0        2.612725    4.905252   -0.764521
     21          6           0        3.828942    4.174217   -0.392257
     22          6           0        0.081459    3.832427   -1.160248
     23          6           0        2.501921    6.414909   -1.006693
     24          8           0        3.451839    7.179349   -0.903438
     25          6           0        1.223900    6.931780   -1.451413
     26          7           0        6.550340    2.615451    0.246412
     27          6           0        6.412762    3.975406    0.167314
     28          6           0        7.786100    4.694512    0.191317
     29          6           0        8.790736    3.470187    0.328593
     30          6           0        7.862056    2.305383    0.376318
     31          6           0        8.181458    5.562441   -1.009720
     32          6           0        9.778973    3.696731    1.564733
     33          6           0       11.215137    4.176930    1.197443
     34          7           0        6.461692   -0.205748    0.279334
     35          6           0        7.731792   -0.121510    0.549240
     36          6           0        8.372700   -1.391181    0.598313
     37          6           0        7.305075   -2.285130    0.582684
     38          6           0        6.164706   -1.521853    0.386103
     39          6           0        9.902602   -1.724286    0.743495
     40          6           0        6.926895   -3.611770    0.721972
     41          8           0        7.534935   -4.624420    0.926793
     42          6           0        5.367374   -3.611789    0.683585
     43          6           0        4.836487   -4.669641   -0.336936
     44          8           0        4.813291   -4.500964   -1.560925
     45          8           0        4.301580   -5.850822    0.197990
     46          6           0        3.558620   -6.666947   -0.656342
     47          6           0       -1.662180   -4.347563   -0.224099
     48          6           0       -2.862014   -3.475150   -0.601452
     49          6           0       -4.072166   -3.976745   -0.887475
     50          6           0       -4.385118   -5.464747   -1.180443
     51          6           0       -5.216573   -3.113159   -1.112476
     52          6           0       -6.437094   -3.418672   -0.213623
     53          6           0       -7.236632   -2.203071    0.367007
     54          6           0       -8.347693   -1.580085   -0.497982
     55          6           0       -7.850514   -0.311216   -1.313159
     56          6           0       -9.613957   -1.323254    0.306648
     57          6           0      -10.759299   -1.135944   -0.595179
     58          6           0      -11.060629    0.392632   -0.948710
     59          6           0      -12.517529    0.714002   -0.739559
     60          6           0      -13.483312   -0.002637   -1.784420
     61          6           0      -12.923432    2.233049   -0.670022
     62          6           0      -12.926144    2.764047    0.739151
     63          6           0      -14.071115    3.604864    1.001499
     64          6           0      -15.088242    2.871706    1.931516
     65          6           0      -16.520124    3.519255    1.742983
     66          6           0      -14.583724    3.001447    3.421291
     67          1           0        0.632020    1.162870   -0.947878
     68          1           0        5.496293    5.723902   -0.236525
     69          1           0        9.496443    1.011646    0.553291
     70          1           0        2.469545   -3.241641   -0.404711
     71          1           0        0.557298   -1.162777    0.034753
     72          1           0        1.135138   -0.900351   -2.724244
     73          1           0       -0.108194   -1.985612   -2.156154
     74          1           0        1.623304   -2.470292   -2.482178
     75          1           0        1.579371   -1.590337    2.126126
     76          1           0        2.966285   -2.612701    2.149357
     77          1           0        0.677467   -3.556647    2.928864
     78          1           0        1.815403   -4.702383    2.337871
     79          1           0       -0.285015    2.944031   -0.645030
     80          1           0       -0.140439    3.867317   -2.227188
     81          1           0       -0.376046    4.700724   -0.686065
     82          1           0        0.448126    6.899193   -0.687184
     83          1           0        0.954440    6.363790   -2.342262
     84          1           0        1.401146    7.911857   -1.893979
     85          1           0        7.757273    5.362551    1.051503
     86          1           0        9.359882    3.390003   -0.597693
     87          1           0        7.366549    5.743173   -1.710008
     88          1           0        9.054792    5.234113   -1.574058
     89          1           0        8.348730    6.553066   -0.585199
     90          1           0        9.683482    2.903202    2.305315
     91          1           0        9.431485    4.568206    2.120813
     92          1           0       11.278870    5.260612    1.096786
     93          1           0       11.420809    3.649421    0.265735
     94          1           0       12.028748    3.948618    1.885751
     95          1           0       10.004871   -2.807818    0.670562
     96          1           0       10.085615   -1.254957    1.710259
     97          1           0       10.419872   -1.218541   -0.071430
     98          1           0        5.045799   -3.986640    1.655466
     99          1           0        4.080759   -7.600367   -0.867765
    100          1           0        3.198661   -6.317472   -1.623335
    101          1           0        2.666455   -6.981136   -0.113452
    102          1           0       -1.976346   -5.326504    0.138205
    103          1           0       -1.244727   -4.477931   -1.223303
    104          1           0       -2.793359   -2.407615   -0.390831
    105          1           0       -5.107378   -5.615430   -1.982538
    106          1           0       -4.713651   -5.917157   -0.244938
    107          1           0       -3.601585   -6.119049   -1.563946
    108          1           0       -5.441782   -3.246113   -2.170129
    109          1           0       -4.912076   -2.070808   -1.019119
    110          1           0       -6.211456   -3.983911    0.690113
    111          1           0       -7.199059   -3.932270   -0.801198
    112          1           0       -6.452379   -1.469336    0.555732
    113          1           0       -7.676227   -2.612884    1.277083
    114          1           0       -8.585972   -2.277050   -1.302423
    115          1           0       -6.829690   -0.403190   -1.684992
    116          1           0       -7.918704    0.648523   -0.800647
    117          1           0       -8.505747   -0.242267   -2.181033
    118          1           0       -9.487187   -0.474599    0.978801
    119          1           0       -9.887541   -2.176413    0.926955
    120          1           0      -11.640841   -1.615561   -0.171146
    121          1           0      -10.477881   -1.644397   -1.518034
    122          1           0      -10.903539    0.633851   -2.000266
    123          1           0      -10.420130    1.035847   -0.345819
    124          1           0      -12.911044    0.322605    0.198147
    125          1           0      -14.268758   -0.559890   -1.273466
    126          1           0      -12.957661   -0.722970   -2.412826
    127          1           0      -13.962693    0.752981   -2.406079
    128          1           0      -13.877694    2.344766   -1.183859
    129          1           0      -12.201818    2.819700   -1.238483
    130          1           0      -11.981083    3.242720    0.996753
    131          1           0      -12.857915    1.998853    1.511577
    132          1           0      -14.569355    3.967958    0.101907
    133          1           0      -13.686039    4.482765    1.521837
    134          1           0      -15.238263    1.815803    1.708630
    135          1           0      -16.847366    4.229037    2.501665
    136          1           0      -17.229815    2.692984    1.711458
    137          1           0      -16.591339    4.025003    0.779915
    138          1           0      -14.911917    2.269617    4.159225
    139          1           0      -15.007275    3.872139    3.920601
    140          1           0      -13.510556    3.187288    3.470333
 ---------------------------------------------------------------------

 SCF Done:  E(RZINDO/S) =  -474.494344747     A.U. after   19 cycles

 Excitation energies and oscillator strengths:

 Excited State   1:      Singlet-A      1.2756 eV  971.98 nm  f=0.5952  <S**2>=0.000
     175 ->178        -0.17713
     176 ->177         0.66658
 This state for optimization and/or second-order correction.
 Total Energy, E(CIS/TDA) =  -474.447467746
 Copying the excited state density for this state as the 1-particle RhoCI density.

 Excited State   2:      Singlet-A      1.9096 eV  649.26 nm  f=0.0744  <S**2>=0.000
     175 ->177         0.56775
     176 ->178         0.38549

 Excited State   3:      Singlet-A      2.9091 eV  426.20 nm  f=0.0220  <S**2>=0.000
     168 ->177         0.38626
     168 ->178        -0.15346
     168 ->179        -0.41570
     168 ->181         0.18318
     168 ->186        -0.17586

 Excited State   4:      Singlet-A      3.0287 eV  409.37 nm  f=1.0694  <S**2>=0.000
     171 ->177         0.12400
     175 ->177        -0.35423
     176 ->178         0.55233

 Excited State   5:      Singlet-A      3.1062 eV  399.16 nm  f=0.0585  <S**2>=0.000
     169 ->177        -0.12659
     169 ->179        -0.15308
     169 ->181        -0.26548
     169 ->186        -0.12956
     176 ->179         0.51718
     176 ->181         0.20068

 The electronic state is 1-A.
 Alpha  occ. eigenvalues --   -1.89459  -1.81758  -1.79432  -1.73930  -1.71979
 Alpha  occ. eigenvalues --   -1.71418  -1.67139  -1.62953  -1.62932  -1.58927
 Alpha  occ. eigenvalues --   -1.56804  -1.50898  -1.50078  -1.47216  -1.46150
 Alpha  occ. eigenvalues --   -1.43794  -1.42522  -1.40301  -1.39318  -1.37456
 Alpha  occ. eigenvalues --   -1.35864  -1.34147  -1.32943  -1.30874  -1.29187
 Alpha  occ. eigenvalues --   -1.25339  -1.24431  -1.22590  -1.20136  -1.18918
 Alpha  occ. eigenvalues --   -1.17919  -1.17282  -1.16144  -1.14712  -1.13831
 Alpha  occ. eigenvalues --   -1.12956  -1.11479  -1.10094  -1.05524  -1.04400
 Alpha  occ. eigenvalues --   -1.03404  -1.01563  -0.99896  -0.98306  -0.97256
 Alpha  occ. eigenvalues --   -0.95102  -0.94295  -0.93789  -0.92764  -0.92345
 Alpha  occ. eigenvalues --   -0.91655  -0.91079  -0.89045  -0.87704  -0.87102
 Alpha  occ. eigenvalues --   -0.86289  -0.84959  -0.83393  -0.82643  -0.80989
 Alpha  occ. eigenvalues --   -0.79768  -0.79521  -0.78062  -0.77305  -0.76397
 Alpha  occ. eigenvalues --   -0.76256  -0.74808  -0.74345  -0.74031  -0.72833
 Alpha  occ. eigenvalues --   -0.72707  -0.71881  -0.71854  -0.71125  -0.69949
 Alpha  occ. eigenvalues --   -0.69507  -0.69086  -0.68741  -0.68346  -0.68112
 Alpha  occ. eigenvalues --   -0.67539  -0.66618  -0.66024  -0.65673  -0.65521
 Alpha  occ. eigenvalues --   -0.65078  -0.64862  -0.64737  -0.64150  -0.64060
 Alpha  occ. eigenvalues --   -0.63398  -0.63266  -0.62702  -0.62313  -0.62177
 Alpha  occ. eigenvalues --   -0.61658  -0.61577  -0.60740  -0.60049  -0.59759
 Alpha  occ. eigenvalues --   -0.59552  -0.59262  -0.59143  -0.57992  -0.57667
 Alpha  occ. eigenvalues --   -0.57295  -0.57105  -0.57060  -0.56659  -0.56546
 Alpha  occ. eigenvalues --   -0.56312  -0.56055  -0.55791  -0.55380  -0.54752
 Alpha  occ. eigenvalues --   -0.54238  -0.53975  -0.53477  -0.53170  -0.52912
 Alpha  occ. eigenvalues --   -0.52729  -0.52474  -0.51963  -0.51595  -0.50976
 Alpha  occ. eigenvalues --   -0.50855  -0.50557  -0.50492  -0.50348  -0.50152
 Alpha  occ. eigenvalues --   -0.49971  -0.49612  -0.49048  -0.49010  -0.48893
 Alpha  occ. eigenvalues --   -0.48625  -0.48220  -0.48086  -0.47919  -0.47804
 Alpha  occ. eigenvalues --   -0.47314  -0.47185  -0.47132  -0.47022  -0.46710
 Alpha  occ. eigenvalues --   -0.46457  -0.46162  -0.46038  -0.45732  -0.45334
 Alpha  occ. eigenvalues --   -0.45003  -0.44829  -0.44384  -0.44276  -0.44049
 Alpha  occ. eigenvalues --   -0.43393  -0.43271  -0.42769  -0.42191  -0.42154
 Alpha  occ. eigenvalues --   -0.41926  -0.41579  -0.40742  -0.39158  -0.38877
 Alpha  occ. eigenvalues --   -0.38164  -0.37236  -0.35449  -0.34720  -0.34614
 Alpha  occ. eigenvalues --   -0.33738  -0.32428  -0.32191  -0.31824  -0.26564
 Alpha  occ. eigenvalues --   -0.21845
 Alpha virt. eigenvalues --   -0.08585  -0.01751  -0.00446   0.01187   0.01667
 Alpha virt. eigenvalues --    0.01992   0.02363   0.02998   0.04645   0.04974
 Alpha virt. eigenvalues --    0.06155   0.06766   0.07616   0.07798   0.08100

 Mulliken charges:
               1
     1  Mg   0.431996
     2  C   -0.064982
     3  C   -0.094450
     4  C   -0.061292
     5  C   -0.069013
     6  N   -0.284731
     7  C    0.173617
     8  C    0.010790
     9  C    0.001288
    10  C    0.095645
    11  C   -0.044324
    12  C   -0.017969
    13  C    0.006115
    14  C    0.470211
    15  O   -0.524336
    16  O   -0.268668
    17  N   -0.293525
    18  C    0.085590
    19  C   -0.037826
    20  C   -0.056362
    21  C    0.099390
    22  C   -0.047356
    23  C    0.341485
    24  O   -0.530860
    25  C   -0.028070
    26  N   -0.255439
    27  C    0.091563
    28  C   -0.000605
    29  C   -0.001505
    30  C    0.157566
    31  C   -0.053311
    32  C   -0.036222
    33  C   -0.057342
    34  N   -0.339603
    35  C    0.152785
    36  C    0.041610
    37  C   -0.043249
    38  C    0.129854
    39  C   -0.041616
    40  C    0.345212
    41  O   -0.512016
    42  C    0.062602
    43  C    0.467316
    44  O   -0.522245
    45  O   -0.260142
    46  C    0.082732
    47  C    0.102301
    48  C   -0.102374
    49  C    0.003312
    50  C   -0.049716
    51  C   -0.010062
    52  C   -0.036318
    53  C   -0.043650
    54  C   -0.006864
    55  C   -0.061339
    56  C   -0.020571
    57  C   -0.036542
    58  C   -0.028483
    59  C   -0.021034
    60  C   -0.066731
    61  C   -0.034377
    62  C   -0.026192
    63  C   -0.020158
    64  C   -0.009658
    65  C   -0.066843
    66  C   -0.065571
    67  H    0.025310
    68  H    0.044552
    69  H    0.020913
    70  H    0.038782
    71  H    0.025236
    72  H    0.017644
    73  H    0.029268
    74  H    0.029471
    75  H    0.042599
    76  H    0.015149
    77  H    0.036520
    78  H    0.045137
    79  H    0.029131
    80  H    0.036112
    81  H    0.017654
    82  H    0.048285
    83  H    0.030516
    84  H    0.032957
    85  H    0.035547
    86  H    0.040731
    87  H    0.026417
    88  H    0.024509
    89  H    0.014762
    90  H    0.028341
    91  H    0.013537
    92  H    0.025357
    93  H    0.016374
    94  H    0.021532
    95  H    0.047286
    96  H    0.041392
    97  H    0.036365
    98  H    0.052222
    99  H    0.029748
   100  H    0.050896
   101  H    0.029456
   102  H    0.052805
   103  H    0.049299
   104  H    0.033008
   105  H    0.021949
   106  H    0.029742
   107  H    0.020769
   108  H    0.024616
   109  H    0.016157
   110  H    0.023935
   111  H    0.017842
   112  H    0.019590
   113  H    0.016901
   114  H    0.019100
   115  H    0.018208
   116  H    0.021524
   117  H    0.013191
   118  H    0.019892
   119  H    0.010854
   120  H    0.019801
   121  H    0.018678
   122  H    0.021718
   123  H    0.020414
   124  H    0.014419
   125  H    0.016234
   126  H    0.016080
   127  H    0.019925
   128  H    0.023969
   129  H    0.013681
   130  H    0.007630
   131  H    0.014226
   132  H    0.019781
   133  H    0.012486
   134  H    0.028809
   135  H    0.024137
   136  H    0.011795
   137  H    0.015978
   138  H    0.021081
   139  H    0.010146
   140  H    0.020487
 Sum of Mulliken charges =  -0.00000

 Dipole moment (field-independent basis, Debye):
    X=             -3.7716    Y=              1.3799    Z=              3.8876  Tot=              5.5894
 N-N= 4.281730096362D+03 E-N= 0.000000000000D+00  KE=-9.237859214245D+03
 Leave Link  601 at Wed May  4 22:28:41 2022, MaxMem=  6710886400 cpu:               0.8 elap:               0.1
 (Enter /sw/apps/gaussian-16.0/g16/l9999.exe)
 1\1\GINC-BP1-COMPUTE215\SP\RZINDO CIS\STO-3G\C55H74Mg1N4O6\OF15641\04-
 May-2022\0\\#p ZINDO=(nstates=5)\\step_451_chromophore_21 ZINDO\\0,1\M
 g,0,16.033,51.092,25.069\C,0,17.956,49.76,27.81\C,0,13.561,51.743,27.2
 02\C,0,14.388,52.015,22.323\C,0,18.567,49.603,23.093\N,0,15.816,50.679
 ,27.211\C,0,16.716,50.279,28.135\C,0,16.271,50.68,29.485\C,0,14.718,50
 .879,29.396\C,0,14.692,51.129,27.832\C,0,13.787,49.8,29.928\C,0,17.044
 ,52.018,29.933\C,0,17.464,52.11,31.441\C,0,16.603,51.391,32.448\O,0,16

 Normal termination of Gaussian 16 at Wed May  4 22:28:41 2022.
