 Gaussian 16, Revision A.03,
 Gaussian 16:  ES64L-G16RevA.03 25-Dec-2016

 ------------------------------
 #p blyp/Def2SVP td=(nstates=5)
 ------------------------------

 ---------------------------------------------------
 step_1151_chromophore_13 TDDFT with blyp functional
 ---------------------------------------------------
 Symbolic Z-matrix:
 Charge =  0 Multiplicity = 1

                         Standard orientation:
 ---------------------------------------------------------------------
 Center     Atomic      Atomic             Coordinates (Angstroms)
 Number     Number       Type             X           Y           Z
 ---------------------------------------------------------------------
      1         12           0        5.730596    0.408608    0.423669
      2          6           0        3.598447   -2.302052    0.011431
      3          6           0        3.337140    2.487990   -0.874507
      4          6           0        8.094305    2.799774   -0.130946
      5          6           0        8.285494   -1.862556    1.164859
      6          7           0        3.778415    0.056579   -0.372760
      7          6           0        3.013515   -1.074591   -0.326001
      8          6           0        1.537485   -0.859404   -0.662567
      9          6           0        1.544969    0.660690   -1.161036
     10          6           0        3.009491    1.131874   -0.907630
     11          6           0        1.064380    0.923184   -2.568707
     12          6           0        0.550303   -1.086152    0.507369
     13          6           0       -0.634364   -2.051958    0.073950
     14          6           0       -2.073393   -1.800584    0.609420
     15          8           0       -2.440130   -1.478726    1.751277
     16          8           0       -2.975003   -2.124743   -0.446726
     17          7           0        5.692629    2.417846   -0.174890
     18          6           0        4.583223    3.091102   -0.648232
     19          6           0        4.935124    4.531914   -0.858618
     20          6           0        6.405290    4.534450   -0.825174
     21          6           0        6.818145    3.174324   -0.418526
     22          6           0        3.880363    5.596136   -1.272991
     23          6           0        7.308057    5.705576   -1.203598
     24          8           0        8.568828    5.603815   -1.263390
     25          6           0        6.555633    7.033534   -1.602491
     26          7           0        7.934073    0.473370    0.474933
     27          6           0        8.678148    1.612916    0.290242
     28          6           0       10.197995    1.273430    0.461767
     29          6           0       10.101561    0.024884    1.270032
     30          6           0        8.673861   -0.541837    0.975663
     31          6           0       11.148179    1.110685   -0.749464
     32          6           0       10.406958    0.046554    2.818687
     33          6           0        9.175510    0.464863    3.711881
     34          7           0        5.992429   -1.703897    0.550273
     35          6           0        7.015184   -2.480196    0.951031
     36          6           0        6.577229   -3.875485    1.052589
     37          6           0        5.295072   -3.868341    0.693746
     38          6           0        4.934790   -2.522396    0.445187
     39          6           0        7.430721   -5.098386    1.319963
     40          6           0        4.063499   -4.703321    0.637706
     41          8           0        3.880574   -5.877141    0.859652
     42          6           0        3.006593   -3.721166    0.038367
     43          6           0        2.559537   -4.108367   -1.385087
     44          8           0        3.183030   -4.057616   -2.454552
     45          8           0        1.257941   -4.483372   -1.341739
     46          6           0        0.473065   -4.600541   -2.557566
     47          6           0       -4.393690   -2.177538   -0.030897
     48          6           0       -5.243576   -1.237361   -0.796554
     49          6           0       -6.620677   -1.288512   -0.840562
     50          6           0       -7.378670   -2.154225    0.084801
     51          6           0       -7.327437   -0.048658   -1.444214
     52          6           0       -7.443683    1.248468   -0.554158
     53          6           0       -8.824511    1.906836   -0.851824
     54          6           0       -9.269202    2.799867    0.306138
     55          6           0       -8.532246    4.121244    0.294273
     56          6           0       -9.184300    2.120666    1.688197
     57          6           0      -10.432315    2.461393    2.609950
     58          6           0      -11.552992    1.384411    2.552139
     59          6           0      -12.910816    2.037203    1.983754
     60          6           0      -13.580315    2.880184    3.116661
     61          6           0      -13.733080    0.891554    1.329763
     62          6           0      -13.395303    0.533592   -0.149459
     63          6           0      -12.523772   -0.755699   -0.227188
     64          6           0      -12.538572   -1.240918   -1.668739
     65          6           0      -13.573492   -2.333440   -2.006702
     66          6           0      -11.212748   -1.785666   -2.148289
     67          1           0        2.559140    3.124213   -1.300661
     68          1           0        8.925633    3.440468   -0.431928
     69          1           0        9.075153   -2.523806    1.527936
     70          1           0        1.367884   -1.549853   -1.488963
     71          1           0        0.918834    1.301110   -0.539755
     72          1           0        1.854462    1.309111   -3.212473
     73          1           0        0.318757    1.708005   -2.439280
     74          1           0        0.514089    0.062274   -2.947356
     75          1           0        0.207803   -0.123258    0.884005
     76          1           0        1.119198   -1.440052    1.367317
     77          1           0       -0.365984   -3.078919    0.322883
     78          1           0       -0.624235   -2.058210   -1.015908
     79          1           0        3.935421    6.419964   -0.560953
     80          1           0        2.910199    5.157993   -1.508124
     81          1           0        4.096026    6.046900   -2.241826
     82          1           0        5.910912    6.898775   -2.471233
     83          1           0        7.297676    7.802568   -1.817559
     84          1           0        5.922942    7.467331   -0.827976
     85          1           0       10.627276    2.026974    1.121153
     86          1           0       10.753303   -0.782782    0.938190
     87          1           0       10.546825    1.280119   -1.642466
     88          1           0       11.695866    0.170523   -0.807424
     89          1           0       11.867227    1.923404   -0.651003
     90          1           0       11.290376    0.666188    2.975815
     91          1           0       10.650070   -0.955776    3.169383
     92          1           0        8.687138    1.328759    3.262815
     93          1           0        9.347949    0.798894    4.735081
     94          1           0        8.431110   -0.311809    3.891352
     95          1           0        8.419676   -4.816741    1.683536
     96          1           0        7.679999   -5.695254    0.442972
     97          1           0        6.990622   -5.845381    1.980019
     98          1           0        2.170148   -3.871800    0.720625
     99          1           0       -0.589965   -4.723359   -2.350816
    100          1           0        0.820817   -5.485415   -3.090967
    101          1           0        0.707913   -3.878981   -3.340414
    102          1           0       -4.713118   -2.023100    0.999438
    103          1           0       -4.748357   -3.201920   -0.146698
    104          1           0       -4.683966   -0.520649   -1.398076
    105          1           0       -8.352686   -1.711760    0.292611
    106          1           0       -6.859353   -2.331187    1.026568
    107          1           0       -7.519664   -3.127211   -0.385899
    108          1           0       -8.225830   -0.486928   -1.878754
    109          1           0       -6.652680    0.243727   -2.249393
    110          1           0       -6.692359    1.871340   -1.039464
    111          1           0       -7.041176    1.091712    0.446940
    112          1           0       -9.559812    1.114495   -0.990355
    113          1           0       -8.960182    2.361792   -1.833216
    114          1           0      -10.321170    3.022875    0.128316
    115          1           0       -9.281984    4.856364    0.002010
    116          1           0       -7.720247    4.185802   -0.430628
    117          1           0       -8.139749    4.379449    1.277145
    118          1           0       -8.315488    2.490144    2.232472
    119          1           0       -9.064933    1.058053    1.480610
    120          1           0      -10.723790    3.500418    2.452664
    121          1           0       -9.889685    2.592270    3.545307
    122          1           0      -11.750130    0.983317    3.546482
    123          1           0      -11.322656    0.526611    1.919963
    124          1           0      -12.651236    2.829691    1.281700
    125          1           0      -14.592493    2.543713    3.343020
    126          1           0      -13.657247    3.910497    2.772134
    127          1           0      -13.012280    2.823250    4.045826
    128          1           0      -14.718271    1.358600    1.334340
    129          1           0      -13.753667    0.055128    2.028202
    130          1           0      -12.916752    1.366261   -0.665118
    131          1           0      -14.336139    0.398308   -0.683899
    132          1           0      -12.876394   -1.570454    0.405150
    133          1           0      -11.553039   -0.360556    0.069976
    134          1           0      -12.837274   -0.511040   -2.420824
    135          1           0      -14.414515   -2.048652   -2.638503
    136          1           0      -14.173224   -2.627907   -1.145167
    137          1           0      -13.192426   -3.289526   -2.365721
    138          1           0      -10.656045   -2.209578   -1.313610
    139          1           0      -10.542363   -1.036489   -2.570047
    140          1           0      -11.250427   -2.627018   -2.841648
 ---------------------------------------------------------------------

 SCF Done:  E(RB-LYP) =  -3007.35517048     A.U. after   20 cycles

 Excitation energies and oscillator strengths:

 Excited State   1:      Singlet-A      1.8180 eV  681.99 nm  f=0.3202  <S**2>=0.000
     245 -> 248        0.17963
     246 -> 247        0.68723
     246 <- 247       -0.14649
 This state for optimization and/or second-order correction.
 Total Energy, E(TD-HF/TD-DFT) =  -3007.28836111
 Copying the excited state density for this state as the 1-particle RhoCI density.

 Excited State   2:      Singlet-A      2.0076 eV  617.57 nm  f=0.0061  <S**2>=0.000
     244 -> 247        0.68564
     245 -> 247       -0.14989

 Excited State   3:      Singlet-A      2.0153 eV  615.22 nm  f=0.0006  <S**2>=0.000
     243 -> 247        0.70437

 Excited State   4:      Singlet-A      2.0180 eV  614.38 nm  f=0.0597  <S**2>=0.000
     244 -> 247        0.16638
     245 -> 247        0.62493
     246 -> 248       -0.23297
     246 -> 249       -0.10719

 Excited State   5:      Singlet-A      2.2192 eV  558.68 nm  f=0.0003  <S**2>=0.000
     242 -> 247        0.70598

 The electronic state is 1-A.
 Alpha  occ. eigenvalues --  -46.27760 -18.82865 -18.82769 -18.78121 -18.76974
 Alpha  occ. eigenvalues --  -18.76899 -18.75987 -14.03742 -14.02674 -14.01474
 Alpha  occ. eigenvalues --  -14.00904 -10.05395 -10.04750 -10.00676 -10.00463
 Alpha  occ. eigenvalues --   -9.98381  -9.97593  -9.97020  -9.96926  -9.96247
 Alpha  occ. eigenvalues --   -9.96212  -9.96057  -9.95888  -9.95695  -9.95119
 Alpha  occ. eigenvalues --   -9.94784  -9.94763  -9.94573  -9.94512  -9.94279
 Alpha  occ. eigenvalues --   -9.94092  -9.93941  -9.93851  -9.93627  -9.93540
 Alpha  occ. eigenvalues --   -9.93340  -9.93288  -9.93212  -9.93109  -9.92791
 Alpha  occ. eigenvalues --   -9.92457  -9.92289  -9.92263  -9.92253  -9.92200
 Alpha  occ. eigenvalues --   -9.92176  -9.92002  -9.91953  -9.91929  -9.91776
 Alpha  occ. eigenvalues --   -9.91718  -9.91689  -9.91664  -9.91553  -9.91538
 Alpha  occ. eigenvalues --   -9.91418  -9.91395  -9.91284  -9.91180  -9.91071
 Alpha  occ. eigenvalues --   -9.90838  -9.90837  -9.90741  -9.90656  -9.90542
 Alpha  occ. eigenvalues --   -9.90357  -2.92306  -1.72713  -1.72160  -1.72052
 Alpha  occ. eigenvalues --   -0.98507  -0.96499  -0.92843  -0.89591  -0.89387
 Alpha  occ. eigenvalues --   -0.89286  -0.87414  -0.85608  -0.85028  -0.84255
 Alpha  occ. eigenvalues --   -0.75452  -0.73521  -0.73018  -0.72847  -0.72339
 Alpha  occ. eigenvalues --   -0.72193  -0.71745  -0.71148  -0.70861  -0.70211
 Alpha  occ. eigenvalues --   -0.69574  -0.69132  -0.67979  -0.67561  -0.67005
 Alpha  occ. eigenvalues --   -0.66468  -0.65893  -0.65509  -0.64847  -0.64188
 Alpha  occ. eigenvalues --   -0.63925  -0.62777  -0.62578  -0.61741  -0.60930
 Alpha  occ. eigenvalues --   -0.60434  -0.60247  -0.60155  -0.59703  -0.58879
 Alpha  occ. eigenvalues --   -0.58377  -0.57521  -0.56821  -0.55953  -0.55283
 Alpha  occ. eigenvalues --   -0.54346  -0.53858  -0.53313  -0.52822  -0.51714
 Alpha  occ. eigenvalues --   -0.51514  -0.51074  -0.50759  -0.50635  -0.50149
 Alpha  occ. eigenvalues --   -0.50018  -0.49219  -0.48904  -0.47709  -0.46799
 Alpha  occ. eigenvalues --   -0.46431  -0.46260  -0.45979  -0.45508  -0.44642
 Alpha  occ. eigenvalues --   -0.44110  -0.43642  -0.43263  -0.42122  -0.41907
 Alpha  occ. eigenvalues --   -0.41814  -0.41622  -0.41591  -0.41524  -0.41323
 Alpha  occ. eigenvalues --   -0.41043  -0.40912  -0.40482  -0.39970  -0.39751
 Alpha  occ. eigenvalues --   -0.39635  -0.39530  -0.39417  -0.39297  -0.39123
 Alpha  occ. eigenvalues --   -0.38995  -0.38757  -0.38522  -0.38347  -0.38309
 Alpha  occ. eigenvalues --   -0.37998  -0.37791  -0.37504  -0.37201  -0.37076
 Alpha  occ. eigenvalues --   -0.37049  -0.36824  -0.36803  -0.36595  -0.36522
 Alpha  occ. eigenvalues --   -0.36234  -0.36100  -0.35954  -0.35943  -0.35778
 Alpha  occ. eigenvalues --   -0.35647  -0.35360  -0.34887  -0.34766  -0.34722
 Alpha  occ. eigenvalues --   -0.34331  -0.34298  -0.34031  -0.33996  -0.33864
 Alpha  occ. eigenvalues --   -0.33647  -0.33468  -0.33399  -0.33103  -0.32993
 Alpha  occ. eigenvalues --   -0.32792  -0.32685  -0.32438  -0.32268  -0.32223
 Alpha  occ. eigenvalues --   -0.32153  -0.32131  -0.31979  -0.31912  -0.31751
 Alpha  occ. eigenvalues --   -0.31528  -0.31466  -0.31379  -0.31257  -0.31084
 Alpha  occ. eigenvalues --   -0.30898  -0.30871  -0.30525  -0.30132  -0.30067
 Alpha  occ. eigenvalues --   -0.29818  -0.29528  -0.29486  -0.29035  -0.28887
 Alpha  occ. eigenvalues --   -0.28799  -0.28500  -0.28426  -0.28075  -0.27808
 Alpha  occ. eigenvalues --   -0.27771  -0.27365  -0.26907  -0.26727  -0.26613
 Alpha  occ. eigenvalues --   -0.26403  -0.26096  -0.25740  -0.25643  -0.25596
 Alpha  occ. eigenvalues --   -0.25199  -0.24688  -0.24221  -0.23953  -0.23637
 Alpha  occ. eigenvalues --   -0.23323  -0.22875  -0.22525  -0.21934  -0.21471
 Alpha  occ. eigenvalues --   -0.20477  -0.19646  -0.19009  -0.18893  -0.17459
 Alpha  occ. eigenvalues --   -0.15936
 Alpha virt. eigenvalues --   -0.11603  -0.07236  -0.06598  -0.05166  -0.04140
 Alpha virt. eigenvalues --   -0.03651  -0.03060  -0.02294  -0.01795  -0.00016
 Alpha virt. eigenvalues --    0.01129   0.01222   0.01816   0.02213   0.02348

 Mulliken charges:
               1
     1  Mg   0.694736
     2  C    0.065572
     3  C   -0.062416
     4  C   -0.039561
     5  C   -0.062743
     6  N   -0.264665
     7  C   -0.122535
     8  C    0.044811
     9  C   -0.058772
    10  C    0.064081
    11  C    0.147705
    12  C    0.167129
    13  C    0.072962
    14  C    0.119830
    15  O   -0.187527
    16  O   -0.291735
    17  N   -0.299610
    18  C    0.143185
    19  C   -0.133881
    20  C    0.013389
    21  C    0.173279
    22  C    0.168373
    23  C   -0.027963
    24  O   -0.191782
    25  C    0.098673
    26  N   -0.205903
    27  C   -0.054566
    28  C    0.090119
    29  C   -0.010541
    30  C    0.015444
    31  C    0.145831
    32  C    0.092868
    33  C    0.049859
    34  N   -0.210145
    35  C    0.082065
    36  C   -0.158256
    37  C    0.075282
    38  C    0.032335
    39  C    0.150501
    40  C   -0.009738
    41  O   -0.101694
    42  C    0.036704
    43  C    0.119653
    44  O   -0.190080
    45  O   -0.259146
    46  C    0.222848
    47  C    0.325525
    48  C   -0.120630
    49  C   -0.175921
    50  C    0.141762
    51  C    0.092644
    52  C    0.112735
    53  C    0.079197
    54  C   -0.059641
    55  C    0.125834
    56  C    0.059906
    57  C    0.092815
    58  C    0.126529
    59  C   -0.126135
    60  C    0.115300
    61  C    0.140581
    62  C    0.052615
    63  C    0.121385
    64  C   -0.053695
    65  C    0.079489
    66  C    0.075582
    67  H   -0.065409
    68  H   -0.040194
    69  H   -0.070685
    70  H   -0.011585
    71  H   -0.014832
    72  H    0.005451
    73  H   -0.020878
    74  H   -0.009165
    75  H   -0.019689
    76  H   -0.019656
    77  H    0.032832
    78  H   -0.001453
    79  H    0.011745
    80  H   -0.010580
    81  H   -0.009206
    82  H    0.011207
    83  H   -0.009641
    84  H    0.000133
    85  H   -0.036457
    86  H   -0.043449
    87  H    0.000503
    88  H    0.001684
    89  H   -0.003882
    90  H   -0.016155
    91  H   -0.021239
    92  H   -0.006173
    93  H   -0.018879
    94  H   -0.005079
    95  H   -0.025519
    96  H    0.004422
    97  H    0.005999
    98  H   -0.008727
    99  H    0.031191
   100  H    0.001814
   101  H    0.008317
   102  H    0.008198
   103  H   -0.012403
   104  H   -0.040881
   105  H    0.003135
   106  H   -0.014784
   107  H    0.002219
   108  H   -0.023838
   109  H   -0.034391
   110  H   -0.035093
   111  H   -0.006840
   112  H   -0.038439
   113  H   -0.039769
   114  H   -0.044006
   115  H   -0.024206
   116  H   -0.018172
   117  H   -0.025148
   118  H   -0.033532
   119  H   -0.024167
   120  H   -0.035893
   121  H   -0.050751
   122  H   -0.029857
   123  H   -0.040640
   124  H   -0.035189
   125  H   -0.024314
   126  H   -0.016707
   127  H   -0.013004
   128  H   -0.052872
   129  H   -0.031255
   130  H   -0.026084
   131  H   -0.032709
   132  H   -0.021913
   133  H    0.005960
   134  H   -0.032996
   135  H   -0.021963
   136  H   -0.044819
   137  H   -0.017078
   138  H   -0.027644
   139  H    0.000355
   140  H   -0.025123
 Sum of Mulliken charges =  -0.00000

 Dipole moment (field-independent basis, Debye):
    X=             -3.5312    Y=              2.4795    Z=              0.2616  Tot=              4.3227
 Quadrupole moment (field-independent basis, Debye-Ang):
   XX=           -388.0417   YY=           -424.5960   ZZ=           -409.5065
   XY=             -6.1530   XZ=             27.3015   YZ=              0.3291

 Normal termination of Gaussian 16 at Wed May  4 00:57:29 2022.
