 Gaussian 16, Revision A.03,
 Gaussian 16:  ES64L-G16RevA.03 25-Dec-2016

 -----------------------------------
 #p cam-b3lyp/Def2SVP td=(nstates=5)
 -----------------------------------

 --------------------------------------------------------
 step_1151_chromophore_13 TDDFT with cam-b3lyp functional
 --------------------------------------------------------
 Symbolic Z-matrix:
 Charge =  0 Multiplicity = 1

                         Standard orientation:
 ---------------------------------------------------------------------
 Center     Atomic      Atomic             Coordinates (Angstroms)
 Number     Number       Type             X           Y           Z
 ---------------------------------------------------------------------
      1         12           0        5.730596    0.408608    0.423669
      2          6           0        3.598447   -2.302052    0.011431
      3          6           0        3.337140    2.487990   -0.874507
      4          6           0        8.094305    2.799774   -0.130946
      5          6           0        8.285494   -1.862556    1.164859
      6          7           0        3.778415    0.056579   -0.372760
      7          6           0        3.013515   -1.074591   -0.326001
      8          6           0        1.537485   -0.859404   -0.662567
      9          6           0        1.544969    0.660690   -1.161036
     10          6           0        3.009491    1.131874   -0.907630
     11          6           0        1.064380    0.923184   -2.568707
     12          6           0        0.550303   -1.086152    0.507369
     13          6           0       -0.634364   -2.051958    0.073950
     14          6           0       -2.073393   -1.800584    0.609420
     15          8           0       -2.440130   -1.478726    1.751277
     16          8           0       -2.975003   -2.124743   -0.446726
     17          7           0        5.692629    2.417846   -0.174890
     18          6           0        4.583223    3.091102   -0.648232
     19          6           0        4.935124    4.531914   -0.858618
     20          6           0        6.405290    4.534450   -0.825174
     21          6           0        6.818145    3.174324   -0.418526
     22          6           0        3.880363    5.596136   -1.272991
     23          6           0        7.308057    5.705576   -1.203598
     24          8           0        8.568828    5.603815   -1.263390
     25          6           0        6.555633    7.033534   -1.602491
     26          7           0        7.934073    0.473370    0.474933
     27          6           0        8.678148    1.612916    0.290242
     28          6           0       10.197995    1.273430    0.461767
     29          6           0       10.101561    0.024884    1.270032
     30          6           0        8.673861   -0.541837    0.975663
     31          6           0       11.148179    1.110685   -0.749464
     32          6           0       10.406958    0.046554    2.818687
     33          6           0        9.175510    0.464863    3.711881
     34          7           0        5.992429   -1.703897    0.550273
     35          6           0        7.015184   -2.480196    0.951031
     36          6           0        6.577229   -3.875485    1.052589
     37          6           0        5.295072   -3.868341    0.693746
     38          6           0        4.934790   -2.522396    0.445187
     39          6           0        7.430721   -5.098386    1.319963
     40          6           0        4.063499   -4.703321    0.637706
     41          8           0        3.880574   -5.877141    0.859652
     42          6           0        3.006593   -3.721166    0.038367
     43          6           0        2.559537   -4.108367   -1.385087
     44          8           0        3.183030   -4.057616   -2.454552
     45          8           0        1.257941   -4.483372   -1.341739
     46          6           0        0.473065   -4.600541   -2.557566
     47          6           0       -4.393690   -2.177538   -0.030897
     48          6           0       -5.243576   -1.237361   -0.796554
     49          6           0       -6.620677   -1.288512   -0.840562
     50          6           0       -7.378670   -2.154225    0.084801
     51          6           0       -7.327437   -0.048658   -1.444214
     52          6           0       -7.443683    1.248468   -0.554158
     53          6           0       -8.824511    1.906836   -0.851824
     54          6           0       -9.269202    2.799867    0.306138
     55          6           0       -8.532246    4.121244    0.294273
     56          6           0       -9.184300    2.120666    1.688197
     57          6           0      -10.432315    2.461393    2.609950
     58          6           0      -11.552992    1.384411    2.552139
     59          6           0      -12.910816    2.037203    1.983754
     60          6           0      -13.580315    2.880184    3.116661
     61          6           0      -13.733080    0.891554    1.329763
     62          6           0      -13.395303    0.533592   -0.149459
     63          6           0      -12.523772   -0.755699   -0.227188
     64          6           0      -12.538572   -1.240918   -1.668739
     65          6           0      -13.573492   -2.333440   -2.006702
     66          6           0      -11.212748   -1.785666   -2.148289
     67          1           0        2.559140    3.124213   -1.300661
     68          1           0        8.925633    3.440468   -0.431928
     69          1           0        9.075153   -2.523806    1.527936
     70          1           0        1.367884   -1.549853   -1.488963
     71          1           0        0.918834    1.301110   -0.539755
     72          1           0        1.854462    1.309111   -3.212473
     73          1           0        0.318757    1.708005   -2.439280
     74          1           0        0.514089    0.062274   -2.947356
     75          1           0        0.207803   -0.123258    0.884005
     76          1           0        1.119198   -1.440052    1.367317
     77          1           0       -0.365984   -3.078919    0.322883
     78          1           0       -0.624235   -2.058210   -1.015908
     79          1           0        3.935421    6.419964   -0.560953
     80          1           0        2.910199    5.157993   -1.508124
     81          1           0        4.096026    6.046900   -2.241826
     82          1           0        5.910912    6.898775   -2.471233
     83          1           0        7.297676    7.802568   -1.817559
     84          1           0        5.922942    7.467331   -0.827976
     85          1           0       10.627276    2.026974    1.121153
     86          1           0       10.753303   -0.782782    0.938190
     87          1           0       10.546825    1.280119   -1.642466
     88          1           0       11.695866    0.170523   -0.807424
     89          1           0       11.867227    1.923404   -0.651003
     90          1           0       11.290376    0.666188    2.975815
     91          1           0       10.650070   -0.955776    3.169383
     92          1           0        8.687138    1.328759    3.262815
     93          1           0        9.347949    0.798894    4.735081
     94          1           0        8.431110   -0.311809    3.891352
     95          1           0        8.419676   -4.816741    1.683536
     96          1           0        7.679999   -5.695254    0.442972
     97          1           0        6.990622   -5.845381    1.980019
     98          1           0        2.170148   -3.871800    0.720625
     99          1           0       -0.589965   -4.723359   -2.350816
    100          1           0        0.820817   -5.485415   -3.090967
    101          1           0        0.707913   -3.878981   -3.340414
    102          1           0       -4.713118   -2.023100    0.999438
    103          1           0       -4.748357   -3.201920   -0.146698
    104          1           0       -4.683966   -0.520649   -1.398076
    105          1           0       -8.352686   -1.711760    0.292611
    106          1           0       -6.859353   -2.331187    1.026568
    107          1           0       -7.519664   -3.127211   -0.385899
    108          1           0       -8.225830   -0.486928   -1.878754
    109          1           0       -6.652680    0.243727   -2.249393
    110          1           0       -6.692359    1.871340   -1.039464
    111          1           0       -7.041176    1.091712    0.446940
    112          1           0       -9.559812    1.114495   -0.990355
    113          1           0       -8.960182    2.361792   -1.833216
    114          1           0      -10.321170    3.022875    0.128316
    115          1           0       -9.281984    4.856364    0.002010
    116          1           0       -7.720247    4.185802   -0.430628
    117          1           0       -8.139749    4.379449    1.277145
    118          1           0       -8.315488    2.490144    2.232472
    119          1           0       -9.064933    1.058053    1.480610
    120          1           0      -10.723790    3.500418    2.452664
    121          1           0       -9.889685    2.592270    3.545307
    122          1           0      -11.750130    0.983317    3.546482
    123          1           0      -11.322656    0.526611    1.919963
    124          1           0      -12.651236    2.829691    1.281700
    125          1           0      -14.592493    2.543713    3.343020
    126          1           0      -13.657247    3.910497    2.772134
    127          1           0      -13.012280    2.823250    4.045826
    128          1           0      -14.718271    1.358600    1.334340
    129          1           0      -13.753667    0.055128    2.028202
    130          1           0      -12.916752    1.366261   -0.665118
    131          1           0      -14.336139    0.398308   -0.683899
    132          1           0      -12.876394   -1.570454    0.405150
    133          1           0      -11.553039   -0.360556    0.069976
    134          1           0      -12.837274   -0.511040   -2.420824
    135          1           0      -14.414515   -2.048652   -2.638503
    136          1           0      -14.173224   -2.627907   -1.145167
    137          1           0      -13.192426   -3.289526   -2.365721
    138          1           0      -10.656045   -2.209578   -1.313610
    139          1           0      -10.542363   -1.036489   -2.570047
    140          1           0      -11.250427   -2.627018   -2.841648
 ---------------------------------------------------------------------

 SCF Done:  E(RCAM-B3LYP) =  -3007.13538867     A.U. after   19 cycles

 Excitation energies and oscillator strengths:

 Excited State   1:      Singlet-A      1.7163 eV  722.37 nm  f=0.3954  <S**2>=0.000
     245 -> 248       -0.18412
     246 -> 247        0.68413
     245 <- 248       -0.10748
 This state for optimization and/or second-order correction.
 Total Energy, E(TD-HF/TD-DFT) =  -3007.07231419
 Copying the excited state density for this state as the 1-particle RhoCI density.

 Excited State   2:      Singlet-A      2.2469 eV  551.80 nm  f=0.0818  <S**2>=0.000
     245 -> 247        0.62737
     246 -> 248        0.31448

 Excited State   3:      Singlet-A      3.4556 eV  358.79 nm  f=0.3626  <S**2>=0.000
     243 -> 247       -0.41410
     245 -> 247       -0.22350
     246 -> 248        0.51375

 Excited State   4:      Singlet-A      3.5247 eV  351.76 nm  f=0.2736  <S**2>=0.000
     242 -> 247       -0.25327
     243 -> 247        0.52012
     245 -> 247       -0.18588
     246 -> 248        0.31766

 Excited State   5:      Singlet-A      3.5767 eV  346.64 nm  f=0.0328  <S**2>=0.000
     241 -> 247        0.47323
     241 -> 248        0.18350
     241 -> 249       -0.33612
     241 -> 251       -0.20406
     243 -> 247       -0.12128
     246 -> 248       -0.10357

 The electronic state is 1-A.
 Alpha  occ. eigenvalues --  -46.89304 -19.25831 -19.25670 -19.21190 -19.20283
 Alpha  occ. eigenvalues --  -19.20074 -19.19263 -14.42573 -14.41527 -14.39914
 Alpha  occ. eigenvalues --  -14.39334 -10.40936 -10.40269 -10.36125 -10.35939
 Alpha  occ. eigenvalues --  -10.32388 -10.31582 -10.31557 -10.31427 -10.30569
 Alpha  occ. eigenvalues --  -10.30556 -10.30382 -10.30153 -10.29937 -10.29785
 Alpha  occ. eigenvalues --  -10.29066 -10.28888 -10.28867 -10.28848 -10.28281
 Alpha  occ. eigenvalues --  -10.28062 -10.28052 -10.27946 -10.27906 -10.27819
 Alpha  occ. eigenvalues --  -10.27455 -10.27226 -10.26999 -10.26954 -10.26909
 Alpha  occ. eigenvalues --  -10.26540 -10.26383 -10.26129 -10.26048 -10.25819
 Alpha  occ. eigenvalues --  -10.25774 -10.25717 -10.25717 -10.25593 -10.25586
 Alpha  occ. eigenvalues --  -10.25539 -10.25455 -10.25450 -10.25371 -10.25262
 Alpha  occ. eigenvalues --  -10.25107 -10.25103 -10.24970 -10.24936 -10.24845
 Alpha  occ. eigenvalues --  -10.24740 -10.24539 -10.24445 -10.24239 -10.24138
 Alpha  occ. eigenvalues --  -10.23915  -3.17746  -1.92631  -1.92171  -1.92074
 Alpha  occ. eigenvalues --   -1.17044  -1.14927  -1.11447  -1.07636  -1.07444
 Alpha  occ. eigenvalues --   -1.07340  -1.05137  -1.03211  -1.02600  -1.01685
 Alpha  occ. eigenvalues --   -0.92626  -0.90413  -0.89801  -0.89597  -0.89073
 Alpha  occ. eigenvalues --   -0.88879  -0.88305  -0.87768  -0.87447  -0.86746
 Alpha  occ. eigenvalues --   -0.86201  -0.85509  -0.84171  -0.83673  -0.83090
 Alpha  occ. eigenvalues --   -0.82488  -0.81735  -0.81388  -0.80822  -0.80104
 Alpha  occ. eigenvalues --   -0.79805  -0.78448  -0.78324  -0.77287  -0.76335
 Alpha  occ. eigenvalues --   -0.75822  -0.75503  -0.75494  -0.74991  -0.74115
 Alpha  occ. eigenvalues --   -0.73439  -0.72502  -0.71687  -0.70780  -0.69877
 Alpha  occ. eigenvalues --   -0.68961  -0.68431  -0.67759  -0.67345  -0.65979
 Alpha  occ. eigenvalues --   -0.65661  -0.65119  -0.64754  -0.64516  -0.64166
 Alpha  occ. eigenvalues --   -0.63778  -0.63001  -0.62809  -0.61475  -0.60451
 Alpha  occ. eigenvalues --   -0.60111  -0.59801  -0.59592  -0.58851  -0.58134
 Alpha  occ. eigenvalues --   -0.57441  -0.57046  -0.56326  -0.55357  -0.55142
 Alpha  occ. eigenvalues --   -0.55045  -0.54785  -0.54539  -0.54322  -0.54264
 Alpha  occ. eigenvalues --   -0.53977  -0.53582  -0.53403  -0.52539  -0.52501
 Alpha  occ. eigenvalues --   -0.52349  -0.51987  -0.51936  -0.51790  -0.51725
 Alpha  occ. eigenvalues --   -0.51707  -0.51563  -0.51250  -0.50974  -0.50793
 Alpha  occ. eigenvalues --   -0.50326  -0.50144  -0.49921  -0.49700  -0.49582
 Alpha  occ. eigenvalues --   -0.49356  -0.49217  -0.49136  -0.48820  -0.48527
 Alpha  occ. eigenvalues --   -0.48502  -0.48311  -0.48277  -0.48098  -0.47852
 Alpha  occ. eigenvalues --   -0.47654  -0.47453  -0.47233  -0.46611  -0.46479
 Alpha  occ. eigenvalues --   -0.46201  -0.46119  -0.45892  -0.45706  -0.45697
 Alpha  occ. eigenvalues --   -0.45519  -0.45182  -0.45082  -0.45005  -0.44940
 Alpha  occ. eigenvalues --   -0.44543  -0.44341  -0.44018  -0.43925  -0.43737
 Alpha  occ. eigenvalues --   -0.43701  -0.43609  -0.43484  -0.43458  -0.43287
 Alpha  occ. eigenvalues --   -0.43220  -0.43053  -0.42893  -0.42750  -0.42550
 Alpha  occ. eigenvalues --   -0.42351  -0.42174  -0.42065  -0.41766  -0.41387
 Alpha  occ. eigenvalues --   -0.41329  -0.41018  -0.40632  -0.40159  -0.39947
 Alpha  occ. eigenvalues --   -0.39818  -0.39466  -0.39415  -0.39091  -0.38702
 Alpha  occ. eigenvalues --   -0.38666  -0.38171  -0.37981  -0.37836  -0.37411
 Alpha  occ. eigenvalues --   -0.37197  -0.37053  -0.36709  -0.36682  -0.36408
 Alpha  occ. eigenvalues --   -0.36142  -0.35372  -0.35042  -0.34709  -0.34595
 Alpha  occ. eigenvalues --   -0.34502  -0.33660  -0.33239  -0.31782  -0.31556
 Alpha  occ. eigenvalues --   -0.31157  -0.30808  -0.29760  -0.28476  -0.24225
 Alpha  occ. eigenvalues --   -0.21133
 Alpha virt. eigenvalues --   -0.08582  -0.02021  -0.00174   0.01389   0.01842
 Alpha virt. eigenvalues --    0.03755   0.04699   0.05082   0.05431   0.06940
 Alpha virt. eigenvalues --    0.07081   0.08131   0.08190   0.08466   0.08530

 Mulliken charges:
               1
     1  Mg   0.823447
     2  C    0.026314
     3  C   -0.076743
     4  C   -0.059846
     5  C   -0.067856
     6  N   -0.337227
     7  C   -0.070633
     8  C   -0.008154
     9  C   -0.108120
    10  C    0.084741
    11  C    0.087364
    12  C    0.113107
    13  C    0.006903
    14  C    0.204776
    15  O   -0.229108
    16  O   -0.357865
    17  N   -0.383148
    18  C    0.146476
    19  C   -0.136119
    20  C   -0.052873
    21  C    0.196070
    22  C    0.109724
    23  C    0.048807
    24  O   -0.233417
    25  C    0.020903
    26  N   -0.271973
    27  C   -0.036933
    28  C    0.031940
    29  C   -0.063744
    30  C    0.029191
    31  C    0.087777
    32  C    0.043468
    33  C   -0.012361
    34  N   -0.296319
    35  C    0.084077
    36  C   -0.163562
    37  C    0.012776
    38  C    0.066511
    39  C    0.104408
    40  C    0.087291
    41  O   -0.138951
    42  C   -0.034967
    43  C    0.209454
    44  O   -0.227366
    45  O   -0.323799
    46  C    0.178386
    47  C    0.285657
    48  C   -0.135058
    49  C   -0.189404
    50  C    0.073157
    51  C    0.043186
    52  C    0.046204
    53  C    0.037393
    54  C   -0.112392
    55  C    0.064480
    56  C    0.007391
    57  C    0.037789
    58  C    0.074475
    59  C   -0.172416
    60  C    0.054975
    61  C    0.078258
    62  C    0.004149
    63  C    0.067664
    64  C   -0.116817
    65  C    0.021079
    66  C    0.021233
    67  H   -0.033987
    68  H   -0.000742
    69  H   -0.035463
    70  H    0.018314
    71  H    0.019353
    72  H    0.032098
    73  H    0.003486
    74  H    0.014715
    75  H    0.013000
    76  H    0.012756
    77  H    0.061650
    78  H    0.029916
    79  H    0.036712
    80  H    0.017514
    81  H    0.016455
    82  H    0.037936
    83  H    0.025888
    84  H    0.028301
    85  H    0.000388
    86  H   -0.006359
    87  H    0.025323
    88  H    0.025750
    89  H    0.019625
    90  H    0.011384
    91  H    0.005942
    92  H    0.014260
    93  H    0.007518
    94  H    0.017342
    95  H   -0.001053
    96  H    0.031472
    97  H    0.032473
    98  H    0.033606
    99  H    0.054106
   100  H    0.027643
   101  H    0.032763
   102  H    0.038937
   103  H    0.015777
   104  H   -0.005713
   105  H    0.023904
   106  H    0.010258
   107  H    0.027560
   108  H   -0.000093
   109  H   -0.004220
   110  H   -0.006036
   111  H    0.022457
   112  H   -0.016592
   113  H   -0.008440
   114  H   -0.013502
   115  H    0.000801
   116  H    0.006361
   117  H   -0.000474
   118  H   -0.004926
   119  H    0.001137
   120  H   -0.009078
   121  H   -0.019005
   122  H   -0.000673
   123  H   -0.015371
   124  H   -0.005844
   125  H    0.000997
   126  H    0.007266
   127  H    0.010756
   128  H   -0.020922
   129  H   -0.002794
   130  H    0.000598
   131  H   -0.004266
   132  H    0.006836
   133  H    0.023479
   134  H   -0.000008
   135  H    0.002925
   136  H   -0.019513
   137  H    0.007952
   138  H   -0.006203
   139  H    0.020242
   140  H    0.001517
 Sum of Mulliken charges =  -0.00000

 Dipole moment (field-independent basis, Debye):
    X=             -3.6058    Y=              2.8600    Z=              0.2079  Tot=              4.6070
 Quadrupole moment (field-independent basis, Debye-Ang):
   XX=           -387.7951   YY=           -419.5492   ZZ=           -409.4390
   XY=             -4.5031   XZ=             28.4024   YZ=             -1.1601

 Normal termination of Gaussian 16 at Tue May  3 23:49:31 2022.
