 Gaussian 16, Revision A.03,
 Gaussian 16:  ES64L-G16RevA.03 25-Dec-2016

 ---------------------------------
 #p PBE1PBE/Def2SVP td=(nstates=5)
 ---------------------------------

 ------------------------------------------------------
 step_1151_chromophore_13 TDDFT with PBE1PBE functional
 ------------------------------------------------------
 Symbolic Z-matrix:
 Charge =  0 Multiplicity = 1

                         Standard orientation:
 ---------------------------------------------------------------------
 Center     Atomic      Atomic             Coordinates (Angstroms)
 Number     Number       Type             X           Y           Z
 ---------------------------------------------------------------------
      1         12           0        5.730596    0.408608    0.423669
      2          6           0        3.598447   -2.302052    0.011431
      3          6           0        3.337140    2.487990   -0.874507
      4          6           0        8.094305    2.799774   -0.130946
      5          6           0        8.285494   -1.862556    1.164859
      6          7           0        3.778415    0.056579   -0.372760
      7          6           0        3.013515   -1.074591   -0.326001
      8          6           0        1.537485   -0.859404   -0.662567
      9          6           0        1.544969    0.660690   -1.161036
     10          6           0        3.009491    1.131874   -0.907630
     11          6           0        1.064380    0.923184   -2.568707
     12          6           0        0.550303   -1.086152    0.507369
     13          6           0       -0.634364   -2.051958    0.073950
     14          6           0       -2.073393   -1.800584    0.609420
     15          8           0       -2.440130   -1.478726    1.751277
     16          8           0       -2.975003   -2.124743   -0.446726
     17          7           0        5.692629    2.417846   -0.174890
     18          6           0        4.583223    3.091102   -0.648232
     19          6           0        4.935124    4.531914   -0.858618
     20          6           0        6.405290    4.534450   -0.825174
     21          6           0        6.818145    3.174324   -0.418526
     22          6           0        3.880363    5.596136   -1.272991
     23          6           0        7.308057    5.705576   -1.203598
     24          8           0        8.568828    5.603815   -1.263390
     25          6           0        6.555633    7.033534   -1.602491
     26          7           0        7.934073    0.473370    0.474933
     27          6           0        8.678148    1.612916    0.290242
     28          6           0       10.197995    1.273430    0.461767
     29          6           0       10.101561    0.024884    1.270032
     30          6           0        8.673861   -0.541837    0.975663
     31          6           0       11.148179    1.110685   -0.749464
     32          6           0       10.406958    0.046554    2.818687
     33          6           0        9.175510    0.464863    3.711881
     34          7           0        5.992429   -1.703897    0.550273
     35          6           0        7.015184   -2.480196    0.951031
     36          6           0        6.577229   -3.875485    1.052589
     37          6           0        5.295072   -3.868341    0.693746
     38          6           0        4.934790   -2.522396    0.445187
     39          6           0        7.430721   -5.098386    1.319963
     40          6           0        4.063499   -4.703321    0.637706
     41          8           0        3.880574   -5.877141    0.859652
     42          6           0        3.006593   -3.721166    0.038367
     43          6           0        2.559537   -4.108367   -1.385087
     44          8           0        3.183030   -4.057616   -2.454552
     45          8           0        1.257941   -4.483372   -1.341739
     46          6           0        0.473065   -4.600541   -2.557566
     47          6           0       -4.393690   -2.177538   -0.030897
     48          6           0       -5.243576   -1.237361   -0.796554
     49          6           0       -6.620677   -1.288512   -0.840562
     50          6           0       -7.378670   -2.154225    0.084801
     51          6           0       -7.327437   -0.048658   -1.444214
     52          6           0       -7.443683    1.248468   -0.554158
     53          6           0       -8.824511    1.906836   -0.851824
     54          6           0       -9.269202    2.799867    0.306138
     55          6           0       -8.532246    4.121244    0.294273
     56          6           0       -9.184300    2.120666    1.688197
     57          6           0      -10.432315    2.461393    2.609950
     58          6           0      -11.552992    1.384411    2.552139
     59          6           0      -12.910816    2.037203    1.983754
     60          6           0      -13.580315    2.880184    3.116661
     61          6           0      -13.733080    0.891554    1.329763
     62          6           0      -13.395303    0.533592   -0.149459
     63          6           0      -12.523772   -0.755699   -0.227188
     64          6           0      -12.538572   -1.240918   -1.668739
     65          6           0      -13.573492   -2.333440   -2.006702
     66          6           0      -11.212748   -1.785666   -2.148289
     67          1           0        2.559140    3.124213   -1.300661
     68          1           0        8.925633    3.440468   -0.431928
     69          1           0        9.075153   -2.523806    1.527936
     70          1           0        1.367884   -1.549853   -1.488963
     71          1           0        0.918834    1.301110   -0.539755
     72          1           0        1.854462    1.309111   -3.212473
     73          1           0        0.318757    1.708005   -2.439280
     74          1           0        0.514089    0.062274   -2.947356
     75          1           0        0.207803   -0.123258    0.884005
     76          1           0        1.119198   -1.440052    1.367317
     77          1           0       -0.365984   -3.078919    0.322883
     78          1           0       -0.624235   -2.058210   -1.015908
     79          1           0        3.935421    6.419964   -0.560953
     80          1           0        2.910199    5.157993   -1.508124
     81          1           0        4.096026    6.046900   -2.241826
     82          1           0        5.910912    6.898775   -2.471233
     83          1           0        7.297676    7.802568   -1.817559
     84          1           0        5.922942    7.467331   -0.827976
     85          1           0       10.627276    2.026974    1.121153
     86          1           0       10.753303   -0.782782    0.938190
     87          1           0       10.546825    1.280119   -1.642466
     88          1           0       11.695866    0.170523   -0.807424
     89          1           0       11.867227    1.923404   -0.651003
     90          1           0       11.290376    0.666188    2.975815
     91          1           0       10.650070   -0.955776    3.169383
     92          1           0        8.687138    1.328759    3.262815
     93          1           0        9.347949    0.798894    4.735081
     94          1           0        8.431110   -0.311809    3.891352
     95          1           0        8.419676   -4.816741    1.683536
     96          1           0        7.679999   -5.695254    0.442972
     97          1           0        6.990622   -5.845381    1.980019
     98          1           0        2.170148   -3.871800    0.720625
     99          1           0       -0.589965   -4.723359   -2.350816
    100          1           0        0.820817   -5.485415   -3.090967
    101          1           0        0.707913   -3.878981   -3.340414
    102          1           0       -4.713118   -2.023100    0.999438
    103          1           0       -4.748357   -3.201920   -0.146698
    104          1           0       -4.683966   -0.520649   -1.398076
    105          1           0       -8.352686   -1.711760    0.292611
    106          1           0       -6.859353   -2.331187    1.026568
    107          1           0       -7.519664   -3.127211   -0.385899
    108          1           0       -8.225830   -0.486928   -1.878754
    109          1           0       -6.652680    0.243727   -2.249393
    110          1           0       -6.692359    1.871340   -1.039464
    111          1           0       -7.041176    1.091712    0.446940
    112          1           0       -9.559812    1.114495   -0.990355
    113          1           0       -8.960182    2.361792   -1.833216
    114          1           0      -10.321170    3.022875    0.128316
    115          1           0       -9.281984    4.856364    0.002010
    116          1           0       -7.720247    4.185802   -0.430628
    117          1           0       -8.139749    4.379449    1.277145
    118          1           0       -8.315488    2.490144    2.232472
    119          1           0       -9.064933    1.058053    1.480610
    120          1           0      -10.723790    3.500418    2.452664
    121          1           0       -9.889685    2.592270    3.545307
    122          1           0      -11.750130    0.983317    3.546482
    123          1           0      -11.322656    0.526611    1.919963
    124          1           0      -12.651236    2.829691    1.281700
    125          1           0      -14.592493    2.543713    3.343020
    126          1           0      -13.657247    3.910497    2.772134
    127          1           0      -13.012280    2.823250    4.045826
    128          1           0      -14.718271    1.358600    1.334340
    129          1           0      -13.753667    0.055128    2.028202
    130          1           0      -12.916752    1.366261   -0.665118
    131          1           0      -14.336139    0.398308   -0.683899
    132          1           0      -12.876394   -1.570454    0.405150
    133          1           0      -11.553039   -0.360556    0.069976
    134          1           0      -12.837274   -0.511040   -2.420824
    135          1           0      -14.414515   -2.048652   -2.638503
    136          1           0      -14.173224   -2.627907   -1.145167
    137          1           0      -13.192426   -3.289526   -2.365721
    138          1           0      -10.656045   -2.209578   -1.313610
    139          1           0      -10.542363   -1.036489   -2.570047
    140          1           0      -11.250427   -2.627018   -2.841648
 ---------------------------------------------------------------------

 SCF Done:  E(RPBE1PBE) =  -3005.32495493     A.U. after   15 cycles

 Excitation energies and oscillator strengths:

 Excited State   1:      Singlet-A      1.8707 eV  662.78 nm  f=0.3864  <S**2>=0.000
     245 -> 248       -0.17383
     246 -> 247        0.69140
     246 <- 247       -0.10462
 This state for optimization and/or second-order correction.
 Total Energy, E(TD-HF/TD-DFT) =  -3005.25620933
 Copying the excited state density for this state as the 1-particle RhoCI density.

 Excited State   2:      Singlet-A      2.2477 eV  551.61 nm  f=0.0843  <S**2>=0.000
     245 -> 247        0.64224
     246 -> 248        0.28108

 Excited State   3:      Singlet-A      3.1154 eV  397.97 nm  f=0.0010  <S**2>=0.000
     242 -> 247        0.62782
     242 -> 248        0.12593
     242 -> 249       -0.18340
     243 -> 247        0.20048

 Excited State   4:      Singlet-A      3.1373 eV  395.20 nm  f=0.0032  <S**2>=0.000
     242 -> 247       -0.18045
     243 -> 247        0.66334

 Excited State   5:      Singlet-A      3.1541 eV  393.09 nm  f=0.0000  <S**2>=0.000
     244 -> 247        0.70683

 The electronic state is 1-A.
 Alpha  occ. eigenvalues --  -46.92728 -19.26459 -19.26429 -19.21492 -19.20438
 Alpha  occ. eigenvalues --  -19.20295 -19.19495 -14.42184 -14.41025 -14.39602
 Alpha  occ. eigenvalues --  -14.38957 -10.38015 -10.37290 -10.33280 -10.33043
 Alpha  occ. eigenvalues --  -10.29610 -10.29283 -10.29230 -10.29035 -10.28369
 Alpha  occ. eigenvalues --  -10.28313 -10.28161 -10.27886 -10.27654 -10.27578
 Alpha  occ. eigenvalues --  -10.26698 -10.26685 -10.26518 -10.26414 -10.26112
 Alpha  occ. eigenvalues --  -10.25931 -10.25733 -10.25693 -10.25428 -10.25383
 Alpha  occ. eigenvalues --  -10.25271 -10.24917 -10.24810 -10.24654 -10.24505
 Alpha  occ. eigenvalues --  -10.24069 -10.23820 -10.23599 -10.23443 -10.23440
 Alpha  occ. eigenvalues --  -10.23309 -10.23276 -10.23265 -10.23198 -10.23147
 Alpha  occ. eigenvalues --  -10.23142 -10.23046 -10.22998 -10.22928 -10.22695
 Alpha  occ. eigenvalues --  -10.22693 -10.22674 -10.22588 -10.22544 -10.22417
 Alpha  occ. eigenvalues --  -10.22412 -10.22125 -10.21843 -10.21656 -10.21531
 Alpha  occ. eigenvalues --  -10.21285  -3.14751  -1.87575  -1.87094  -1.87000
 Alpha  occ. eigenvalues --   -1.11813  -1.09743  -1.06152  -1.02339  -1.02335
 Alpha  occ. eigenvalues --   -1.02130  -0.99831  -0.97838  -0.97222  -0.96367
 Alpha  occ. eigenvalues --   -0.86960  -0.84530  -0.83940  -0.83784  -0.83251
 Alpha  occ. eigenvalues --   -0.83181  -0.82642  -0.82105  -0.81549  -0.81082
 Alpha  occ. eigenvalues --   -0.80436  -0.79783  -0.78413  -0.77922  -0.77312
 Alpha  occ. eigenvalues --   -0.76676  -0.76005  -0.75696  -0.75024  -0.74280
 Alpha  occ. eigenvalues --   -0.74007  -0.72717  -0.72610  -0.71609  -0.70654
 Alpha  occ. eigenvalues --   -0.69981  -0.69849  -0.69588  -0.69149  -0.68262
 Alpha  occ. eigenvalues --   -0.67856  -0.66858  -0.66143  -0.65047  -0.64219
 Alpha  occ. eigenvalues --   -0.63447  -0.62641  -0.61990  -0.61777  -0.60191
 Alpha  occ. eigenvalues --   -0.60151  -0.59660  -0.59314  -0.59022  -0.58338
 Alpha  occ. eigenvalues --   -0.58310  -0.57575  -0.56972  -0.55708  -0.54996
 Alpha  occ. eigenvalues --   -0.54640  -0.54264  -0.54091  -0.53470  -0.52624
 Alpha  occ. eigenvalues --   -0.52042  -0.51556  -0.50970  -0.49881  -0.49652
 Alpha  occ. eigenvalues --   -0.49523  -0.49359  -0.49070  -0.48780  -0.48685
 Alpha  occ. eigenvalues --   -0.48501  -0.48072  -0.47962  -0.47126  -0.46981
 Alpha  occ. eigenvalues --   -0.46915  -0.46526  -0.46441  -0.46317  -0.46245
 Alpha  occ. eigenvalues --   -0.46169  -0.46041  -0.45774  -0.45553  -0.45383
 Alpha  occ. eigenvalues --   -0.44966  -0.44739  -0.44515  -0.44214  -0.44136
 Alpha  occ. eigenvalues --   -0.43952  -0.43827  -0.43745  -0.43422  -0.43144
 Alpha  occ. eigenvalues --   -0.43128  -0.42965  -0.42864  -0.42713  -0.42498
 Alpha  occ. eigenvalues --   -0.42264  -0.42105  -0.41899  -0.41366  -0.41108
 Alpha  occ. eigenvalues --   -0.40987  -0.40848  -0.40614  -0.40416  -0.40318
 Alpha  occ. eigenvalues --   -0.40277  -0.39949  -0.39808  -0.39654  -0.39610
 Alpha  occ. eigenvalues --   -0.39308  -0.38958  -0.38844  -0.38721  -0.38476
 Alpha  occ. eigenvalues --   -0.38456  -0.38369  -0.38284  -0.38188  -0.38167
 Alpha  occ. eigenvalues --   -0.37960  -0.37805  -0.37579  -0.37560  -0.37332
 Alpha  occ. eigenvalues --   -0.37171  -0.37054  -0.36812  -0.36690  -0.36204
 Alpha  occ. eigenvalues --   -0.36042  -0.35849  -0.35354  -0.35055  -0.34788
 Alpha  occ. eigenvalues --   -0.34738  -0.34345  -0.34218  -0.34057  -0.33628
 Alpha  occ. eigenvalues --   -0.33495  -0.33004  -0.32949  -0.32697  -0.32486
 Alpha  occ. eigenvalues --   -0.32056  -0.31882  -0.31655  -0.31549  -0.31455
 Alpha  occ. eigenvalues --   -0.31108  -0.30269  -0.29922  -0.29713  -0.29601
 Alpha  occ. eigenvalues --   -0.29407  -0.28822  -0.28622  -0.27275  -0.26655
 Alpha  occ. eigenvalues --   -0.26349  -0.25911  -0.25429  -0.23820  -0.21152
 Alpha  occ. eigenvalues --   -0.18819
 Alpha virt. eigenvalues --   -0.11124  -0.05543  -0.04376  -0.02637  -0.01382
 Alpha virt. eigenvalues --   -0.00928   0.00038   0.00631   0.00971   0.02996
 Alpha virt. eigenvalues --    0.03824   0.04270   0.04546   0.05068   0.05239

 Mulliken charges:
               1
     1  Mg   0.965234
     2  C    0.012104
     3  C   -0.073390
     4  C   -0.062827
     5  C   -0.065289
     6  N   -0.439221
     7  C    0.000209
     8  C   -0.084765
     9  C   -0.181847
    10  C    0.121466
    11  C    0.030130
    12  C    0.070964
    13  C   -0.074053
    14  C    0.268485
    15  O   -0.262051
    16  O   -0.386458
    17  N   -0.490663
    18  C    0.160162
    19  C   -0.150565
    20  C   -0.097323
    21  C    0.219722
    22  C    0.044983
    23  C    0.094616
    24  O   -0.269688
    25  C   -0.052155
    26  N   -0.371538
    27  C    0.005123
    28  C   -0.047585
    29  C   -0.135248
    30  C    0.072157
    31  C    0.030234
    32  C   -0.016970
    33  C   -0.088480
    34  N   -0.419708
    35  C    0.107435
    36  C   -0.191833
    37  C   -0.024744
    38  C    0.117427
    39  C    0.056681
    40  C    0.179057
    41  O   -0.186595
    42  C   -0.134083
    43  C    0.298551
    44  O   -0.263144
    45  O   -0.356844
    46  C    0.123762
    47  C    0.243705
    48  C   -0.144554
    49  C   -0.225244
    50  C    0.004127
    51  C   -0.029054
    52  C   -0.016501
    53  C   -0.024741
    54  C   -0.201492
    55  C    0.010261
    56  C   -0.051609
    57  C   -0.022725
    58  C    0.014880
    59  C   -0.250632
    60  C   -0.002802
    61  C    0.013523
    62  C   -0.054673
    63  C   -0.002305
    64  C   -0.209501
    65  C   -0.032067
    66  C   -0.042291
    67  H   -0.000821
    68  H    0.031854
    69  H   -0.002976
    70  H    0.060150
    71  H    0.055664
    72  H    0.059298
    73  H    0.030893
    74  H    0.042790
    75  H    0.044170
    76  H    0.045445
    77  H    0.094878
    78  H    0.063206
    79  H    0.065089
    80  H    0.044609
    81  H    0.044546
    82  H    0.064466
    83  H    0.053706
    84  H    0.055013
    85  H    0.039164
    86  H    0.032391
    87  H    0.053404
    88  H    0.051737
    89  H    0.046794
    90  H    0.043733
    91  H    0.038684
    92  H    0.045587
    93  H    0.036430
    94  H    0.046061
    95  H    0.026310
    96  H    0.058487
    97  H    0.058777
    98  H    0.071213
    99  H    0.074786
   100  H    0.050398
   101  H    0.053563
   102  H    0.065741
   103  H    0.044164
   104  H    0.024265
   105  H    0.052728
   106  H    0.037383
   107  H    0.055786
   108  H    0.037464
   109  H    0.029580
   110  H    0.027954
   111  H    0.051984
   112  H    0.023839
   113  H    0.023441
   114  H    0.028732
   115  H    0.028155
   116  H    0.033326
   117  H    0.026212
   118  H    0.026908
   119  H    0.036602
   120  H    0.022681
   121  H    0.014332
   122  H    0.032054
   123  H    0.021326
   124  H    0.031678
   125  H    0.028198
   126  H    0.034168
   127  H    0.037643
   128  H    0.014357
   129  H    0.029544
   130  H    0.032695
   131  H    0.029359
   132  H    0.037889
   133  H    0.061607
   134  H    0.037606
   135  H    0.029748
   136  H    0.008081
   137  H    0.034324
   138  H    0.023964
   139  H    0.048458
   140  H    0.028792
 Sum of Mulliken charges =  -0.00000

 Dipole moment (field-independent basis, Debye):
    X=             -3.6113    Y=              2.8760    Z=              0.2401  Tot=              4.6228
 Quadrupole moment (field-independent basis, Debye-Ang):
   XX=           -381.6436   YY=           -417.2514   ZZ=           -406.8343
   XY=             -5.1621   XZ=             29.0417   YZ=             -1.2070

 Normal termination of Gaussian 16 at Wed May  4 00:11:19 2022.
