 Gaussian 16, Revision A.03,
 Gaussian 16:  ES64L-G16RevA.03 25-Dec-2016

 --------------------------------
 #p wB97XD/Def2SVP td=(nstates=5)
 --------------------------------

 -----------------------------------------------------
 step_1151_chromophore_13 TDDFT with wB97XD functional
 -----------------------------------------------------
 Symbolic Z-matrix:
 Charge =  0 Multiplicity = 1

                         Standard orientation:
 ---------------------------------------------------------------------
 Center     Atomic      Atomic             Coordinates (Angstroms)
 Number     Number       Type             X           Y           Z
 ---------------------------------------------------------------------
      1         12           0        5.730596    0.408608    0.423669
      2          6           0        3.598447   -2.302052    0.011431
      3          6           0        3.337140    2.487990   -0.874507
      4          6           0        8.094305    2.799774   -0.130946
      5          6           0        8.285494   -1.862556    1.164859
      6          7           0        3.778415    0.056579   -0.372760
      7          6           0        3.013515   -1.074591   -0.326001
      8          6           0        1.537485   -0.859404   -0.662567
      9          6           0        1.544969    0.660690   -1.161036
     10          6           0        3.009491    1.131874   -0.907630
     11          6           0        1.064380    0.923184   -2.568707
     12          6           0        0.550303   -1.086152    0.507369
     13          6           0       -0.634364   -2.051958    0.073950
     14          6           0       -2.073393   -1.800584    0.609420
     15          8           0       -2.440130   -1.478726    1.751277
     16          8           0       -2.975003   -2.124743   -0.446726
     17          7           0        5.692629    2.417846   -0.174890
     18          6           0        4.583223    3.091102   -0.648232
     19          6           0        4.935124    4.531914   -0.858618
     20          6           0        6.405290    4.534450   -0.825174
     21          6           0        6.818145    3.174324   -0.418526
     22          6           0        3.880363    5.596136   -1.272991
     23          6           0        7.308057    5.705576   -1.203598
     24          8           0        8.568828    5.603815   -1.263390
     25          6           0        6.555633    7.033534   -1.602491
     26          7           0        7.934073    0.473370    0.474933
     27          6           0        8.678148    1.612916    0.290242
     28          6           0       10.197995    1.273430    0.461767
     29          6           0       10.101561    0.024884    1.270032
     30          6           0        8.673861   -0.541837    0.975663
     31          6           0       11.148179    1.110685   -0.749464
     32          6           0       10.406958    0.046554    2.818687
     33          6           0        9.175510    0.464863    3.711881
     34          7           0        5.992429   -1.703897    0.550273
     35          6           0        7.015184   -2.480196    0.951031
     36          6           0        6.577229   -3.875485    1.052589
     37          6           0        5.295072   -3.868341    0.693746
     38          6           0        4.934790   -2.522396    0.445187
     39          6           0        7.430721   -5.098386    1.319963
     40          6           0        4.063499   -4.703321    0.637706
     41          8           0        3.880574   -5.877141    0.859652
     42          6           0        3.006593   -3.721166    0.038367
     43          6           0        2.559537   -4.108367   -1.385087
     44          8           0        3.183030   -4.057616   -2.454552
     45          8           0        1.257941   -4.483372   -1.341739
     46          6           0        0.473065   -4.600541   -2.557566
     47          6           0       -4.393690   -2.177538   -0.030897
     48          6           0       -5.243576   -1.237361   -0.796554
     49          6           0       -6.620677   -1.288512   -0.840562
     50          6           0       -7.378670   -2.154225    0.084801
     51          6           0       -7.327437   -0.048658   -1.444214
     52          6           0       -7.443683    1.248468   -0.554158
     53          6           0       -8.824511    1.906836   -0.851824
     54          6           0       -9.269202    2.799867    0.306138
     55          6           0       -8.532246    4.121244    0.294273
     56          6           0       -9.184300    2.120666    1.688197
     57          6           0      -10.432315    2.461393    2.609950
     58          6           0      -11.552992    1.384411    2.552139
     59          6           0      -12.910816    2.037203    1.983754
     60          6           0      -13.580315    2.880184    3.116661
     61          6           0      -13.733080    0.891554    1.329763
     62          6           0      -13.395303    0.533592   -0.149459
     63          6           0      -12.523772   -0.755699   -0.227188
     64          6           0      -12.538572   -1.240918   -1.668739
     65          6           0      -13.573492   -2.333440   -2.006702
     66          6           0      -11.212748   -1.785666   -2.148289
     67          1           0        2.559140    3.124213   -1.300661
     68          1           0        8.925633    3.440468   -0.431928
     69          1           0        9.075153   -2.523806    1.527936
     70          1           0        1.367884   -1.549853   -1.488963
     71          1           0        0.918834    1.301110   -0.539755
     72          1           0        1.854462    1.309111   -3.212473
     73          1           0        0.318757    1.708005   -2.439280
     74          1           0        0.514089    0.062274   -2.947356
     75          1           0        0.207803   -0.123258    0.884005
     76          1           0        1.119198   -1.440052    1.367317
     77          1           0       -0.365984   -3.078919    0.322883
     78          1           0       -0.624235   -2.058210   -1.015908
     79          1           0        3.935421    6.419964   -0.560953
     80          1           0        2.910199    5.157993   -1.508124
     81          1           0        4.096026    6.046900   -2.241826
     82          1           0        5.910912    6.898775   -2.471233
     83          1           0        7.297676    7.802568   -1.817559
     84          1           0        5.922942    7.467331   -0.827976
     85          1           0       10.627276    2.026974    1.121153
     86          1           0       10.753303   -0.782782    0.938190
     87          1           0       10.546825    1.280119   -1.642466
     88          1           0       11.695866    0.170523   -0.807424
     89          1           0       11.867227    1.923404   -0.651003
     90          1           0       11.290376    0.666188    2.975815
     91          1           0       10.650070   -0.955776    3.169383
     92          1           0        8.687138    1.328759    3.262815
     93          1           0        9.347949    0.798894    4.735081
     94          1           0        8.431110   -0.311809    3.891352
     95          1           0        8.419676   -4.816741    1.683536
     96          1           0        7.679999   -5.695254    0.442972
     97          1           0        6.990622   -5.845381    1.980019
     98          1           0        2.170148   -3.871800    0.720625
     99          1           0       -0.589965   -4.723359   -2.350816
    100          1           0        0.820817   -5.485415   -3.090967
    101          1           0        0.707913   -3.878981   -3.340414
    102          1           0       -4.713118   -2.023100    0.999438
    103          1           0       -4.748357   -3.201920   -0.146698
    104          1           0       -4.683966   -0.520649   -1.398076
    105          1           0       -8.352686   -1.711760    0.292611
    106          1           0       -6.859353   -2.331187    1.026568
    107          1           0       -7.519664   -3.127211   -0.385899
    108          1           0       -8.225830   -0.486928   -1.878754
    109          1           0       -6.652680    0.243727   -2.249393
    110          1           0       -6.692359    1.871340   -1.039464
    111          1           0       -7.041176    1.091712    0.446940
    112          1           0       -9.559812    1.114495   -0.990355
    113          1           0       -8.960182    2.361792   -1.833216
    114          1           0      -10.321170    3.022875    0.128316
    115          1           0       -9.281984    4.856364    0.002010
    116          1           0       -7.720247    4.185802   -0.430628
    117          1           0       -8.139749    4.379449    1.277145
    118          1           0       -8.315488    2.490144    2.232472
    119          1           0       -9.064933    1.058053    1.480610
    120          1           0      -10.723790    3.500418    2.452664
    121          1           0       -9.889685    2.592270    3.545307
    122          1           0      -11.750130    0.983317    3.546482
    123          1           0      -11.322656    0.526611    1.919963
    124          1           0      -12.651236    2.829691    1.281700
    125          1           0      -14.592493    2.543713    3.343020
    126          1           0      -13.657247    3.910497    2.772134
    127          1           0      -13.012280    2.823250    4.045826
    128          1           0      -14.718271    1.358600    1.334340
    129          1           0      -13.753667    0.055128    2.028202
    130          1           0      -12.916752    1.366261   -0.665118
    131          1           0      -14.336139    0.398308   -0.683899
    132          1           0      -12.876394   -1.570454    0.405150
    133          1           0      -11.553039   -0.360556    0.069976
    134          1           0      -12.837274   -0.511040   -2.420824
    135          1           0      -14.414515   -2.048652   -2.638503
    136          1           0      -14.173224   -2.627907   -1.145167
    137          1           0      -13.192426   -3.289526   -2.365721
    138          1           0      -10.656045   -2.209578   -1.313610
    139          1           0      -10.542363   -1.036489   -2.570047
    140          1           0      -11.250427   -2.627018   -2.841648
 ---------------------------------------------------------------------

 SCF Done:  E(RwB97XD) =  -3007.83931479     A.U. after   19 cycles

 Excitation energies and oscillator strengths:

 Excited State   1:      Singlet-A      1.6568 eV  748.32 nm  f=0.3924  <S**2>=0.000
     245 -> 248       -0.19041
     246 -> 247        0.68183
     245 <- 248       -0.11707
 This state for optimization and/or second-order correction.
 Total Energy, E(TD-HF/TD-DFT) =  -3007.77842727
 Copying the excited state density for this state as the 1-particle RhoCI density.

 Excited State   2:      Singlet-A      2.1911 eV  565.86 nm  f=0.0796  <S**2>=0.000
     245 -> 247        0.62591
     246 -> 248        0.31643

 Excited State   3:      Singlet-A      3.4709 eV  357.21 nm  f=0.4393  <S**2>=0.000
     243 -> 247       -0.36387
     245 -> 247       -0.24060
     246 -> 248        0.54180

 Excited State   4:      Singlet-A      3.5540 eV  348.85 nm  f=0.2053  <S**2>=0.000
     241 -> 249       -0.12476
     242 -> 247        0.29104
     243 -> 247        0.53038
     245 -> 247       -0.15865
     246 -> 248        0.25626

 Excited State   5:      Singlet-A      3.5931 eV  345.06 nm  f=0.0415  <S**2>=0.000
     241 -> 247        0.40507
     241 -> 248        0.14962
     241 -> 249       -0.28680
     241 -> 250       -0.16708
     242 -> 247        0.22281
     242 -> 248        0.11487
     242 -> 249       -0.22714
     242 -> 250       -0.11843
     243 -> 247       -0.15338
     246 -> 248       -0.11342

 The electronic state is 1-A.
 Alpha  occ. eigenvalues --  -46.95650 -19.31063 -19.30975 -19.26184 -19.25357
 Alpha  occ. eigenvalues --  -19.25040 -19.24312 -14.47186 -14.46124 -14.44525
 Alpha  occ. eigenvalues --  -14.43919 -10.44822 -10.44151 -10.40135 -10.39984
 Alpha  occ. eigenvalues --  -10.36152 -10.35597 -10.35507 -10.35473 -10.34586
 Alpha  occ. eigenvalues --  -10.34582 -10.34403 -10.34160 -10.33968 -10.33966
 Alpha  occ. eigenvalues --  -10.33144 -10.32951 -10.32871 -10.32863 -10.32325
 Alpha  occ. eigenvalues --  -10.32186 -10.32064 -10.32061 -10.31954 -10.31861
 Alpha  occ. eigenvalues --  -10.31470 -10.31253 -10.30995 -10.30964 -10.30943
 Alpha  occ. eigenvalues --  -10.30420 -10.30391 -10.29970 -10.29941 -10.29715
 Alpha  occ. eigenvalues --  -10.29691 -10.29645 -10.29606 -10.29558 -10.29551
 Alpha  occ. eigenvalues --  -10.29536 -10.29425 -10.29376 -10.29308 -10.29107
 Alpha  occ. eigenvalues --  -10.29064 -10.29053 -10.28984 -10.28913 -10.28778
 Alpha  occ. eigenvalues --  -10.28705 -10.28487 -10.28273 -10.28067 -10.27966
 Alpha  occ. eigenvalues --  -10.27730  -3.21547  -1.95118  -1.94636  -1.94541
 Alpha  occ. eigenvalues --   -1.19240  -1.17143  -1.13717  -1.09853  -1.09701
 Alpha  occ. eigenvalues --   -1.09540  -1.07189  -1.05209  -1.04598  -1.03714
 Alpha  occ. eigenvalues --   -0.94614  -0.92211  -0.91593  -0.91426  -0.90881
 Alpha  occ. eigenvalues --   -0.90790  -0.90187  -0.89706  -0.89221  -0.88697
 Alpha  occ. eigenvalues --   -0.88131  -0.87418  -0.86061  -0.85572  -0.84947
 Alpha  occ. eigenvalues --   -0.84326  -0.83647  -0.83322  -0.82719  -0.81990
 Alpha  occ. eigenvalues --   -0.81683  -0.80368  -0.80274  -0.79238  -0.78261
 Alpha  occ. eigenvalues --   -0.77660  -0.77422  -0.77277  -0.76819  -0.75945
 Alpha  occ. eigenvalues --   -0.75417  -0.74453  -0.73658  -0.72686  -0.71782
 Alpha  occ. eigenvalues --   -0.70981  -0.70294  -0.69642  -0.69340  -0.67835
 Alpha  occ. eigenvalues --   -0.67640  -0.67123  -0.66747  -0.66466  -0.65976
 Alpha  occ. eigenvalues --   -0.65792  -0.64991  -0.64633  -0.63328  -0.62440
 Alpha  occ. eigenvalues --   -0.62097  -0.61741  -0.61567  -0.60832  -0.60107
 Alpha  occ. eigenvalues --   -0.59433  -0.59003  -0.58308  -0.57314  -0.57087
 Alpha  occ. eigenvalues --   -0.56976  -0.56770  -0.56497  -0.56199  -0.56157
 Alpha  occ. eigenvalues --   -0.55900  -0.55435  -0.55382  -0.54460  -0.54396
 Alpha  occ. eigenvalues --   -0.54275  -0.53898  -0.53807  -0.53706  -0.53649
 Alpha  occ. eigenvalues --   -0.53608  -0.53507  -0.53148  -0.52887  -0.52708
 Alpha  occ. eigenvalues --   -0.52253  -0.52068  -0.51852  -0.51576  -0.51520
 Alpha  occ. eigenvalues --   -0.51312  -0.51111  -0.51033  -0.50713  -0.50451
 Alpha  occ. eigenvalues --   -0.50405  -0.50241  -0.50207  -0.50000  -0.49775
 Alpha  occ. eigenvalues --   -0.49545  -0.49389  -0.49186  -0.48535  -0.48340
 Alpha  occ. eigenvalues --   -0.48131  -0.48047  -0.47823  -0.47633  -0.47551
 Alpha  occ. eigenvalues --   -0.47446  -0.47121  -0.47033  -0.46905  -0.46861
 Alpha  occ. eigenvalues --   -0.46494  -0.46185  -0.45964  -0.45849  -0.45628
 Alpha  occ. eigenvalues --   -0.45595  -0.45515  -0.45400  -0.45346  -0.45228
 Alpha  occ. eigenvalues --   -0.45141  -0.44953  -0.44756  -0.44635  -0.44461
 Alpha  occ. eigenvalues --   -0.44277  -0.44118  -0.43920  -0.43720  -0.43414
 Alpha  occ. eigenvalues --   -0.43173  -0.42890  -0.42485  -0.42066  -0.41845
 Alpha  occ. eigenvalues --   -0.41729  -0.41347  -0.41311  -0.41009  -0.40575
 Alpha  occ. eigenvalues --   -0.40556  -0.40014  -0.39910  -0.39751  -0.39463
 Alpha  occ. eigenvalues --   -0.39091  -0.38935  -0.38673  -0.38577  -0.38430
 Alpha  occ. eigenvalues --   -0.37979  -0.37247  -0.36988  -0.36565  -0.36550
 Alpha  occ. eigenvalues --   -0.36494  -0.35514  -0.35494  -0.33911  -0.33664
 Alpha  occ. eigenvalues --   -0.33135  -0.32959  -0.31934  -0.30532  -0.26153
 Alpha  occ. eigenvalues --   -0.22937
 Alpha virt. eigenvalues --   -0.06926  -0.00107   0.01884   0.03837   0.04616
 Alpha virt. eigenvalues --    0.05945   0.06812   0.07302   0.07715   0.09647
 Alpha virt. eigenvalues --    0.10253   0.10981   0.11115   0.11729   0.11899

 Mulliken charges:
               1
     1  Mg   0.954869
     2  C    0.008300
     3  C   -0.087388
     4  C   -0.071177
     5  C   -0.078584
     6  N   -0.408782
     7  C   -0.026283
     8  C   -0.053711
     9  C   -0.153458
    10  C    0.107592
    11  C    0.038679
    12  C    0.075822
    13  C   -0.050516
    14  C    0.260325
    15  O   -0.259541
    16  O   -0.386507
    17  N   -0.461183
    18  C    0.156776
    19  C   -0.148476
    20  C   -0.091301
    21  C    0.214540
    22  C    0.061462
    23  C    0.089283
    24  O   -0.263789
    25  C   -0.036733
    26  N   -0.338340
    27  C   -0.016061
    28  C   -0.022631
    29  C   -0.106447
    30  C    0.055125
    31  C    0.039410
    32  C   -0.005808
    33  C   -0.065906
    34  N   -0.381852
    35  C    0.098002
    36  C   -0.185520
    37  C   -0.022505
    38  C    0.100949
    39  C    0.066859
    40  C    0.162371
    41  O   -0.176376
    42  C   -0.098234
    43  C    0.273944
    44  O   -0.256465
    45  O   -0.353520
    46  C    0.135355
    47  C    0.258122
    48  C   -0.152566
    49  C   -0.214025
    50  C    0.019473
    51  C    0.002973
    52  C   -0.006129
    53  C    0.004595
    54  C   -0.168688
    55  C    0.016282
    56  C   -0.031185
    57  C   -0.006417
    58  C    0.034953
    59  C   -0.222615
    60  C    0.006111
    61  C    0.034007
    62  C   -0.039687
    63  C    0.024458
    64  C   -0.180280
    65  C   -0.023151
    66  C   -0.024783
    67  H   -0.010222
    68  H    0.026623
    69  H   -0.008923
    70  H    0.039202
    71  H    0.044222
    72  H    0.054180
    73  H    0.025400
    74  H    0.036935
    75  H    0.037941
    76  H    0.037936
    77  H    0.086089
    78  H    0.053185
    79  H    0.058909
    80  H    0.040887
    81  H    0.037710
    82  H    0.057655
    83  H    0.052157
    84  H    0.048987
    85  H    0.028639
    86  H    0.020352
    87  H    0.047343
    88  H    0.046706
    89  H    0.041513
    90  H    0.036806
    91  H    0.030968
    92  H    0.033564
    93  H    0.031674
    94  H    0.037633
    95  H    0.020349
    96  H    0.054080
    97  H    0.055376
    98  H    0.063225
    99  H    0.073026
   100  H    0.046756
   101  H    0.050274
   102  H    0.058442
   103  H    0.038751
   104  H    0.021018
   105  H    0.044964
   106  H    0.031268
   107  H    0.050360
   108  H    0.020206
   109  H    0.020565
   110  H    0.019261
   111  H    0.043964
   112  H    0.002116
   113  H    0.017355
   114  H    0.011861
   115  H    0.023369
   116  H    0.027591
   117  H    0.020384
   118  H    0.017721
   119  H    0.021653
   120  H    0.012233
   121  H    0.007500
   122  H    0.024128
   123  H    0.004997
   124  H    0.016336
   125  H    0.022767
   126  H    0.029417
   127  H    0.031232
   128  H    0.005268
   129  H    0.020568
   130  H    0.024146
   131  H    0.020383
   132  H    0.030009
   133  H    0.039740
   134  H    0.026559
   135  H    0.024685
   136  H    0.000914
   137  H    0.028352
   138  H    0.014564
   139  H    0.040975
   140  H    0.023209
 Sum of Mulliken charges =  -0.00000

 Dipole moment (field-independent basis, Debye):
    X=             -3.6694    Y=              2.9025    Z=              0.2517  Tot=              4.6853
 Quadrupole moment (field-independent basis, Debye-Ang):
   XX=           -382.8170   YY=           -415.1838   ZZ=           -406.4811
   XY=             -4.8158   XZ=             29.0424   YZ=             -1.5097

 Normal termination of Gaussian 16 at Wed May  4 00:44:04 2022.
