 Gaussian 16, Revision A.03,
 Gaussian 16:  ES64L-G16RevA.03 25-Dec-2016

 --------------------
 #p ZINDO=(nstates=5)
 --------------------

 ------------------------------
 step_1151_chromophore_13 ZINDO
 ------------------------------
 Symbolic Z-matrix:
 Charge =  0 Multiplicity = 1

                         Standard orientation:
 ---------------------------------------------------------------------
 Center     Atomic      Atomic             Coordinates (Angstroms)
 Number     Number       Type             X           Y           Z
 ---------------------------------------------------------------------
      1         12           0        5.730596    0.408608    0.423669
      2          6           0        3.598447   -2.302052    0.011431
      3          6           0        3.337140    2.487990   -0.874507
      4          6           0        8.094305    2.799774   -0.130946
      5          6           0        8.285494   -1.862556    1.164859
      6          7           0        3.778415    0.056579   -0.372760
      7          6           0        3.013515   -1.074591   -0.326001
      8          6           0        1.537485   -0.859404   -0.662567
      9          6           0        1.544969    0.660690   -1.161036
     10          6           0        3.009491    1.131874   -0.907630
     11          6           0        1.064380    0.923184   -2.568707
     12          6           0        0.550303   -1.086152    0.507369
     13          6           0       -0.634364   -2.051958    0.073950
     14          6           0       -2.073393   -1.800584    0.609420
     15          8           0       -2.440130   -1.478726    1.751277
     16          8           0       -2.975003   -2.124743   -0.446726
     17          7           0        5.692629    2.417846   -0.174890
     18          6           0        4.583223    3.091102   -0.648232
     19          6           0        4.935124    4.531914   -0.858618
     20          6           0        6.405290    4.534450   -0.825174
     21          6           0        6.818145    3.174324   -0.418526
     22          6           0        3.880363    5.596136   -1.272991
     23          6           0        7.308057    5.705576   -1.203598
     24          8           0        8.568828    5.603815   -1.263390
     25          6           0        6.555633    7.033534   -1.602491
     26          7           0        7.934073    0.473370    0.474933
     27          6           0        8.678148    1.612916    0.290242
     28          6           0       10.197995    1.273430    0.461767
     29          6           0       10.101561    0.024884    1.270032
     30          6           0        8.673861   -0.541837    0.975663
     31          6           0       11.148179    1.110685   -0.749464
     32          6           0       10.406958    0.046554    2.818687
     33          6           0        9.175510    0.464863    3.711881
     34          7           0        5.992429   -1.703897    0.550273
     35          6           0        7.015184   -2.480196    0.951031
     36          6           0        6.577229   -3.875485    1.052589
     37          6           0        5.295072   -3.868341    0.693746
     38          6           0        4.934790   -2.522396    0.445187
     39          6           0        7.430721   -5.098386    1.319963
     40          6           0        4.063499   -4.703321    0.637706
     41          8           0        3.880574   -5.877141    0.859652
     42          6           0        3.006593   -3.721166    0.038367
     43          6           0        2.559537   -4.108367   -1.385087
     44          8           0        3.183030   -4.057616   -2.454552
     45          8           0        1.257941   -4.483372   -1.341739
     46          6           0        0.473065   -4.600541   -2.557566
     47          6           0       -4.393690   -2.177538   -0.030897
     48          6           0       -5.243576   -1.237361   -0.796554
     49          6           0       -6.620677   -1.288512   -0.840562
     50          6           0       -7.378670   -2.154225    0.084801
     51          6           0       -7.327437   -0.048658   -1.444214
     52          6           0       -7.443683    1.248468   -0.554158
     53          6           0       -8.824511    1.906836   -0.851824
     54          6           0       -9.269202    2.799867    0.306138
     55          6           0       -8.532246    4.121244    0.294273
     56          6           0       -9.184300    2.120666    1.688197
     57          6           0      -10.432315    2.461393    2.609950
     58          6           0      -11.552992    1.384411    2.552139
     59          6           0      -12.910816    2.037203    1.983754
     60          6           0      -13.580315    2.880184    3.116661
     61          6           0      -13.733080    0.891554    1.329763
     62          6           0      -13.395303    0.533592   -0.149459
     63          6           0      -12.523772   -0.755699   -0.227188
     64          6           0      -12.538572   -1.240918   -1.668739
     65          6           0      -13.573492   -2.333440   -2.006702
     66          6           0      -11.212748   -1.785666   -2.148289
     67          1           0        2.559140    3.124213   -1.300661
     68          1           0        8.925633    3.440468   -0.431928
     69          1           0        9.075153   -2.523806    1.527936
     70          1           0        1.367884   -1.549853   -1.488963
     71          1           0        0.918834    1.301110   -0.539755
     72          1           0        1.854462    1.309111   -3.212473
     73          1           0        0.318757    1.708005   -2.439280
     74          1           0        0.514089    0.062274   -2.947356
     75          1           0        0.207803   -0.123258    0.884005
     76          1           0        1.119198   -1.440052    1.367317
     77          1           0       -0.365984   -3.078919    0.322883
     78          1           0       -0.624235   -2.058210   -1.015908
     79          1           0        3.935421    6.419964   -0.560953
     80          1           0        2.910199    5.157993   -1.508124
     81          1           0        4.096026    6.046900   -2.241826
     82          1           0        5.910912    6.898775   -2.471233
     83          1           0        7.297676    7.802568   -1.817559
     84          1           0        5.922942    7.467331   -0.827976
     85          1           0       10.627276    2.026974    1.121153
     86          1           0       10.753303   -0.782782    0.938190
     87          1           0       10.546825    1.280119   -1.642466
     88          1           0       11.695866    0.170523   -0.807424
     89          1           0       11.867227    1.923404   -0.651003
     90          1           0       11.290376    0.666188    2.975815
     91          1           0       10.650070   -0.955776    3.169383
     92          1           0        8.687138    1.328759    3.262815
     93          1           0        9.347949    0.798894    4.735081
     94          1           0        8.431110   -0.311809    3.891352
     95          1           0        8.419676   -4.816741    1.683536
     96          1           0        7.679999   -5.695254    0.442972
     97          1           0        6.990622   -5.845381    1.980019
     98          1           0        2.170148   -3.871800    0.720625
     99          1           0       -0.589965   -4.723359   -2.350816
    100          1           0        0.820817   -5.485415   -3.090967
    101          1           0        0.707913   -3.878981   -3.340414
    102          1           0       -4.713118   -2.023100    0.999438
    103          1           0       -4.748357   -3.201920   -0.146698
    104          1           0       -4.683966   -0.520649   -1.398076
    105          1           0       -8.352686   -1.711760    0.292611
    106          1           0       -6.859353   -2.331187    1.026568
    107          1           0       -7.519664   -3.127211   -0.385899
    108          1           0       -8.225830   -0.486928   -1.878754
    109          1           0       -6.652680    0.243727   -2.249393
    110          1           0       -6.692359    1.871340   -1.039464
    111          1           0       -7.041176    1.091712    0.446940
    112          1           0       -9.559812    1.114495   -0.990355
    113          1           0       -8.960182    2.361792   -1.833216
    114          1           0      -10.321170    3.022875    0.128316
    115          1           0       -9.281984    4.856364    0.002010
    116          1           0       -7.720247    4.185802   -0.430628
    117          1           0       -8.139749    4.379449    1.277145
    118          1           0       -8.315488    2.490144    2.232472
    119          1           0       -9.064933    1.058053    1.480610
    120          1           0      -10.723790    3.500418    2.452664
    121          1           0       -9.889685    2.592270    3.545307
    122          1           0      -11.750130    0.983317    3.546482
    123          1           0      -11.322656    0.526611    1.919963
    124          1           0      -12.651236    2.829691    1.281700
    125          1           0      -14.592493    2.543713    3.343020
    126          1           0      -13.657247    3.910497    2.772134
    127          1           0      -13.012280    2.823250    4.045826
    128          1           0      -14.718271    1.358600    1.334340
    129          1           0      -13.753667    0.055128    2.028202
    130          1           0      -12.916752    1.366261   -0.665118
    131          1           0      -14.336139    0.398308   -0.683899
    132          1           0      -12.876394   -1.570454    0.405150
    133          1           0      -11.553039   -0.360556    0.069976
    134          1           0      -12.837274   -0.511040   -2.420824
    135          1           0      -14.414515   -2.048652   -2.638503
    136          1           0      -14.173224   -2.627907   -1.145167
    137          1           0      -13.192426   -3.289526   -2.365721
    138          1           0      -10.656045   -2.209578   -1.313610
    139          1           0      -10.542363   -1.036489   -2.570047
    140          1           0      -11.250427   -2.627018   -2.841648
 ---------------------------------------------------------------------

 SCF Done:  E(RZINDO/S) =  -473.949813463     A.U. after   19 cycles

 Excitation energies and oscillator strengths:

 Excited State   1:      Singlet-A      1.2570 eV  986.31 nm  f=0.6236  <S**2>=0.000
     175 ->178        -0.19639
     176 ->177         0.66220
 This state for optimization and/or second-order correction.
 Total Energy, E(CIS/TDA) =  -473.903617805
 Copying the excited state density for this state as the 1-particle RhoCI density.

 Excited State   2:      Singlet-A      1.9159 eV  647.14 nm  f=0.0147  <S**2>=0.000
     175 ->177         0.52085
     176 ->178         0.45663

 Excited State   3:      Singlet-A      2.9340 eV  422.58 nm  f=0.1353  <S**2>=0.000
     175 ->177        -0.15040
     176 ->178         0.18433
     176 ->179         0.60121
     176 ->181         0.18245

 Excited State   4:      Singlet-A      3.0092 eV  412.02 nm  f=0.9976  <S**2>=0.000
     175 ->177        -0.37971
     176 ->178         0.45189
     176 ->179        -0.24466
     176 ->182        -0.12804

 Excited State   5:      Singlet-A      3.0387 eV  408.02 nm  f=0.0334  <S**2>=0.000
     169 ->177        -0.13786
     169 ->179        -0.18044
     169 ->181        -0.14330
     169 ->186        -0.10139
     176 ->179        -0.14744
     176 ->181         0.21326
     176 ->182         0.53794

 The electronic state is 1-A.
 Alpha  occ. eigenvalues --   -1.85914  -1.80279  -1.78058  -1.72586  -1.70176
 Alpha  occ. eigenvalues --   -1.68849  -1.65757  -1.60778  -1.59540  -1.55363
 Alpha  occ. eigenvalues --   -1.53466  -1.51752  -1.48525  -1.47071  -1.44735
 Alpha  occ. eigenvalues --   -1.43501  -1.43303  -1.40008  -1.38519  -1.38142
 Alpha  occ. eigenvalues --   -1.36434  -1.33703  -1.33507  -1.31577  -1.29440
 Alpha  occ. eigenvalues --   -1.27918  -1.24847  -1.21221  -1.20022  -1.18060
 Alpha  occ. eigenvalues --   -1.17436  -1.16137  -1.14961  -1.14453  -1.12901
 Alpha  occ. eigenvalues --   -1.12762  -1.11192  -1.10957  -1.05852  -1.04818
 Alpha  occ. eigenvalues --   -1.03343  -1.02162  -0.99572  -0.98970  -0.98325
 Alpha  occ. eigenvalues --   -0.97234  -0.94844  -0.93491  -0.93151  -0.92142
 Alpha  occ. eigenvalues --   -0.91290  -0.90045  -0.88797  -0.87641  -0.86214
 Alpha  occ. eigenvalues --   -0.85204  -0.84386  -0.83880  -0.81693  -0.81261
 Alpha  occ. eigenvalues --   -0.80839  -0.79664  -0.77162  -0.77124  -0.76827
 Alpha  occ. eigenvalues --   -0.76011  -0.74793  -0.74345  -0.74159  -0.74020
 Alpha  occ. eigenvalues --   -0.73485  -0.73256  -0.72426  -0.72199  -0.71082
 Alpha  occ. eigenvalues --   -0.70168  -0.69521  -0.69006  -0.68286  -0.68149
 Alpha  occ. eigenvalues --   -0.67277  -0.66754  -0.65848  -0.65359  -0.65231
 Alpha  occ. eigenvalues --   -0.65119  -0.64535  -0.64267  -0.63958  -0.63359
 Alpha  occ. eigenvalues --   -0.62740  -0.62559  -0.62291  -0.62084  -0.61740
 Alpha  occ. eigenvalues --   -0.61398  -0.61122  -0.60744  -0.60418  -0.59956
 Alpha  occ. eigenvalues --   -0.59612  -0.59483  -0.58777  -0.58722  -0.57746
 Alpha  occ. eigenvalues --   -0.57532  -0.57444  -0.57221  -0.56902  -0.56216
 Alpha  occ. eigenvalues --   -0.56110  -0.55575  -0.55355  -0.54816  -0.54434
 Alpha  occ. eigenvalues --   -0.54363  -0.54157  -0.53860  -0.53766  -0.53318
 Alpha  occ. eigenvalues --   -0.53042  -0.52850  -0.52420  -0.52308  -0.52231
 Alpha  occ. eigenvalues --   -0.51800  -0.51269  -0.50897  -0.50644  -0.50554
 Alpha  occ. eigenvalues --   -0.50201  -0.49936  -0.49805  -0.49624  -0.49134
 Alpha  occ. eigenvalues --   -0.48914  -0.48621  -0.48308  -0.47829  -0.47378
 Alpha  occ. eigenvalues --   -0.47218  -0.47186  -0.46860  -0.46714  -0.46504
 Alpha  occ. eigenvalues --   -0.46399  -0.46101  -0.45560  -0.45522  -0.45236
 Alpha  occ. eigenvalues --   -0.45018  -0.44767  -0.44499  -0.44230  -0.43974
 Alpha  occ. eigenvalues --   -0.43478  -0.43433  -0.42619  -0.42568  -0.42413
 Alpha  occ. eigenvalues --   -0.41942  -0.41811  -0.41603  -0.40159  -0.39481
 Alpha  occ. eigenvalues --   -0.38917  -0.37545  -0.35979  -0.35608  -0.35165
 Alpha  occ. eigenvalues --   -0.34190  -0.32936  -0.32333  -0.31201  -0.26939
 Alpha  occ. eigenvalues --   -0.21700
 Alpha virt. eigenvalues --   -0.08442  -0.02380  -0.00900   0.00541   0.00676
 Alpha virt. eigenvalues --    0.01076   0.01998   0.02581   0.03767   0.04563
 Alpha virt. eigenvalues --    0.05895   0.06536   0.06822   0.07142   0.08167

 Mulliken charges:
               1
     1  Mg   0.430905
     2  C   -0.062657
     3  C   -0.065167
     4  C   -0.042855
     5  C   -0.067372
     6  N   -0.292476
     7  C    0.145158
     8  C    0.002650
     9  C   -0.001263
    10  C    0.095051
    11  C   -0.049686
    12  C   -0.020793
    13  C    0.004767
    14  C    0.462616
    15  O   -0.502098
    16  O   -0.275225
    17  N   -0.321064
    18  C    0.106034
    19  C   -0.016057
    20  C   -0.050140
    21  C    0.143289
    22  C   -0.043992
    23  C    0.321932
    24  O   -0.529806
    25  C   -0.034487
    26  N   -0.273895
    27  C    0.116671
    28  C    0.018509
    29  C    0.007127
    30  C    0.134701
    31  C   -0.046125
    32  C   -0.024308
    33  C   -0.060289
    34  N   -0.310601
    35  C    0.111481
    36  C    0.047666
    37  C   -0.035137
    38  C    0.116163
    39  C   -0.041983
    40  C    0.335655
    41  O   -0.495061
    42  C    0.056397
    43  C    0.486096
    44  O   -0.524650
    45  O   -0.270896
    46  C    0.070956
    47  C    0.101155
    48  C   -0.073255
    49  C   -0.042107
    50  C   -0.037557
    51  C   -0.034908
    52  C   -0.029083
    53  C   -0.028498
    54  C   -0.008745
    55  C   -0.055299
    56  C   -0.040021
    57  C   -0.045503
    58  C   -0.034866
    59  C   -0.023627
    60  C   -0.059166
    61  C   -0.037054
    62  C   -0.033661
    63  C   -0.024708
    64  C   -0.002118
    65  C   -0.064344
    66  C   -0.056950
    67  H    0.023065
    68  H    0.038569
    69  H    0.020310
    70  H    0.039563
    71  H    0.029966
    72  H    0.033423
    73  H    0.011908
    74  H    0.023238
    75  H    0.033256
    76  H    0.026887
    77  H    0.051109
    78  H    0.037266
    79  H    0.038643
    80  H    0.031396
    81  H    0.023668
    82  H    0.040376
    83  H    0.029728
    84  H    0.035084
    85  H    0.023803
    86  H    0.014932
    87  H    0.027837
    88  H    0.030025
    89  H    0.021055
    90  H    0.024455
    91  H    0.017225
    92  H    0.018264
    93  H    0.014852
    94  H    0.023242
    95  H    0.015531
    96  H    0.034784
    97  H    0.036592
    98  H    0.048866
    99  H    0.041794
   100  H    0.037156
   101  H    0.047489
   102  H    0.064977
   103  H    0.036188
   104  H    0.035273
   105  H    0.020239
   106  H    0.025884
   107  H    0.027662
   108  H    0.026379
   109  H    0.013314
   110  H    0.012129
   111  H    0.045900
   112  H    0.004373
   113  H    0.024474
   114  H    0.010969
   115  H    0.012164
   116  H    0.019008
   117  H    0.019563
   118  H    0.018106
   119  H    0.021157
   120  H    0.025524
   121  H    0.011119
   122  H    0.020780
   123  H    0.023678
   124  H    0.022245
   125  H    0.016287
   126  H    0.017794
   127  H    0.021767
   128  H    0.005523
   129  H    0.027743
   130  H    0.024701
   131  H    0.015628
   132  H    0.033443
   133  H    0.025377
   134  H    0.021661
   135  H    0.016015
   136  H    0.002971
   137  H    0.021804
   138  H    0.007776
   139  H    0.011998
   140  H    0.017618
 Sum of Mulliken charges =  -0.00000

 Dipole moment (field-independent basis, Debye):
    X=             -4.4727    Y=              3.0154    Z=              0.7886  Tot=              5.4515
 N-N= 4.307281416184D+03 E-N= 0.000000000000D+00  KE=-9.288093977981D+03
 Leave Link  601 at Wed May  4 00:57:38 2022, MaxMem=  6710886400 cpu:               0.8 elap:               0.1
 (Enter /sw/apps/gaussian-16.0/g16/l9999.exe)
 1\1\GINC-BP1-COMPUTE101\SP\RZINDO CIS\STO-3G\C55H74Mg1N4O6\OF15641\04-
 May-2022\0\\#p ZINDO=(nstates=5)\\step_1151_chromophore_13 ZINDO\\0,1\
 Mg,0,45.709,24.742,28.352\C,0,46.773,26.827,30.918\C,0,45.204,22.218,3
 0.613\C,0,45.671,22.465,25.817\C,0,46.816,27.163,26.083\N,0,46.037,24.
 593,30.459\C,0,46.329,25.575,31.363\C,0,46.127,25.175,32.825\C,0,45.83
 6,23.608,32.687\C,0,45.783,23.37,31.147\C,0,46.775,22.67,33.408\C,0,44
 .989,25.918,33.565\C,0,45.499,26.506,34.95\C,0,44.554,26.506,36.186\O,

 Normal termination of Gaussian 16 at Wed May  4 00:57:38 2022.
