 Gaussian 16, Revision A.03,
 Gaussian 16:  ES64L-G16RevA.03 25-Dec-2016

 ------------------------------
 #p blyp/Def2SVP td=(nstates=5)
 ------------------------------

 --------------------------------------------------
 step_501_chromophore_17 TDDFT with blyp functional
 --------------------------------------------------
 Symbolic Z-matrix:
 Charge =  0 Multiplicity = 1

                         Standard orientation:
 ---------------------------------------------------------------------
 Center     Atomic      Atomic             Coordinates (Angstroms)
 Number     Number       Type             X           Y           Z
 ---------------------------------------------------------------------
      1         12           0        4.321897    1.061376   -0.481233
      2          6           0        3.725536   -2.460073   -0.781490
      3          6           0        1.873746    1.517984   -2.994624
      4          6           0        4.273975    4.328306    0.283726
      5          6           0        6.151528    0.416593    2.373602
      6          7           0        2.941081   -0.309981   -1.774471
      7          6           0        2.913499   -1.669411   -1.635298
      8          6           0        1.713079   -2.233828   -2.378448
      9          6           0        1.366351   -0.965064   -3.264678
     10          6           0        2.074728    0.199158   -2.684330
     11          6           0        1.675914   -1.054214   -4.796823
     12          6           0        0.657112   -2.774167   -1.361538
     13          6           0       -0.031726   -4.178463   -1.611006
     14          6           0       -1.555940   -4.255487   -1.811527
     15          8           0       -2.050719   -3.863419   -2.833412
     16          8           0       -2.255053   -4.661130   -0.694187
     17          7           0        3.423475    2.680372   -1.314308
     18          6           0        2.454554    2.694209   -2.352084
     19          6           0        2.081435    4.057678   -2.680550
     20          6           0        2.789141    4.869045   -1.703105
     21          6           0        3.538979    3.943471   -0.874738
     22          6           0        1.061903    4.359090   -3.698327
     23          6           0        2.700897    6.404874   -1.674881
     24          8           0        1.889861    6.933965   -2.489835
     25          6           0        3.512759    7.332421   -0.745998
     26          7           0        4.874181    2.272171    1.261267
     27          6           0        4.913023    3.590770    1.250589
     28          6           0        5.521944    4.058083    2.533036
     29          6           0        6.160951    2.779238    3.137477
     30          6           0        5.627616    1.703590    2.241979
     31          6           0        6.534255    5.282218    2.531154
     32          6           0        5.826050    2.510171    4.694518
     33          6           0        6.987866    2.547828    5.717364
     34          7           0        5.007838   -0.602814    0.477039
     35          6           0        5.728433   -0.722402    1.604881
     36          6           0        5.969705   -2.080974    1.927296
     37          6           0        5.231584   -2.792173    0.978384
     38          6           0        4.613533   -1.845169    0.123131
     39          6           0        6.788098   -2.694229    2.991440
     40          6           0        4.882521   -4.135380    0.631953
     41          8           0        5.177043   -5.161570    1.202687
     42          6           0        3.776071   -3.954259   -0.588648
     43          6           0        4.253320   -4.633395   -1.799128
     44          8           0        5.409768   -4.593357   -2.237925
     45          8           0        3.164689   -5.280420   -2.343887
     46          6           0        3.406296   -6.037652   -3.570886
     47          6           0       -3.682350   -4.436038   -0.884603
     48          6           0       -4.157916   -4.311694    0.525110
     49          6           0       -5.473427   -4.193757    0.908599
     50          6           0       -6.673856   -4.337620   -0.091287
     51          6           0       -5.781247   -4.086457    2.448841
     52          6           0       -6.808215   -2.973816    2.821299
     53          6           0       -6.789827   -2.554495    4.248938
     54          6           0       -7.271538   -1.069883    4.394559
     55          6           0       -7.607138   -0.805346    5.913765
     56          6           0       -6.224330   -0.071800    3.893953
     57          6           0       -6.748446    1.031310    2.851839
     58          6           0       -6.258350    0.893746    1.390821
     59          6           0       -7.367020    0.995455    0.237301
     60          6           0       -7.435818   -0.239664   -0.713108
     61          6           0       -7.123233    2.230029   -0.565072
     62          6           0       -8.246482    2.555483   -1.606255
     63          6           0       -8.960985    3.808434   -1.165415
     64          6           0      -10.385434    4.101513   -1.855017
     65          6           0      -10.410253    5.511768   -2.543546
     66          6           0      -11.595262    3.967803   -0.819435
     67          1           0        1.130802    1.724411   -3.766545
     68          1           0        4.213191    5.358140    0.640792
     69          1           0        6.903219    0.158601    3.122752
     70          1           0        2.106761   -2.976679   -3.072674
     71          1           0        0.317805   -0.869715   -2.980175
     72          1           0        2.339309   -0.223669   -5.042285
     73          1           0        0.800195   -0.947016   -5.436541
     74          1           0        2.225850   -1.940104   -5.115889
     75          1           0       -0.084692   -1.979938   -1.442363
     76          1           0        0.964695   -2.786110   -0.316146
     77          1           0        0.266763   -4.786042   -0.756888
     78          1           0        0.507806   -4.680121   -2.413766
     79          1           0        0.184734    3.767077   -3.436129
     80          1           0        1.388172    3.992254   -4.671286
     81          1           0        0.836263    5.406453   -3.900573
     82          1           0        3.117404    7.224752    0.264189
     83          1           0        3.566958    8.272751   -1.293596
     84          1           0        4.512756    6.899996   -0.793453
     85          1           0        4.700708    4.415118    3.153251
     86          1           0        7.204971    2.895878    2.846481
     87          1           0        6.413783    5.731402    3.517283
     88          1           0        6.266440    5.950192    1.712653
     89          1           0        7.532403    4.855947    2.429177
     90          1           0        5.344989    1.532251    4.685547
     91          1           0        5.014422    3.182132    4.973191
     92          1           0        6.999077    1.680157    6.375653
     93          1           0        6.899616    3.459901    6.308243
     94          1           0        7.971681    2.651148    5.259234
     95          1           0        7.023928   -3.734762    2.770599
     96          1           0        6.070502   -2.583833    3.804647
     97          1           0        7.549065   -1.972318    3.287606
     98          1           0        2.774657   -4.228793   -0.259072
     99          1           0        4.248278   -6.721931   -3.463902
    100          1           0        3.574420   -5.350117   -4.401129
    101          1           0        2.524961   -6.641986   -3.785796
    102          1           0       -4.245107   -5.324433   -1.174594
    103          1           0       -3.977149   -3.554178   -1.452746
    104          1           0       -3.351602   -4.303291    1.258804
    105          1           0       -6.919516   -3.296589   -0.298742
    106          1           0       -7.501725   -4.740307    0.492005
    107          1           0       -6.449224   -4.912634   -0.990701
    108          1           0       -4.859133   -3.916111    3.005917
    109          1           0       -6.153486   -5.057702    2.773837
    110          1           0       -7.717363   -3.549129    2.649216
    111          1           0       -6.556782   -2.230164    2.064570
    112          1           0       -5.801346   -2.706333    4.681121
    113          1           0       -7.447924   -3.305254    4.685793
    114          1           0       -8.246815   -1.017621    3.909422
    115          1           0       -7.812301   -1.702364    6.497071
    116          1           0       -8.536609   -0.238398    5.877922
    117          1           0       -6.799226   -0.312586    6.455590
    118          1           0       -5.346230   -0.583853    3.499421
    119          1           0       -5.802829    0.526029    4.702394
    120          1           0       -6.350402    1.969848    3.237062
    121          1           0       -7.835946    1.035242    2.922568
    122          1           0       -5.712132   -0.033328    1.215630
    123          1           0       -5.544315    1.707841    1.266797
    124          1           0       -8.411083    1.009213    0.548483
    125          1           0       -8.482381   -0.493854   -0.884522
    126          1           0       -6.763111   -0.992173   -0.301014
    127          1           0       -7.122194   -0.056495   -1.740556
    128          1           0       -6.165312    2.083593   -1.064692
    129          1           0       -7.090778    3.078862    0.117980
    130          1           0       -8.977771    1.758274   -1.741759
    131          1           0       -7.942252    2.756467   -2.633079
    132          1           0       -8.356622    4.550439   -1.686922
    133          1           0       -9.060916    3.779949   -0.080660
    134          1           0      -10.641042    3.319995   -2.570879
    135          1           0       -9.823402    5.419929   -3.457388
    136          1           0       -9.990759    6.224189   -1.833324
    137          1           0      -11.371142    5.814614   -2.961253
    138          1           0      -12.038416    2.997108   -1.039376
    139          1           0      -12.378368    4.706295   -0.991701
    140          1           0      -11.288329    4.106025    0.217527
 ---------------------------------------------------------------------

 SCF Done:  E(RB-LYP) =  -3007.34501495     A.U. after   20 cycles

 Excitation energies and oscillator strengths:

 Excited State   1:      Singlet-A      1.7279 eV  717.53 nm  f=0.0051  <S**2>=0.000
     244 -> 247        0.69153
     245 -> 247       -0.11827
 This state for optimization and/or second-order correction.
 Total Energy, E(TD-HF/TD-DFT) =  -3007.28151509
 Copying the excited state density for this state as the 1-particle RhoCI density.

 Excited State   2:      Singlet-A      1.8228 eV  680.20 nm  f=0.3035  <S**2>=0.000
     245 -> 248        0.19988
     246 -> 247        0.68488
     246 <- 247       -0.15021

 Excited State   3:      Singlet-A      2.0168 eV  614.77 nm  f=0.0027  <S**2>=0.000
     243 -> 247        0.69934

 Excited State   4:      Singlet-A      2.0438 eV  606.63 nm  f=0.0748  <S**2>=0.000
     242 -> 247        0.21466
     243 -> 247       -0.10273
     244 -> 247        0.10571
     245 -> 247        0.60356
     246 -> 248       -0.23912

 Excited State   5:      Singlet-A      2.1095 eV  587.75 nm  f=0.0119  <S**2>=0.000
     242 -> 247        0.67249
     245 -> 247       -0.18704

 The electronic state is 1-A.
 Alpha  occ. eigenvalues --  -46.27333 -18.83186 -18.82953 -18.77348 -18.77024
 Alpha  occ. eigenvalues --  -18.76571 -18.74976 -14.03022 -14.02717 -14.01472
 Alpha  occ. eigenvalues --  -14.01403 -10.04486 -10.04209 -10.00007 -10.00004
 Alpha  occ. eigenvalues --   -9.98322  -9.97560  -9.96688  -9.96390  -9.96209
 Alpha  occ. eigenvalues --   -9.96031  -9.96013  -9.95990  -9.95505  -9.94727
 Alpha  occ. eigenvalues --   -9.94226  -9.94210  -9.94177  -9.93892  -9.93710
 Alpha  occ. eigenvalues --   -9.93649  -9.93594  -9.93557  -9.93504  -9.93477
 Alpha  occ. eigenvalues --   -9.93250  -9.93186  -9.93150  -9.93035  -9.92879
 Alpha  occ. eigenvalues --   -9.92729  -9.92655  -9.92596  -9.92587  -9.92540
 Alpha  occ. eigenvalues --   -9.92483  -9.92474  -9.92383  -9.92218  -9.91776
 Alpha  occ. eigenvalues --   -9.91709  -9.91625  -9.91526  -9.91492  -9.91319
 Alpha  occ. eigenvalues --   -9.91083  -9.91044  -9.90968  -9.90957  -9.90887
 Alpha  occ. eigenvalues --   -9.90828  -9.90740  -9.90736  -9.90694  -9.90580
 Alpha  occ. eigenvalues --   -9.90519  -2.91986  -1.72401  -1.71879  -1.71698
 Alpha  occ. eigenvalues --   -0.98784  -0.97929  -0.92392  -0.91159  -0.90090
 Alpha  occ. eigenvalues --   -0.88990  -0.87718  -0.87070  -0.86063  -0.84862
 Alpha  occ. eigenvalues --   -0.75960  -0.73232  -0.72764  -0.72634  -0.72153
 Alpha  occ. eigenvalues --   -0.71650  -0.71418  -0.71363  -0.70943  -0.70148
 Alpha  occ. eigenvalues --   -0.69532  -0.68798  -0.68310  -0.67776  -0.67251
 Alpha  occ. eigenvalues --   -0.66535  -0.66221  -0.65461  -0.65087  -0.64650
 Alpha  occ. eigenvalues --   -0.64090  -0.62725  -0.62317  -0.61859  -0.60974
 Alpha  occ. eigenvalues --   -0.60244  -0.60133  -0.59671  -0.59611  -0.58607
 Alpha  occ. eigenvalues --   -0.58237  -0.57614  -0.57172  -0.55633  -0.55184
 Alpha  occ. eigenvalues --   -0.54550  -0.53460  -0.52481  -0.52137  -0.51664
 Alpha  occ. eigenvalues --   -0.51555  -0.51063  -0.50858  -0.50605  -0.50203
 Alpha  occ. eigenvalues --   -0.49593  -0.49173  -0.48854  -0.48457  -0.46589
 Alpha  occ. eigenvalues --   -0.46358  -0.45968  -0.45923  -0.45464  -0.44899
 Alpha  occ. eigenvalues --   -0.44257  -0.43602  -0.43114  -0.42831  -0.42654
 Alpha  occ. eigenvalues --   -0.42540  -0.42363  -0.41915  -0.41654  -0.41425
 Alpha  occ. eigenvalues --   -0.41032  -0.40659  -0.40506  -0.40367  -0.40206
 Alpha  occ. eigenvalues --   -0.39929  -0.39879  -0.39429  -0.39383  -0.39254
 Alpha  occ. eigenvalues --   -0.39137  -0.38808  -0.38703  -0.38499  -0.38138
 Alpha  occ. eigenvalues --   -0.37844  -0.37678  -0.37591  -0.37344  -0.37274
 Alpha  occ. eigenvalues --   -0.37043  -0.36655  -0.36592  -0.36503  -0.36396
 Alpha  occ. eigenvalues --   -0.36302  -0.36042  -0.35876  -0.35824  -0.35633
 Alpha  occ. eigenvalues --   -0.35362  -0.35263  -0.35219  -0.35016  -0.34971
 Alpha  occ. eigenvalues --   -0.34820  -0.34717  -0.34471  -0.34386  -0.34275
 Alpha  occ. eigenvalues --   -0.33942  -0.33914  -0.33717  -0.33657  -0.33422
 Alpha  occ. eigenvalues --   -0.33143  -0.32704  -0.32632  -0.32308  -0.32021
 Alpha  occ. eigenvalues --   -0.31988  -0.31926  -0.31782  -0.31617  -0.31520
 Alpha  occ. eigenvalues --   -0.31392  -0.31372  -0.31214  -0.31173  -0.30888
 Alpha  occ. eigenvalues --   -0.30675  -0.30296  -0.30126  -0.30002  -0.29826
 Alpha  occ. eigenvalues --   -0.29742  -0.29629  -0.29332  -0.29273  -0.28984
 Alpha  occ. eigenvalues --   -0.28826  -0.28648  -0.27929  -0.27782  -0.27586
 Alpha  occ. eigenvalues --   -0.27390  -0.26931  -0.26672  -0.26614  -0.26527
 Alpha  occ. eigenvalues --   -0.26458  -0.26324  -0.25909  -0.25753  -0.25716
 Alpha  occ. eigenvalues --   -0.24816  -0.24751  -0.24675  -0.24262  -0.23785
 Alpha  occ. eigenvalues --   -0.23226  -0.22816  -0.22069  -0.21899  -0.20822
 Alpha  occ. eigenvalues --   -0.20099  -0.19357  -0.19145  -0.18019  -0.17469
 Alpha  occ. eigenvalues --   -0.16021
 Alpha virt. eigenvalues --   -0.11733  -0.06910  -0.06280  -0.04651  -0.03442
 Alpha virt. eigenvalues --   -0.03094  -0.02607  -0.01247  -0.01106  -0.00233
 Alpha virt. eigenvalues --    0.01320   0.01609   0.02259   0.02352   0.02500

 Mulliken charges:
               1
     1  Mg   0.713746
     2  C   -0.089957
     3  C   -0.063256
     4  C   -0.068257
     5  C   -0.089816
     6  N   -0.178145
     7  C   -0.127082
     8  C    0.031507
     9  C    0.032766
    10  C    0.019539
    11  C    0.138324
    12  C    0.111320
    13  C    0.147311
    14  C    0.076394
    15  O   -0.181345
    16  O   -0.262485
    17  N   -0.304040
    18  C    0.108124
    19  C   -0.126543
    20  C    0.014818
    21  C    0.174786
    22  C    0.196417
    23  C   -0.100136
    24  O   -0.206004
    25  C    0.163889
    26  N   -0.199006
    27  C   -0.048728
    28  C    0.017341
    29  C    0.015790
    30  C    0.041176
    31  C    0.128631
    32  C    0.108780
    33  C    0.071339
    34  N   -0.246671
    35  C    0.084618
    36  C   -0.202266
    37  C    0.061084
    38  C    0.122392
    39  C    0.227694
    40  C   -0.036469
    41  O   -0.112294
    42  C    0.099756
    43  C    0.133365
    44  O   -0.186828
    45  O   -0.277479
    46  C    0.218647
    47  C    0.329611
    48  C   -0.173499
    49  C   -0.157564
    50  C    0.151546
    51  C    0.098049
    52  C    0.035640
    53  C    0.113318
    54  C   -0.045238
    55  C    0.102585
    56  C    0.107543
    57  C    0.067031
    58  C    0.131151
    59  C   -0.090888
    60  C    0.081033
    61  C    0.106969
    62  C    0.054306
    63  C    0.099805
    64  C   -0.098343
    65  C    0.090094
    66  C    0.080331
    67  H   -0.062677
    68  H   -0.090704
    69  H   -0.056930
    70  H   -0.034528
    71  H   -0.028202
    72  H   -0.011244
    73  H    0.003079
    74  H   -0.009160
    75  H   -0.022203
    76  H    0.003581
    77  H   -0.022663
    78  H   -0.004475
    79  H    0.000879
    80  H   -0.016627
    81  H    0.009368
    82  H    0.036953
    83  H    0.003733
    84  H   -0.003767
    85  H   -0.022635
    86  H   -0.024764
    87  H   -0.005979
    88  H   -0.000856
    89  H   -0.012134
    90  H   -0.021384
    91  H   -0.028609
    92  H    0.001113
    93  H   -0.008845
    94  H   -0.010031
    95  H    0.029040
    96  H   -0.005326
    97  H   -0.017583
    98  H   -0.010773
    99  H    0.023313
   100  H    0.014049
   101  H    0.015598
   102  H    0.009208
   103  H    0.024053
   104  H   -0.030838
   105  H    0.000435
   106  H   -0.008527
   107  H    0.002176
   108  H   -0.039093
   109  H   -0.026310
   110  H   -0.027601
   111  H   -0.009012
   112  H   -0.036018
   113  H   -0.042016
   114  H   -0.033968
   115  H   -0.026991
   116  H   -0.016611
   117  H   -0.013809
   118  H   -0.030579
   119  H   -0.039410
   120  H   -0.032219
   121  H   -0.022107
   122  H   -0.029742
   123  H   -0.032887
   124  H   -0.041520
   125  H   -0.012140
   126  H    0.008952
   127  H   -0.025919
   128  H   -0.030721
   129  H   -0.028140
   130  H   -0.042679
   131  H   -0.039406
   132  H   -0.029630
   133  H   -0.015635
   134  H   -0.038707
   135  H   -0.020593
   136  H    0.002280
   137  H   -0.017486
   138  H   -0.013651
   139  H   -0.024969
   140  H   -0.013004
 Sum of Mulliken charges =  -0.00000

 Dipole moment (field-independent basis, Debye):
    X=             -0.6302    Y=              0.8474    Z=              2.3989  Tot=              2.6211
 Quadrupole moment (field-independent basis, Debye-Ang):
   XX=           -393.9442   YY=           -435.1947   ZZ=           -392.9946
   XY=             36.3316   XZ=             11.0370   YZ=             27.1730

 Normal termination of Gaussian 16 at Thu May  5 00:33:36 2022.
