 Gaussian 16, Revision A.03,
 Gaussian 16:  ES64L-G16RevA.03 25-Dec-2016

 -----------------------------------
 #p cam-b3lyp/Def2SVP td=(nstates=5)
 -----------------------------------

 -------------------------------------------------------
 step_501_chromophore_17 TDDFT with cam-b3lyp functional
 -------------------------------------------------------
 Symbolic Z-matrix:
 Charge =  0 Multiplicity = 1

                         Standard orientation:
 ---------------------------------------------------------------------
 Center     Atomic      Atomic             Coordinates (Angstroms)
 Number     Number       Type             X           Y           Z
 ---------------------------------------------------------------------
      1         12           0        4.321897    1.061376   -0.481233
      2          6           0        3.725536   -2.460073   -0.781490
      3          6           0        1.873746    1.517984   -2.994624
      4          6           0        4.273975    4.328306    0.283726
      5          6           0        6.151528    0.416593    2.373602
      6          7           0        2.941081   -0.309981   -1.774471
      7          6           0        2.913499   -1.669411   -1.635298
      8          6           0        1.713079   -2.233828   -2.378448
      9          6           0        1.366351   -0.965064   -3.264678
     10          6           0        2.074728    0.199158   -2.684330
     11          6           0        1.675914   -1.054214   -4.796823
     12          6           0        0.657112   -2.774167   -1.361538
     13          6           0       -0.031726   -4.178463   -1.611006
     14          6           0       -1.555940   -4.255487   -1.811527
     15          8           0       -2.050719   -3.863419   -2.833412
     16          8           0       -2.255053   -4.661130   -0.694187
     17          7           0        3.423475    2.680372   -1.314308
     18          6           0        2.454554    2.694209   -2.352084
     19          6           0        2.081435    4.057678   -2.680550
     20          6           0        2.789141    4.869045   -1.703105
     21          6           0        3.538979    3.943471   -0.874738
     22          6           0        1.061903    4.359090   -3.698327
     23          6           0        2.700897    6.404874   -1.674881
     24          8           0        1.889861    6.933965   -2.489835
     25          6           0        3.512759    7.332421   -0.745998
     26          7           0        4.874181    2.272171    1.261267
     27          6           0        4.913023    3.590770    1.250589
     28          6           0        5.521944    4.058083    2.533036
     29          6           0        6.160951    2.779238    3.137477
     30          6           0        5.627616    1.703590    2.241979
     31          6           0        6.534255    5.282218    2.531154
     32          6           0        5.826050    2.510171    4.694518
     33          6           0        6.987866    2.547828    5.717364
     34          7           0        5.007838   -0.602814    0.477039
     35          6           0        5.728433   -0.722402    1.604881
     36          6           0        5.969705   -2.080974    1.927296
     37          6           0        5.231584   -2.792173    0.978384
     38          6           0        4.613533   -1.845169    0.123131
     39          6           0        6.788098   -2.694229    2.991440
     40          6           0        4.882521   -4.135380    0.631953
     41          8           0        5.177043   -5.161570    1.202687
     42          6           0        3.776071   -3.954259   -0.588648
     43          6           0        4.253320   -4.633395   -1.799128
     44          8           0        5.409768   -4.593357   -2.237925
     45          8           0        3.164689   -5.280420   -2.343887
     46          6           0        3.406296   -6.037652   -3.570886
     47          6           0       -3.682350   -4.436038   -0.884603
     48          6           0       -4.157916   -4.311694    0.525110
     49          6           0       -5.473427   -4.193757    0.908599
     50          6           0       -6.673856   -4.337620   -0.091287
     51          6           0       -5.781247   -4.086457    2.448841
     52          6           0       -6.808215   -2.973816    2.821299
     53          6           0       -6.789827   -2.554495    4.248938
     54          6           0       -7.271538   -1.069883    4.394559
     55          6           0       -7.607138   -0.805346    5.913765
     56          6           0       -6.224330   -0.071800    3.893953
     57          6           0       -6.748446    1.031310    2.851839
     58          6           0       -6.258350    0.893746    1.390821
     59          6           0       -7.367020    0.995455    0.237301
     60          6           0       -7.435818   -0.239664   -0.713108
     61          6           0       -7.123233    2.230029   -0.565072
     62          6           0       -8.246482    2.555483   -1.606255
     63          6           0       -8.960985    3.808434   -1.165415
     64          6           0      -10.385434    4.101513   -1.855017
     65          6           0      -10.410253    5.511768   -2.543546
     66          6           0      -11.595262    3.967803   -0.819435
     67          1           0        1.130802    1.724411   -3.766545
     68          1           0        4.213191    5.358140    0.640792
     69          1           0        6.903219    0.158601    3.122752
     70          1           0        2.106761   -2.976679   -3.072674
     71          1           0        0.317805   -0.869715   -2.980175
     72          1           0        2.339309   -0.223669   -5.042285
     73          1           0        0.800195   -0.947016   -5.436541
     74          1           0        2.225850   -1.940104   -5.115889
     75          1           0       -0.084692   -1.979938   -1.442363
     76          1           0        0.964695   -2.786110   -0.316146
     77          1           0        0.266763   -4.786042   -0.756888
     78          1           0        0.507806   -4.680121   -2.413766
     79          1           0        0.184734    3.767077   -3.436129
     80          1           0        1.388172    3.992254   -4.671286
     81          1           0        0.836263    5.406453   -3.900573
     82          1           0        3.117404    7.224752    0.264189
     83          1           0        3.566958    8.272751   -1.293596
     84          1           0        4.512756    6.899996   -0.793453
     85          1           0        4.700708    4.415118    3.153251
     86          1           0        7.204971    2.895878    2.846481
     87          1           0        6.413783    5.731402    3.517283
     88          1           0        6.266440    5.950192    1.712653
     89          1           0        7.532403    4.855947    2.429177
     90          1           0        5.344989    1.532251    4.685547
     91          1           0        5.014422    3.182132    4.973191
     92          1           0        6.999077    1.680157    6.375653
     93          1           0        6.899616    3.459901    6.308243
     94          1           0        7.971681    2.651148    5.259234
     95          1           0        7.023928   -3.734762    2.770599
     96          1           0        6.070502   -2.583833    3.804647
     97          1           0        7.549065   -1.972318    3.287606
     98          1           0        2.774657   -4.228793   -0.259072
     99          1           0        4.248278   -6.721931   -3.463902
    100          1           0        3.574420   -5.350117   -4.401129
    101          1           0        2.524961   -6.641986   -3.785796
    102          1           0       -4.245107   -5.324433   -1.174594
    103          1           0       -3.977149   -3.554178   -1.452746
    104          1           0       -3.351602   -4.303291    1.258804
    105          1           0       -6.919516   -3.296589   -0.298742
    106          1           0       -7.501725   -4.740307    0.492005
    107          1           0       -6.449224   -4.912634   -0.990701
    108          1           0       -4.859133   -3.916111    3.005917
    109          1           0       -6.153486   -5.057702    2.773837
    110          1           0       -7.717363   -3.549129    2.649216
    111          1           0       -6.556782   -2.230164    2.064570
    112          1           0       -5.801346   -2.706333    4.681121
    113          1           0       -7.447924   -3.305254    4.685793
    114          1           0       -8.246815   -1.017621    3.909422
    115          1           0       -7.812301   -1.702364    6.497071
    116          1           0       -8.536609   -0.238398    5.877922
    117          1           0       -6.799226   -0.312586    6.455590
    118          1           0       -5.346230   -0.583853    3.499421
    119          1           0       -5.802829    0.526029    4.702394
    120          1           0       -6.350402    1.969848    3.237062
    121          1           0       -7.835946    1.035242    2.922568
    122          1           0       -5.712132   -0.033328    1.215630
    123          1           0       -5.544315    1.707841    1.266797
    124          1           0       -8.411083    1.009213    0.548483
    125          1           0       -8.482381   -0.493854   -0.884522
    126          1           0       -6.763111   -0.992173   -0.301014
    127          1           0       -7.122194   -0.056495   -1.740556
    128          1           0       -6.165312    2.083593   -1.064692
    129          1           0       -7.090778    3.078862    0.117980
    130          1           0       -8.977771    1.758274   -1.741759
    131          1           0       -7.942252    2.756467   -2.633079
    132          1           0       -8.356622    4.550439   -1.686922
    133          1           0       -9.060916    3.779949   -0.080660
    134          1           0      -10.641042    3.319995   -2.570879
    135          1           0       -9.823402    5.419929   -3.457388
    136          1           0       -9.990759    6.224189   -1.833324
    137          1           0      -11.371142    5.814614   -2.961253
    138          1           0      -12.038416    2.997108   -1.039376
    139          1           0      -12.378368    4.706295   -0.991701
    140          1           0      -11.288329    4.106025    0.217527
 ---------------------------------------------------------------------

 SCF Done:  E(RCAM-B3LYP) =  -3007.13447344     A.U. after   17 cycles

 Excitation energies and oscillator strengths:

 Excited State   1:      Singlet-A      1.6997 eV  729.43 nm  f=0.3781  <S**2>=0.000
     245 -> 248       -0.18561
     246 -> 247        0.68529
     245 <- 248       -0.11144
 This state for optimization and/or second-order correction.
 Total Energy, E(TD-HF/TD-DFT) =  -3007.07200946
 Copying the excited state density for this state as the 1-particle RhoCI density.

 Excited State   2:      Singlet-A      2.2522 eV  550.50 nm  f=0.1313  <S**2>=0.000
     245 -> 247        0.64088
     246 -> 248        0.28924

 Excited State   3:      Singlet-A      3.2716 eV  378.97 nm  f=0.0060  <S**2>=0.000
     243 -> 247        0.67996

 Excited State   4:      Singlet-A      3.4177 eV  362.77 nm  f=0.0018  <S**2>=0.000
     241 -> 247        0.49807
     241 -> 248        0.10585
     241 -> 249        0.30709
     241 -> 250       -0.13654
     241 -> 251        0.21423
     242 -> 247       -0.19313

 Excited State   5:      Singlet-A      3.4766 eV  356.62 nm  f=0.0146  <S**2>=0.000
     240 -> 247        0.19278
     240 -> 249       -0.10741
     241 -> 247        0.19588
     242 -> 247        0.58546
     246 -> 248       -0.18885

 The electronic state is 1-A.
 Alpha  occ. eigenvalues --  -46.88944 -19.26355 -19.25856 -19.20615 -19.20068
 Alpha  occ. eigenvalues --  -19.19772 -19.18163 -14.41980 -14.41437 -14.39970
 Alpha  occ. eigenvalues --  -14.39863 -10.40156 -10.39514 -10.35486 -10.35276
 Alpha  occ. eigenvalues --  -10.32475 -10.31535 -10.31239 -10.30801 -10.30687
 Alpha  occ. eigenvalues --  -10.30446 -10.30361 -10.30351 -10.29776 -10.29112
 Alpha  occ. eigenvalues --  -10.28798 -10.28615 -10.28198 -10.28147 -10.27965
 Alpha  occ. eigenvalues --  -10.27629 -10.27584 -10.27541 -10.27537 -10.27519
 Alpha  occ. eigenvalues --  -10.27492 -10.27266 -10.27229 -10.27113 -10.27038
 Alpha  occ. eigenvalues --  -10.26818 -10.26705 -10.26474 -10.26377 -10.26256
 Alpha  occ. eigenvalues --  -10.26238 -10.26106 -10.26101 -10.26032 -10.25504
 Alpha  occ. eigenvalues --  -10.25468 -10.25281 -10.25208 -10.25149 -10.25064
 Alpha  occ. eigenvalues --  -10.25048 -10.24721 -10.24636 -10.24635 -10.24590
 Alpha  occ. eigenvalues --  -10.24494 -10.24443 -10.24382 -10.24337 -10.24276
 Alpha  occ. eigenvalues --  -10.24199  -3.17499  -1.92389  -1.91943  -1.91816
 Alpha  occ. eigenvalues --   -1.17301  -1.16612  -1.10855  -1.09101  -1.08228
 Alpha  occ. eigenvalues --   -1.07272  -1.05486  -1.04761  -1.03789  -1.02384
 Alpha  occ. eigenvalues --   -0.93235  -0.90061  -0.89545  -0.89362  -0.88889
 Alpha  occ. eigenvalues --   -0.88271  -0.88076  -0.88002  -0.87504  -0.86674
 Alpha  occ. eigenvalues --   -0.86061  -0.85164  -0.84605  -0.84021  -0.83431
 Alpha  occ. eigenvalues --   -0.82600  -0.82313  -0.81407  -0.81052  -0.80551
 Alpha  occ. eigenvalues --   -0.79851  -0.78406  -0.77906  -0.77487  -0.76468
 Alpha  occ. eigenvalues --   -0.75591  -0.75456  -0.74966  -0.74923  -0.73784
 Alpha  occ. eigenvalues --   -0.73307  -0.72621  -0.72126  -0.70461  -0.69802
 Alpha  occ. eigenvalues --   -0.69240  -0.68014  -0.66918  -0.66211  -0.65811
 Alpha  occ. eigenvalues --   -0.65720  -0.65216  -0.64934  -0.64791  -0.64270
 Alpha  occ. eigenvalues --   -0.63535  -0.63019  -0.62773  -0.62351  -0.60183
 Alpha  occ. eigenvalues --   -0.59938  -0.59633  -0.59514  -0.58942  -0.58528
 Alpha  occ. eigenvalues --   -0.57637  -0.56947  -0.56284  -0.56036  -0.55993
 Alpha  occ. eigenvalues --   -0.55658  -0.55373  -0.54946  -0.54630  -0.54500
 Alpha  occ. eigenvalues --   -0.54199  -0.53795  -0.53324  -0.53060  -0.52990
 Alpha  occ. eigenvalues --   -0.52666  -0.52414  -0.52124  -0.51864  -0.51797
 Alpha  occ. eigenvalues --   -0.51616  -0.51338  -0.51241  -0.50849  -0.50430
 Alpha  occ. eigenvalues --   -0.50219  -0.50106  -0.50049  -0.49929  -0.49647
 Alpha  occ. eigenvalues --   -0.49457  -0.49157  -0.48823  -0.48608  -0.48497
 Alpha  occ. eigenvalues --   -0.48395  -0.48087  -0.47930  -0.47807  -0.47728
 Alpha  occ. eigenvalues --   -0.47574  -0.47493  -0.47308  -0.47213  -0.46943
 Alpha  occ. eigenvalues --   -0.46611  -0.46512  -0.46470  -0.46269  -0.46215
 Alpha  occ. eigenvalues --   -0.46091  -0.45857  -0.45662  -0.45564  -0.45225
 Alpha  occ. eigenvalues --   -0.44869  -0.44527  -0.44248  -0.43981  -0.43805
 Alpha  occ. eigenvalues --   -0.43653  -0.43612  -0.43395  -0.43340  -0.43233
 Alpha  occ. eigenvalues --   -0.43132  -0.42939  -0.42774  -0.42581  -0.42371
 Alpha  occ. eigenvalues --   -0.42114  -0.41548  -0.41365  -0.41274  -0.41134
 Alpha  occ. eigenvalues --   -0.41027  -0.40979  -0.40498  -0.40421  -0.40185
 Alpha  occ. eigenvalues --   -0.39870  -0.39589  -0.38835  -0.38703  -0.38550
 Alpha  occ. eigenvalues --   -0.38420  -0.37905  -0.37796  -0.37731  -0.37524
 Alpha  occ. eigenvalues --   -0.37342  -0.37231  -0.36779  -0.36700  -0.36362
 Alpha  occ. eigenvalues --   -0.36002  -0.35362  -0.35244  -0.35185  -0.34591
 Alpha  occ. eigenvalues --   -0.34395  -0.33953  -0.33055  -0.31381  -0.31164
 Alpha  occ. eigenvalues --   -0.30361  -0.30138  -0.29405  -0.28744  -0.24207
 Alpha  occ. eigenvalues --   -0.21355
 Alpha virt. eigenvalues --   -0.08961  -0.01788   0.00249   0.02276   0.02421
 Alpha virt. eigenvalues --    0.04192   0.04720   0.05604   0.06308   0.06634
 Alpha virt. eigenvalues --    0.07807   0.08323   0.08458   0.08762   0.09143

 Mulliken charges:
               1
     1  Mg   0.845565
     2  C   -0.114852
     3  C   -0.072177
     4  C   -0.091086
     5  C   -0.092405
     6  N   -0.246650
     7  C   -0.072430
     8  C   -0.015036
     9  C   -0.025482
    10  C    0.033528
    11  C    0.077492
    12  C    0.054596
    13  C    0.080808
    14  C    0.156090
    15  O   -0.221274
    16  O   -0.327972
    17  N   -0.393948
    18  C    0.113940
    19  C   -0.127611
    20  C   -0.056993
    21  C    0.207695
    22  C    0.128382
    23  C   -0.019362
    24  O   -0.248599
    25  C    0.082579
    26  N   -0.275412
    27  C   -0.015889
    28  C   -0.039461
    29  C   -0.051895
    30  C    0.065028
    31  C    0.078737
    32  C    0.053612
    33  C    0.008846
    34  N   -0.340666
    35  C    0.091690
    36  C   -0.194293
    37  C   -0.020696
    38  C    0.159169
    39  C    0.167712
    40  C    0.065101
    41  O   -0.151821
    42  C    0.019743
    43  C    0.225618
    44  O   -0.223809
    45  O   -0.342665
    46  C    0.177780
    47  C    0.291757
    48  C   -0.185462
    49  C   -0.183446
    50  C    0.093000
    51  C    0.052715
    52  C   -0.015241
    53  C    0.059969
    54  C   -0.108716
    55  C    0.048558
    56  C    0.052311
    57  C    0.016030
    58  C    0.075405
    59  C   -0.142249
    60  C    0.028412
    61  C    0.051093
    62  C    0.003898
    63  C    0.042910
    64  C   -0.154975
    65  C    0.030316
    66  C    0.024299
    67  H   -0.023932
    68  H   -0.057442
    69  H   -0.022513
    70  H   -0.001501
    71  H    0.007900
    72  H    0.015274
    73  H    0.027804
    74  H    0.014998
    75  H    0.008769
    76  H    0.033885
    77  H    0.011434
    78  H    0.026523
    79  H    0.026576
    80  H    0.010775
    81  H    0.043938
    82  H    0.062205
    83  H    0.038928
    84  H    0.023448
    85  H    0.011689
    86  H    0.009147
    87  H    0.018305
    88  H    0.020349
    89  H    0.011190
    90  H    0.009825
    91  H    0.000681
    92  H    0.024644
    93  H    0.014032
    94  H    0.012706
    95  H    0.057021
    96  H    0.022473
    97  H    0.007153
    98  H    0.032246
    99  H    0.048121
   100  H    0.036232
   101  H    0.038931
   102  H    0.033935
   103  H    0.053746
   104  H    0.005820
   105  H    0.021364
   106  H    0.016196
   107  H    0.026255
   108  H   -0.010210
   109  H    0.002339
   110  H   -0.001014
   111  H    0.010204
   112  H   -0.007697
   113  H   -0.011996
   114  H   -0.001842
   115  H   -0.001738
   116  H    0.007142
   117  H    0.008980
   118  H   -0.002706
   119  H   -0.008629
   120  H   -0.002939
   121  H    0.003796
   122  H   -0.004343
   123  H   -0.002063
   124  H   -0.010733
   125  H    0.011300
   126  H    0.022783
   127  H   -0.000389
   128  H   -0.001599
   129  H    0.000375
   130  H   -0.015909
   131  H   -0.010469
   132  H    0.000599
   133  H    0.009844
   134  H   -0.007146
   135  H    0.002843
   136  H    0.024727
   137  H    0.007371
   138  H    0.009084
   139  H   -0.000350
   140  H    0.009445
 Sum of Mulliken charges =  -0.00000

 Dipole moment (field-independent basis, Debye):
    X=             -0.6252    Y=              0.9723    Z=              2.3347  Tot=              2.6052
 Quadrupole moment (field-independent basis, Debye-Ang):
   XX=           -393.7914   YY=           -431.7947   ZZ=           -391.3213
   XY=             38.2198   XZ=             11.7771   YZ=             28.6105

 Normal termination of Gaussian 16 at Wed May  4 23:15:14 2022.
