 Gaussian 16, Revision A.03,
 Gaussian 16:  ES64L-G16RevA.03 25-Dec-2016

 ---------------------------------
 #p PBE1PBE/Def2SVP td=(nstates=5)
 ---------------------------------

 -----------------------------------------------------
 step_501_chromophore_17 TDDFT with PBE1PBE functional
 -----------------------------------------------------
 Symbolic Z-matrix:
 Charge =  0 Multiplicity = 1

                         Standard orientation:
 ---------------------------------------------------------------------
 Center     Atomic      Atomic             Coordinates (Angstroms)
 Number     Number       Type             X           Y           Z
 ---------------------------------------------------------------------
      1         12           0        4.321897    1.061376   -0.481233
      2          6           0        3.725536   -2.460073   -0.781490
      3          6           0        1.873746    1.517984   -2.994624
      4          6           0        4.273975    4.328306    0.283726
      5          6           0        6.151528    0.416593    2.373602
      6          7           0        2.941081   -0.309981   -1.774471
      7          6           0        2.913499   -1.669411   -1.635298
      8          6           0        1.713079   -2.233828   -2.378448
      9          6           0        1.366351   -0.965064   -3.264678
     10          6           0        2.074728    0.199158   -2.684330
     11          6           0        1.675914   -1.054214   -4.796823
     12          6           0        0.657112   -2.774167   -1.361538
     13          6           0       -0.031726   -4.178463   -1.611006
     14          6           0       -1.555940   -4.255487   -1.811527
     15          8           0       -2.050719   -3.863419   -2.833412
     16          8           0       -2.255053   -4.661130   -0.694187
     17          7           0        3.423475    2.680372   -1.314308
     18          6           0        2.454554    2.694209   -2.352084
     19          6           0        2.081435    4.057678   -2.680550
     20          6           0        2.789141    4.869045   -1.703105
     21          6           0        3.538979    3.943471   -0.874738
     22          6           0        1.061903    4.359090   -3.698327
     23          6           0        2.700897    6.404874   -1.674881
     24          8           0        1.889861    6.933965   -2.489835
     25          6           0        3.512759    7.332421   -0.745998
     26          7           0        4.874181    2.272171    1.261267
     27          6           0        4.913023    3.590770    1.250589
     28          6           0        5.521944    4.058083    2.533036
     29          6           0        6.160951    2.779238    3.137477
     30          6           0        5.627616    1.703590    2.241979
     31          6           0        6.534255    5.282218    2.531154
     32          6           0        5.826050    2.510171    4.694518
     33          6           0        6.987866    2.547828    5.717364
     34          7           0        5.007838   -0.602814    0.477039
     35          6           0        5.728433   -0.722402    1.604881
     36          6           0        5.969705   -2.080974    1.927296
     37          6           0        5.231584   -2.792173    0.978384
     38          6           0        4.613533   -1.845169    0.123131
     39          6           0        6.788098   -2.694229    2.991440
     40          6           0        4.882521   -4.135380    0.631953
     41          8           0        5.177043   -5.161570    1.202687
     42          6           0        3.776071   -3.954259   -0.588648
     43          6           0        4.253320   -4.633395   -1.799128
     44          8           0        5.409768   -4.593357   -2.237925
     45          8           0        3.164689   -5.280420   -2.343887
     46          6           0        3.406296   -6.037652   -3.570886
     47          6           0       -3.682350   -4.436038   -0.884603
     48          6           0       -4.157916   -4.311694    0.525110
     49          6           0       -5.473427   -4.193757    0.908599
     50          6           0       -6.673856   -4.337620   -0.091287
     51          6           0       -5.781247   -4.086457    2.448841
     52          6           0       -6.808215   -2.973816    2.821299
     53          6           0       -6.789827   -2.554495    4.248938
     54          6           0       -7.271538   -1.069883    4.394559
     55          6           0       -7.607138   -0.805346    5.913765
     56          6           0       -6.224330   -0.071800    3.893953
     57          6           0       -6.748446    1.031310    2.851839
     58          6           0       -6.258350    0.893746    1.390821
     59          6           0       -7.367020    0.995455    0.237301
     60          6           0       -7.435818   -0.239664   -0.713108
     61          6           0       -7.123233    2.230029   -0.565072
     62          6           0       -8.246482    2.555483   -1.606255
     63          6           0       -8.960985    3.808434   -1.165415
     64          6           0      -10.385434    4.101513   -1.855017
     65          6           0      -10.410253    5.511768   -2.543546
     66          6           0      -11.595262    3.967803   -0.819435
     67          1           0        1.130802    1.724411   -3.766545
     68          1           0        4.213191    5.358140    0.640792
     69          1           0        6.903219    0.158601    3.122752
     70          1           0        2.106761   -2.976679   -3.072674
     71          1           0        0.317805   -0.869715   -2.980175
     72          1           0        2.339309   -0.223669   -5.042285
     73          1           0        0.800195   -0.947016   -5.436541
     74          1           0        2.225850   -1.940104   -5.115889
     75          1           0       -0.084692   -1.979938   -1.442363
     76          1           0        0.964695   -2.786110   -0.316146
     77          1           0        0.266763   -4.786042   -0.756888
     78          1           0        0.507806   -4.680121   -2.413766
     79          1           0        0.184734    3.767077   -3.436129
     80          1           0        1.388172    3.992254   -4.671286
     81          1           0        0.836263    5.406453   -3.900573
     82          1           0        3.117404    7.224752    0.264189
     83          1           0        3.566958    8.272751   -1.293596
     84          1           0        4.512756    6.899996   -0.793453
     85          1           0        4.700708    4.415118    3.153251
     86          1           0        7.204971    2.895878    2.846481
     87          1           0        6.413783    5.731402    3.517283
     88          1           0        6.266440    5.950192    1.712653
     89          1           0        7.532403    4.855947    2.429177
     90          1           0        5.344989    1.532251    4.685547
     91          1           0        5.014422    3.182132    4.973191
     92          1           0        6.999077    1.680157    6.375653
     93          1           0        6.899616    3.459901    6.308243
     94          1           0        7.971681    2.651148    5.259234
     95          1           0        7.023928   -3.734762    2.770599
     96          1           0        6.070502   -2.583833    3.804647
     97          1           0        7.549065   -1.972318    3.287606
     98          1           0        2.774657   -4.228793   -0.259072
     99          1           0        4.248278   -6.721931   -3.463902
    100          1           0        3.574420   -5.350117   -4.401129
    101          1           0        2.524961   -6.641986   -3.785796
    102          1           0       -4.245107   -5.324433   -1.174594
    103          1           0       -3.977149   -3.554178   -1.452746
    104          1           0       -3.351602   -4.303291    1.258804
    105          1           0       -6.919516   -3.296589   -0.298742
    106          1           0       -7.501725   -4.740307    0.492005
    107          1           0       -6.449224   -4.912634   -0.990701
    108          1           0       -4.859133   -3.916111    3.005917
    109          1           0       -6.153486   -5.057702    2.773837
    110          1           0       -7.717363   -3.549129    2.649216
    111          1           0       -6.556782   -2.230164    2.064570
    112          1           0       -5.801346   -2.706333    4.681121
    113          1           0       -7.447924   -3.305254    4.685793
    114          1           0       -8.246815   -1.017621    3.909422
    115          1           0       -7.812301   -1.702364    6.497071
    116          1           0       -8.536609   -0.238398    5.877922
    117          1           0       -6.799226   -0.312586    6.455590
    118          1           0       -5.346230   -0.583853    3.499421
    119          1           0       -5.802829    0.526029    4.702394
    120          1           0       -6.350402    1.969848    3.237062
    121          1           0       -7.835946    1.035242    2.922568
    122          1           0       -5.712132   -0.033328    1.215630
    123          1           0       -5.544315    1.707841    1.266797
    124          1           0       -8.411083    1.009213    0.548483
    125          1           0       -8.482381   -0.493854   -0.884522
    126          1           0       -6.763111   -0.992173   -0.301014
    127          1           0       -7.122194   -0.056495   -1.740556
    128          1           0       -6.165312    2.083593   -1.064692
    129          1           0       -7.090778    3.078862    0.117980
    130          1           0       -8.977771    1.758274   -1.741759
    131          1           0       -7.942252    2.756467   -2.633079
    132          1           0       -8.356622    4.550439   -1.686922
    133          1           0       -9.060916    3.779949   -0.080660
    134          1           0      -10.641042    3.319995   -2.570879
    135          1           0       -9.823402    5.419929   -3.457388
    136          1           0       -9.990759    6.224189   -1.833324
    137          1           0      -11.371142    5.814614   -2.961253
    138          1           0      -12.038416    2.997108   -1.039376
    139          1           0      -12.378368    4.706295   -0.991701
    140          1           0      -11.288329    4.106025    0.217527
 ---------------------------------------------------------------------

 SCF Done:  E(RPBE1PBE) =  -3005.32397194     A.U. after   15 cycles

 Excitation energies and oscillator strengths:

 Excited State   1:      Singlet-A      1.8643 eV  665.05 nm  f=0.3675  <S**2>=0.000
     245 -> 248       -0.18059
     246 -> 247        0.69240
     246 <- 247       -0.10877
 This state for optimization and/or second-order correction.
 Total Energy, E(TD-HF/TD-DFT) =  -3005.25546026
 Copying the excited state density for this state as the 1-particle RhoCI density.

 Excited State   2:      Singlet-A      2.2661 eV  547.13 nm  f=0.1233  <S**2>=0.000
     245 -> 247        0.64978
     246 -> 248        0.26996

 Excited State   3:      Singlet-A      2.8625 eV  433.14 nm  f=0.0021  <S**2>=0.000
     242 -> 247        0.26056
     242 -> 249        0.11277
     243 -> 247        0.62423
     243 -> 249        0.10158

 Excited State   4:      Singlet-A      2.9657 eV  418.05 nm  f=0.0068  <S**2>=0.000
     242 -> 247        0.62914
     243 -> 247       -0.28915

 Excited State   5:      Singlet-A      3.0641 eV  404.63 nm  f=0.0015  <S**2>=0.000
     240 -> 247        0.46320
     240 -> 249       -0.12798
     241 -> 247        0.50221

 The electronic state is 1-A.
 Alpha  occ. eigenvalues --  -46.92321 -19.26929 -19.26583 -19.20767 -19.20348
 Alpha  occ. eigenvalues --  -19.19995 -19.18442 -14.41427 -14.40996 -14.39629
 Alpha  occ. eigenvalues --  -14.39480 -10.37079 -10.36562 -10.32617 -10.32495
 Alpha  occ. eigenvalues --  -10.29632 -10.28974 -10.28969 -10.28518 -10.28315
 Alpha  occ. eigenvalues --  -10.28145 -10.28081 -10.28045 -10.27456 -10.26787
 Alpha  occ. eigenvalues --  -10.26373 -10.26353 -10.25853 -10.25823 -10.25783
 Alpha  occ. eigenvalues --  -10.25452 -10.25391 -10.25388 -10.25213 -10.25085
 Alpha  occ. eigenvalues --  -10.25046 -10.24938 -10.24930 -10.24857 -10.24829
 Alpha  occ. eigenvalues --  -10.24321 -10.24187 -10.24023 -10.23812 -10.23792
 Alpha  occ. eigenvalues --  -10.23739 -10.23723 -10.23716 -10.23542 -10.23155
 Alpha  occ. eigenvalues --  -10.23076 -10.22820 -10.22774 -10.22722 -10.22635
 Alpha  occ. eigenvalues --  -10.22516 -10.22316 -10.22276 -10.22195 -10.22158
 Alpha  occ. eigenvalues --  -10.21986 -10.21907 -10.21889 -10.21743 -10.21688
 Alpha  occ. eigenvalues --  -10.21602  -3.14454  -1.87283  -1.86816  -1.86694
 Alpha  occ. eigenvalues --   -1.12139  -1.11300  -1.05606  -1.03998  -1.02956
 Alpha  occ. eigenvalues --   -1.02003  -1.00144  -0.99435  -0.98374  -0.97063
 Alpha  occ. eigenvalues --   -0.87533  -0.84145  -0.83699  -0.83643  -0.83108
 Alpha  occ. eigenvalues --   -0.82584  -0.82346  -0.82224  -0.81840  -0.80766
 Alpha  occ. eigenvalues --   -0.80380  -0.79395  -0.78845  -0.78250  -0.77653
 Alpha  occ. eigenvalues --   -0.76819  -0.76469  -0.75725  -0.75290  -0.74778
 Alpha  occ. eigenvalues --   -0.74033  -0.72731  -0.72210  -0.71781  -0.70764
 Alpha  occ. eigenvalues --   -0.69885  -0.69687  -0.69065  -0.69015  -0.67957
 Alpha  occ. eigenvalues --   -0.67768  -0.66954  -0.66559  -0.64765  -0.64143
 Alpha  occ. eigenvalues --   -0.63727  -0.62224  -0.61389  -0.60635  -0.60243
 Alpha  occ. eigenvalues --   -0.60077  -0.59755  -0.59346  -0.59213  -0.58617
 Alpha  occ. eigenvalues --   -0.57653  -0.57547  -0.56912  -0.56539  -0.54748
 Alpha  occ. eigenvalues --   -0.54577  -0.54113  -0.53966  -0.53476  -0.52995
 Alpha  occ. eigenvalues --   -0.52259  -0.51346  -0.50781  -0.50568  -0.50430
 Alpha  occ. eigenvalues --   -0.50182  -0.49698  -0.49511  -0.49103  -0.48999
 Alpha  occ. eigenvalues --   -0.48798  -0.48390  -0.47992  -0.47614  -0.47467
 Alpha  occ. eigenvalues --   -0.47128  -0.46840  -0.46628  -0.46350  -0.46336
 Alpha  occ. eigenvalues --   -0.46102  -0.45900  -0.45859  -0.45367  -0.45056
 Alpha  occ. eigenvalues --   -0.44776  -0.44609  -0.44583  -0.44489  -0.44302
 Alpha  occ. eigenvalues --   -0.44062  -0.43728  -0.43506  -0.43207  -0.43179
 Alpha  occ. eigenvalues --   -0.43048  -0.42738  -0.42537  -0.42459  -0.42421
 Alpha  occ. eigenvalues --   -0.42260  -0.42181  -0.41948  -0.41815  -0.41656
 Alpha  occ. eigenvalues --   -0.41245  -0.41184  -0.41022  -0.40910  -0.40832
 Alpha  occ. eigenvalues --   -0.40777  -0.40589  -0.40422  -0.40229  -0.39967
 Alpha  occ. eigenvalues --   -0.39635  -0.39284  -0.39020  -0.38687  -0.38574
 Alpha  occ. eigenvalues --   -0.38401  -0.38354  -0.38143  -0.38101  -0.38033
 Alpha  occ. eigenvalues --   -0.37932  -0.37730  -0.37480  -0.37292  -0.37268
 Alpha  occ. eigenvalues --   -0.37016  -0.36451  -0.36183  -0.36049  -0.36009
 Alpha  occ. eigenvalues --   -0.35893  -0.35771  -0.35409  -0.35178  -0.35144
 Alpha  occ. eigenvalues --   -0.34599  -0.34344  -0.33846  -0.33569  -0.33506
 Alpha  occ. eigenvalues --   -0.33196  -0.32799  -0.32682  -0.32671  -0.32365
 Alpha  occ. eigenvalues --   -0.32183  -0.32044  -0.31767  -0.31638  -0.31190
 Alpha  occ. eigenvalues --   -0.30979  -0.30279  -0.30101  -0.29971  -0.29610
 Alpha  occ. eigenvalues --   -0.29459  -0.28885  -0.28668  -0.27036  -0.26150
 Alpha  occ. eigenvalues --   -0.25743  -0.25220  -0.24926  -0.24041  -0.21179
 Alpha  occ. eigenvalues --   -0.18984
 Alpha virt. eigenvalues --   -0.11380  -0.05275  -0.03961  -0.02046  -0.00597
 Alpha virt. eigenvalues --   -0.00240   0.00114   0.01603   0.01886   0.02633
 Alpha virt. eigenvalues --    0.04000   0.04647   0.05078   0.05319   0.05400

 Mulliken charges:
               1
     1  Mg   0.986645
     2  C   -0.120410
     3  C   -0.059513
     4  C   -0.090137
     5  C   -0.070641
     6  N   -0.354291
     7  C    0.014456
     8  C   -0.082075
     9  C   -0.109931
    10  C    0.070454
    11  C    0.020426
    12  C    0.004063
    13  C    0.003883
    14  C    0.219713
    15  O   -0.252130
    16  O   -0.359535
    17  N   -0.512984
    18  C    0.136609
    19  C   -0.151971
    20  C   -0.098766
    21  C    0.230010
    22  C    0.063242
    23  C    0.033681
    24  O   -0.280731
    25  C    0.001806
    26  N   -0.381601
    27  C    0.037014
    28  C   -0.113588
    29  C   -0.138490
    30  C    0.103277
    31  C    0.019095
    32  C   -0.004077
    33  C   -0.063519
    34  N   -0.476764
    35  C    0.114005
    36  C   -0.214739
    37  C   -0.072133
    38  C    0.213179
    39  C    0.106580
    40  C    0.166596
    41  O   -0.198099
    42  C   -0.101926
    43  C    0.318797
    44  O   -0.259919
    45  O   -0.375147
    46  C    0.122248
    47  C    0.247790
    48  C   -0.190902
    49  C   -0.228565
    50  C    0.020282
    51  C   -0.000287
    52  C   -0.090518
    53  C    0.005895
    54  C   -0.200946
    55  C   -0.007895
    56  C    0.003512
    57  C   -0.045898
    58  C    0.019580
    59  C   -0.224691
    60  C   -0.030315
    61  C   -0.011461
    62  C   -0.051686
    63  C   -0.019457
    64  C   -0.239081
    65  C   -0.037544
    66  C   -0.034016
    67  H    0.005887
    68  H   -0.019363
    69  H    0.009617
    70  H    0.041513
    71  H    0.046005
    72  H    0.043467
    73  H    0.054715
    74  H    0.041898
    75  H    0.042241
    76  H    0.065290
    77  H    0.044058
    78  H    0.060581
    79  H    0.054818
    80  H    0.040081
    81  H    0.071644
    82  H    0.087640
    83  H    0.066343
    84  H    0.052108
    85  H    0.049450
    86  H    0.046887
    87  H    0.046518
    88  H    0.047906
    89  H    0.038355
    90  H    0.042917
    91  H    0.032678
    92  H    0.051547
    93  H    0.041788
    94  H    0.039899
    95  H    0.083241
    96  H    0.053322
    97  H    0.036182
    98  H    0.073198
    99  H    0.069490
   100  H    0.057424
   101  H    0.059832
   102  H    0.061545
   103  H    0.079872
   104  H    0.035791
   105  H    0.055584
   106  H    0.044408
   107  H    0.052170
   108  H    0.021065
   109  H    0.036125
   110  H    0.033195
   111  H    0.051005
   112  H    0.024128
   113  H    0.020840
   114  H    0.035100
   115  H    0.025600
   116  H    0.035077
   117  H    0.035382
   118  H    0.029329
   119  H    0.023458
   120  H    0.029880
   121  H    0.035420
   122  H    0.025915
   123  H    0.030257
   124  H    0.027075
   125  H    0.037486
   126  H    0.050895
   127  H    0.027292
   128  H    0.032083
   129  H    0.033980
   130  H    0.016921
   131  H    0.022024
   132  H    0.036052
   133  H    0.040859
   134  H    0.029750
   135  H    0.031936
   136  H    0.052448
   137  H    0.035099
   138  H    0.036363
   139  H    0.027129
   140  H    0.035827
 Sum of Mulliken charges =  -0.00000

 Dipole moment (field-independent basis, Debye):
    X=             -0.6388    Y=              1.0468    Z=              2.4542  Tot=              2.7436
 Quadrupole moment (field-independent basis, Debye-Ang):
   XX=           -389.6809   YY=           -429.5501   ZZ=           -386.9817
   XY=             38.9480   XZ=             13.4951   YZ=             28.6834

 Normal termination of Gaussian 16 at Wed May  4 23:36:25 2022.
