 Gaussian 16, Revision A.03,
 Gaussian 16:  ES64L-G16RevA.03 25-Dec-2016

 --------------------------------
 #p wB97XD/Def2SVP td=(nstates=5)
 --------------------------------

 ----------------------------------------------------
 step_501_chromophore_17 TDDFT with wB97XD functional
 ----------------------------------------------------
 Symbolic Z-matrix:
 Charge =  0 Multiplicity = 1

                         Standard orientation:
 ---------------------------------------------------------------------
 Center     Atomic      Atomic             Coordinates (Angstroms)
 Number     Number       Type             X           Y           Z
 ---------------------------------------------------------------------
      1         12           0        4.321897    1.061376   -0.481233
      2          6           0        3.725536   -2.460073   -0.781490
      3          6           0        1.873746    1.517984   -2.994624
      4          6           0        4.273975    4.328306    0.283726
      5          6           0        6.151528    0.416593    2.373602
      6          7           0        2.941081   -0.309981   -1.774471
      7          6           0        2.913499   -1.669411   -1.635298
      8          6           0        1.713079   -2.233828   -2.378448
      9          6           0        1.366351   -0.965064   -3.264678
     10          6           0        2.074728    0.199158   -2.684330
     11          6           0        1.675914   -1.054214   -4.796823
     12          6           0        0.657112   -2.774167   -1.361538
     13          6           0       -0.031726   -4.178463   -1.611006
     14          6           0       -1.555940   -4.255487   -1.811527
     15          8           0       -2.050719   -3.863419   -2.833412
     16          8           0       -2.255053   -4.661130   -0.694187
     17          7           0        3.423475    2.680372   -1.314308
     18          6           0        2.454554    2.694209   -2.352084
     19          6           0        2.081435    4.057678   -2.680550
     20          6           0        2.789141    4.869045   -1.703105
     21          6           0        3.538979    3.943471   -0.874738
     22          6           0        1.061903    4.359090   -3.698327
     23          6           0        2.700897    6.404874   -1.674881
     24          8           0        1.889861    6.933965   -2.489835
     25          6           0        3.512759    7.332421   -0.745998
     26          7           0        4.874181    2.272171    1.261267
     27          6           0        4.913023    3.590770    1.250589
     28          6           0        5.521944    4.058083    2.533036
     29          6           0        6.160951    2.779238    3.137477
     30          6           0        5.627616    1.703590    2.241979
     31          6           0        6.534255    5.282218    2.531154
     32          6           0        5.826050    2.510171    4.694518
     33          6           0        6.987866    2.547828    5.717364
     34          7           0        5.007838   -0.602814    0.477039
     35          6           0        5.728433   -0.722402    1.604881
     36          6           0        5.969705   -2.080974    1.927296
     37          6           0        5.231584   -2.792173    0.978384
     38          6           0        4.613533   -1.845169    0.123131
     39          6           0        6.788098   -2.694229    2.991440
     40          6           0        4.882521   -4.135380    0.631953
     41          8           0        5.177043   -5.161570    1.202687
     42          6           0        3.776071   -3.954259   -0.588648
     43          6           0        4.253320   -4.633395   -1.799128
     44          8           0        5.409768   -4.593357   -2.237925
     45          8           0        3.164689   -5.280420   -2.343887
     46          6           0        3.406296   -6.037652   -3.570886
     47          6           0       -3.682350   -4.436038   -0.884603
     48          6           0       -4.157916   -4.311694    0.525110
     49          6           0       -5.473427   -4.193757    0.908599
     50          6           0       -6.673856   -4.337620   -0.091287
     51          6           0       -5.781247   -4.086457    2.448841
     52          6           0       -6.808215   -2.973816    2.821299
     53          6           0       -6.789827   -2.554495    4.248938
     54          6           0       -7.271538   -1.069883    4.394559
     55          6           0       -7.607138   -0.805346    5.913765
     56          6           0       -6.224330   -0.071800    3.893953
     57          6           0       -6.748446    1.031310    2.851839
     58          6           0       -6.258350    0.893746    1.390821
     59          6           0       -7.367020    0.995455    0.237301
     60          6           0       -7.435818   -0.239664   -0.713108
     61          6           0       -7.123233    2.230029   -0.565072
     62          6           0       -8.246482    2.555483   -1.606255
     63          6           0       -8.960985    3.808434   -1.165415
     64          6           0      -10.385434    4.101513   -1.855017
     65          6           0      -10.410253    5.511768   -2.543546
     66          6           0      -11.595262    3.967803   -0.819435
     67          1           0        1.130802    1.724411   -3.766545
     68          1           0        4.213191    5.358140    0.640792
     69          1           0        6.903219    0.158601    3.122752
     70          1           0        2.106761   -2.976679   -3.072674
     71          1           0        0.317805   -0.869715   -2.980175
     72          1           0        2.339309   -0.223669   -5.042285
     73          1           0        0.800195   -0.947016   -5.436541
     74          1           0        2.225850   -1.940104   -5.115889
     75          1           0       -0.084692   -1.979938   -1.442363
     76          1           0        0.964695   -2.786110   -0.316146
     77          1           0        0.266763   -4.786042   -0.756888
     78          1           0        0.507806   -4.680121   -2.413766
     79          1           0        0.184734    3.767077   -3.436129
     80          1           0        1.388172    3.992254   -4.671286
     81          1           0        0.836263    5.406453   -3.900573
     82          1           0        3.117404    7.224752    0.264189
     83          1           0        3.566958    8.272751   -1.293596
     84          1           0        4.512756    6.899996   -0.793453
     85          1           0        4.700708    4.415118    3.153251
     86          1           0        7.204971    2.895878    2.846481
     87          1           0        6.413783    5.731402    3.517283
     88          1           0        6.266440    5.950192    1.712653
     89          1           0        7.532403    4.855947    2.429177
     90          1           0        5.344989    1.532251    4.685547
     91          1           0        5.014422    3.182132    4.973191
     92          1           0        6.999077    1.680157    6.375653
     93          1           0        6.899616    3.459901    6.308243
     94          1           0        7.971681    2.651148    5.259234
     95          1           0        7.023928   -3.734762    2.770599
     96          1           0        6.070502   -2.583833    3.804647
     97          1           0        7.549065   -1.972318    3.287606
     98          1           0        2.774657   -4.228793   -0.259072
     99          1           0        4.248278   -6.721931   -3.463902
    100          1           0        3.574420   -5.350117   -4.401129
    101          1           0        2.524961   -6.641986   -3.785796
    102          1           0       -4.245107   -5.324433   -1.174594
    103          1           0       -3.977149   -3.554178   -1.452746
    104          1           0       -3.351602   -4.303291    1.258804
    105          1           0       -6.919516   -3.296589   -0.298742
    106          1           0       -7.501725   -4.740307    0.492005
    107          1           0       -6.449224   -4.912634   -0.990701
    108          1           0       -4.859133   -3.916111    3.005917
    109          1           0       -6.153486   -5.057702    2.773837
    110          1           0       -7.717363   -3.549129    2.649216
    111          1           0       -6.556782   -2.230164    2.064570
    112          1           0       -5.801346   -2.706333    4.681121
    113          1           0       -7.447924   -3.305254    4.685793
    114          1           0       -8.246815   -1.017621    3.909422
    115          1           0       -7.812301   -1.702364    6.497071
    116          1           0       -8.536609   -0.238398    5.877922
    117          1           0       -6.799226   -0.312586    6.455590
    118          1           0       -5.346230   -0.583853    3.499421
    119          1           0       -5.802829    0.526029    4.702394
    120          1           0       -6.350402    1.969848    3.237062
    121          1           0       -7.835946    1.035242    2.922568
    122          1           0       -5.712132   -0.033328    1.215630
    123          1           0       -5.544315    1.707841    1.266797
    124          1           0       -8.411083    1.009213    0.548483
    125          1           0       -8.482381   -0.493854   -0.884522
    126          1           0       -6.763111   -0.992173   -0.301014
    127          1           0       -7.122194   -0.056495   -1.740556
    128          1           0       -6.165312    2.083593   -1.064692
    129          1           0       -7.090778    3.078862    0.117980
    130          1           0       -8.977771    1.758274   -1.741759
    131          1           0       -7.942252    2.756467   -2.633079
    132          1           0       -8.356622    4.550439   -1.686922
    133          1           0       -9.060916    3.779949   -0.080660
    134          1           0      -10.641042    3.319995   -2.570879
    135          1           0       -9.823402    5.419929   -3.457388
    136          1           0       -9.990759    6.224189   -1.833324
    137          1           0      -11.371142    5.814614   -2.961253
    138          1           0      -12.038416    2.997108   -1.039376
    139          1           0      -12.378368    4.706295   -0.991701
    140          1           0      -11.288329    4.106025    0.217527
 ---------------------------------------------------------------------

 SCF Done:  E(RwB97XD) =  -3007.83268526     A.U. after   17 cycles

 Excitation energies and oscillator strengths:

 Excited State   1:      Singlet-A      1.6385 eV  756.71 nm  f=0.3768  <S**2>=0.000
     245 -> 248       -0.19119
     246 -> 247        0.68320
     245 <- 248       -0.12113
 This state for optimization and/or second-order correction.
 Total Energy, E(TD-HF/TD-DFT) =  -3007.77247290
 Copying the excited state density for this state as the 1-particle RhoCI density.

 Excited State   2:      Singlet-A      2.1989 eV  563.84 nm  f=0.1274  <S**2>=0.000
     245 -> 247        0.63861
     246 -> 248        0.29226

 Excited State   3:      Singlet-A      3.3023 eV  375.45 nm  f=0.0053  <S**2>=0.000
     243 -> 247        0.66994
     243 -> 249        0.10671

 Excited State   4:      Singlet-A      3.4406 eV  360.36 nm  f=0.0016  <S**2>=0.000
     241 -> 247        0.17230
     241 -> 249        0.18598
     241 -> 250        0.13592
     242 -> 247        0.49033
     242 -> 249        0.27536
     242 -> 250        0.22000

 Excited State   5:      Singlet-A      3.5008 eV  354.16 nm  f=0.0377  <S**2>=0.000
     240 -> 247        0.15151
     240 -> 249       -0.10359
     241 -> 247        0.55499
     242 -> 247       -0.23286
     242 -> 249        0.10103
     246 -> 248       -0.24289

 The electronic state is 1-A.
 Alpha  occ. eigenvalues --  -46.95276 -19.31581 -19.31136 -19.25575 -19.25025
 Alpha  occ. eigenvalues --  -19.24837 -19.23209 -14.46590 -14.46000 -14.44587
 Alpha  occ. eigenvalues --  -14.44453 -10.44006 -10.43346 -10.39528 -10.39275
 Alpha  occ. eigenvalues --  -10.36212 -10.35437 -10.35255 -10.34806 -10.34722
 Alpha  occ. eigenvalues --  -10.34443 -10.34435 -10.34347 -10.33784 -10.33120
 Alpha  occ. eigenvalues --  -10.32849 -10.32767 -10.32298 -10.32201 -10.32033
 Alpha  occ. eigenvalues --  -10.31655 -10.31640 -10.31622 -10.31575 -10.31572
 Alpha  occ. eigenvalues --  -10.31480 -10.31259 -10.31221 -10.31173 -10.31145
 Alpha  occ. eigenvalues --  -10.30695 -10.30583 -10.30513 -10.30245 -10.30139
 Alpha  occ. eigenvalues --  -10.30102 -10.30088 -10.29999 -10.29923 -10.29456
 Alpha  occ. eigenvalues --  -10.29427 -10.29178 -10.29132 -10.29072 -10.29012
 Alpha  occ. eigenvalues --  -10.28976 -10.28653 -10.28637 -10.28560 -10.28553
 Alpha  occ. eigenvalues --  -10.28354 -10.28315 -10.28281 -10.28170 -10.28103
 Alpha  occ. eigenvalues --  -10.28009  -3.21274  -1.94853  -1.94385  -1.94257
 Alpha  occ. eigenvalues --   -1.19505  -1.18791  -1.13113  -1.11330  -1.10425
 Alpha  occ. eigenvalues --   -1.09480  -1.07496  -1.06785  -1.05794  -1.04435
 Alpha  occ. eigenvalues --   -0.95209  -0.91822  -0.91309  -0.91273  -0.90745
 Alpha  occ. eigenvalues --   -0.90167  -0.89941  -0.89882  -0.89443  -0.88435
 Alpha  occ. eigenvalues --   -0.88017  -0.87051  -0.86502  -0.85909  -0.85301
 Alpha  occ. eigenvalues --   -0.84476  -0.84148  -0.83365  -0.82965  -0.82431
 Alpha  occ. eigenvalues --   -0.81696  -0.80353  -0.79833  -0.79425  -0.78408
 Alpha  occ. eigenvalues --   -0.77485  -0.77353  -0.76755  -0.76714  -0.75613
 Alpha  occ. eigenvalues --   -0.75302  -0.74553  -0.74102  -0.72384  -0.71705
 Alpha  occ. eigenvalues --   -0.71253  -0.69868  -0.68914  -0.68122  -0.67707
 Alpha  occ. eigenvalues --   -0.67683  -0.67214  -0.66866  -0.66764  -0.66197
 Alpha  occ. eigenvalues --   -0.65332  -0.65009  -0.64575  -0.64179  -0.62177
 Alpha  occ. eigenvalues --   -0.61955  -0.61584  -0.61449  -0.60915  -0.60488
 Alpha  occ. eigenvalues --   -0.59632  -0.58837  -0.58214  -0.57966  -0.57923
 Alpha  occ. eigenvalues --   -0.57614  -0.57211  -0.56930  -0.56472  -0.56450
 Alpha  occ. eigenvalues --   -0.56185  -0.55755  -0.55315  -0.54940  -0.54887
 Alpha  occ. eigenvalues --   -0.54603  -0.54262  -0.54073  -0.53756  -0.53668
 Alpha  occ. eigenvalues --   -0.53485  -0.53273  -0.53178  -0.52721  -0.52349
 Alpha  occ. eigenvalues --   -0.52145  -0.51986  -0.51980  -0.51857  -0.51605
 Alpha  occ. eigenvalues --   -0.51384  -0.51038  -0.50757  -0.50508  -0.50427
 Alpha  occ. eigenvalues --   -0.50294  -0.49993  -0.49825  -0.49702  -0.49651
 Alpha  occ. eigenvalues --   -0.49525  -0.49423  -0.49232  -0.49100  -0.48871
 Alpha  occ. eigenvalues --   -0.48478  -0.48398  -0.48319  -0.48180  -0.48093
 Alpha  occ. eigenvalues --   -0.48040  -0.47805  -0.47599  -0.47515  -0.47163
 Alpha  occ. eigenvalues --   -0.46830  -0.46462  -0.46175  -0.45861  -0.45719
 Alpha  occ. eigenvalues --   -0.45576  -0.45508  -0.45295  -0.45208  -0.45167
 Alpha  occ. eigenvalues --   -0.45066  -0.44875  -0.44644  -0.44435  -0.44286
 Alpha  occ. eigenvalues --   -0.44071  -0.43507  -0.43271  -0.43151  -0.43042
 Alpha  occ. eigenvalues --   -0.42985  -0.42878  -0.42414  -0.42266  -0.42087
 Alpha  occ. eigenvalues --   -0.41713  -0.41420  -0.40736  -0.40587  -0.40471
 Alpha  occ. eigenvalues --   -0.40244  -0.39854  -0.39812  -0.39663  -0.39396
 Alpha  occ. eigenvalues --   -0.39201  -0.39072  -0.38820  -0.38630  -0.38186
 Alpha  occ. eigenvalues --   -0.37900  -0.37209  -0.37198  -0.37033  -0.36417
 Alpha  occ. eigenvalues --   -0.36363  -0.35903  -0.35326  -0.33603  -0.33181
 Alpha  occ. eigenvalues --   -0.32347  -0.32263  -0.31585  -0.30793  -0.26117
 Alpha  occ. eigenvalues --   -0.23155
 Alpha virt. eigenvalues --   -0.07320   0.00125   0.02354   0.04497   0.05448
 Alpha virt. eigenvalues --    0.06351   0.06937   0.08277   0.08589   0.09155
 Alpha virt. eigenvalues --    0.10473   0.11505   0.11817   0.11908   0.12176

 Mulliken charges:
               1
     1  Mg   0.980508
     2  C   -0.125602
     3  C   -0.079774
     4  C   -0.101912
     5  C   -0.096192
     6  N   -0.314173
     7  C   -0.022144
     8  C   -0.054248
     9  C   -0.081183
    10  C    0.058775
    11  C    0.031093
    12  C    0.014556
    13  C    0.020861
    14  C    0.213504
    15  O   -0.251078
    16  O   -0.358922
    17  N   -0.481451
    18  C    0.127785
    19  C   -0.142448
    20  C   -0.097904
    21  C    0.230480
    22  C    0.076913
    23  C    0.025914
    24  O   -0.277372
    25  C    0.020115
    26  N   -0.347095
    27  C    0.019362
    28  C   -0.090734
    29  C   -0.108898
    30  C    0.094044
    31  C    0.033675
    32  C    0.010078
    33  C   -0.047583
    34  N   -0.436517
    35  C    0.106020
    36  C   -0.206286
    37  C   -0.066675
    38  C    0.192881
    39  C    0.118122
    40  C    0.144175
    41  O   -0.188188
    42  C   -0.053100
    43  C    0.293657
    44  O   -0.253847
    45  O   -0.372599
    46  C    0.135904
    47  C    0.261455
    48  C   -0.198000
    49  C   -0.216104
    50  C    0.042640
    51  C    0.014118
    52  C   -0.056255
    53  C    0.020364
    54  C   -0.171455
    55  C    0.003794
    56  C    0.014055
    57  C   -0.029180
    58  C    0.036048
    59  C   -0.195760
    60  C   -0.013629
    61  C    0.010193
    62  C   -0.039770
    63  C    0.001927
    64  C   -0.216022
    65  C   -0.021301
    66  C   -0.022137
    67  H    0.001626
    68  H   -0.036488
    69  H    0.003013
    70  H    0.021484
    71  H    0.034561
    72  H    0.035751
    73  H    0.050067
    74  H    0.036913
    75  H    0.032965
    76  H    0.057622
    77  H    0.038516
    78  H    0.052102
    79  H    0.048471
    80  H    0.033932
    81  H    0.069504
    82  H    0.083883
    83  H    0.065250
    84  H    0.043388
    85  H    0.038339
    86  H    0.032770
    87  H    0.040677
    88  H    0.041183
    89  H    0.031938
    90  H    0.033531
    91  H    0.025414
    92  H    0.046676
    93  H    0.035583
    94  H    0.033359
    95  H    0.081017
    96  H    0.046650
    97  H    0.029903
    98  H    0.061355
    99  H    0.066005
   100  H    0.053989
   101  H    0.057036
   102  H    0.053941
   103  H    0.075583
   104  H    0.032416
   105  H    0.042773
   106  H    0.038469
   107  H    0.047881
   108  H    0.012078
   109  H    0.028172
   110  H    0.022925
   111  H    0.023871
   112  H    0.015042
   113  H    0.013180
   114  H    0.023883
   115  H    0.019827
   116  H    0.029391
   117  H    0.029067
   118  H    0.019621
   119  H    0.015583
   120  H    0.023184
   121  H    0.025522
   122  H    0.015403
   123  H    0.022775
   124  H    0.013626
   125  H    0.032366
   126  H    0.036111
   127  H    0.020995
   128  H    0.022969
   129  H    0.022019
   130  H    0.005224
   131  H    0.015052
   132  H    0.024656
   133  H    0.030051
   134  H    0.019538
   135  H    0.024687
   136  H    0.045731
   137  H    0.029631
   138  H    0.030554
   139  H    0.021011
   140  H    0.029721
 Sum of Mulliken charges =  -0.00000

 Dipole moment (field-independent basis, Debye):
    X=             -0.6501    Y=              1.0172    Z=              2.3707  Tot=              2.6603
 Quadrupole moment (field-independent basis, Debye-Ang):
   XX=           -389.6976   YY=           -427.8020   ZZ=           -386.9111
   XY=             38.7820   XZ=             12.6981   YZ=             28.6502

 Normal termination of Gaussian 16 at Thu May  5 00:13:16 2022.
