 Gaussian 16, Revision A.03,
 Gaussian 16:  ES64L-G16RevA.03 25-Dec-2016

 --------------------
 #p ZINDO=(nstates=5)
 --------------------

 -----------------------------
 step_501_chromophore_17 ZINDO
 -----------------------------
 Symbolic Z-matrix:
 Charge =  0 Multiplicity = 1

                         Standard orientation:
 ---------------------------------------------------------------------
 Center     Atomic      Atomic             Coordinates (Angstroms)
 Number     Number       Type             X           Y           Z
 ---------------------------------------------------------------------
      1         12           0        4.321897    1.061376   -0.481233
      2          6           0        3.725536   -2.460073   -0.781490
      3          6           0        1.873746    1.517984   -2.994624
      4          6           0        4.273975    4.328306    0.283726
      5          6           0        6.151528    0.416593    2.373602
      6          7           0        2.941081   -0.309981   -1.774471
      7          6           0        2.913499   -1.669411   -1.635298
      8          6           0        1.713079   -2.233828   -2.378448
      9          6           0        1.366351   -0.965064   -3.264678
     10          6           0        2.074728    0.199158   -2.684330
     11          6           0        1.675914   -1.054214   -4.796823
     12          6           0        0.657112   -2.774167   -1.361538
     13          6           0       -0.031726   -4.178463   -1.611006
     14          6           0       -1.555940   -4.255487   -1.811527
     15          8           0       -2.050719   -3.863419   -2.833412
     16          8           0       -2.255053   -4.661130   -0.694187
     17          7           0        3.423475    2.680372   -1.314308
     18          6           0        2.454554    2.694209   -2.352084
     19          6           0        2.081435    4.057678   -2.680550
     20          6           0        2.789141    4.869045   -1.703105
     21          6           0        3.538979    3.943471   -0.874738
     22          6           0        1.061903    4.359090   -3.698327
     23          6           0        2.700897    6.404874   -1.674881
     24          8           0        1.889861    6.933965   -2.489835
     25          6           0        3.512759    7.332421   -0.745998
     26          7           0        4.874181    2.272171    1.261267
     27          6           0        4.913023    3.590770    1.250589
     28          6           0        5.521944    4.058083    2.533036
     29          6           0        6.160951    2.779238    3.137477
     30          6           0        5.627616    1.703590    2.241979
     31          6           0        6.534255    5.282218    2.531154
     32          6           0        5.826050    2.510171    4.694518
     33          6           0        6.987866    2.547828    5.717364
     34          7           0        5.007838   -0.602814    0.477039
     35          6           0        5.728433   -0.722402    1.604881
     36          6           0        5.969705   -2.080974    1.927296
     37          6           0        5.231584   -2.792173    0.978384
     38          6           0        4.613533   -1.845169    0.123131
     39          6           0        6.788098   -2.694229    2.991440
     40          6           0        4.882521   -4.135380    0.631953
     41          8           0        5.177043   -5.161570    1.202687
     42          6           0        3.776071   -3.954259   -0.588648
     43          6           0        4.253320   -4.633395   -1.799128
     44          8           0        5.409768   -4.593357   -2.237925
     45          8           0        3.164689   -5.280420   -2.343887
     46          6           0        3.406296   -6.037652   -3.570886
     47          6           0       -3.682350   -4.436038   -0.884603
     48          6           0       -4.157916   -4.311694    0.525110
     49          6           0       -5.473427   -4.193757    0.908599
     50          6           0       -6.673856   -4.337620   -0.091287
     51          6           0       -5.781247   -4.086457    2.448841
     52          6           0       -6.808215   -2.973816    2.821299
     53          6           0       -6.789827   -2.554495    4.248938
     54          6           0       -7.271538   -1.069883    4.394559
     55          6           0       -7.607138   -0.805346    5.913765
     56          6           0       -6.224330   -0.071800    3.893953
     57          6           0       -6.748446    1.031310    2.851839
     58          6           0       -6.258350    0.893746    1.390821
     59          6           0       -7.367020    0.995455    0.237301
     60          6           0       -7.435818   -0.239664   -0.713108
     61          6           0       -7.123233    2.230029   -0.565072
     62          6           0       -8.246482    2.555483   -1.606255
     63          6           0       -8.960985    3.808434   -1.165415
     64          6           0      -10.385434    4.101513   -1.855017
     65          6           0      -10.410253    5.511768   -2.543546
     66          6           0      -11.595262    3.967803   -0.819435
     67          1           0        1.130802    1.724411   -3.766545
     68          1           0        4.213191    5.358140    0.640792
     69          1           0        6.903219    0.158601    3.122752
     70          1           0        2.106761   -2.976679   -3.072674
     71          1           0        0.317805   -0.869715   -2.980175
     72          1           0        2.339309   -0.223669   -5.042285
     73          1           0        0.800195   -0.947016   -5.436541
     74          1           0        2.225850   -1.940104   -5.115889
     75          1           0       -0.084692   -1.979938   -1.442363
     76          1           0        0.964695   -2.786110   -0.316146
     77          1           0        0.266763   -4.786042   -0.756888
     78          1           0        0.507806   -4.680121   -2.413766
     79          1           0        0.184734    3.767077   -3.436129
     80          1           0        1.388172    3.992254   -4.671286
     81          1           0        0.836263    5.406453   -3.900573
     82          1           0        3.117404    7.224752    0.264189
     83          1           0        3.566958    8.272751   -1.293596
     84          1           0        4.512756    6.899996   -0.793453
     85          1           0        4.700708    4.415118    3.153251
     86          1           0        7.204971    2.895878    2.846481
     87          1           0        6.413783    5.731402    3.517283
     88          1           0        6.266440    5.950192    1.712653
     89          1           0        7.532403    4.855947    2.429177
     90          1           0        5.344989    1.532251    4.685547
     91          1           0        5.014422    3.182132    4.973191
     92          1           0        6.999077    1.680157    6.375653
     93          1           0        6.899616    3.459901    6.308243
     94          1           0        7.971681    2.651148    5.259234
     95          1           0        7.023928   -3.734762    2.770599
     96          1           0        6.070502   -2.583833    3.804647
     97          1           0        7.549065   -1.972318    3.287606
     98          1           0        2.774657   -4.228793   -0.259072
     99          1           0        4.248278   -6.721931   -3.463902
    100          1           0        3.574420   -5.350117   -4.401129
    101          1           0        2.524961   -6.641986   -3.785796
    102          1           0       -4.245107   -5.324433   -1.174594
    103          1           0       -3.977149   -3.554178   -1.452746
    104          1           0       -3.351602   -4.303291    1.258804
    105          1           0       -6.919516   -3.296589   -0.298742
    106          1           0       -7.501725   -4.740307    0.492005
    107          1           0       -6.449224   -4.912634   -0.990701
    108          1           0       -4.859133   -3.916111    3.005917
    109          1           0       -6.153486   -5.057702    2.773837
    110          1           0       -7.717363   -3.549129    2.649216
    111          1           0       -6.556782   -2.230164    2.064570
    112          1           0       -5.801346   -2.706333    4.681121
    113          1           0       -7.447924   -3.305254    4.685793
    114          1           0       -8.246815   -1.017621    3.909422
    115          1           0       -7.812301   -1.702364    6.497071
    116          1           0       -8.536609   -0.238398    5.877922
    117          1           0       -6.799226   -0.312586    6.455590
    118          1           0       -5.346230   -0.583853    3.499421
    119          1           0       -5.802829    0.526029    4.702394
    120          1           0       -6.350402    1.969848    3.237062
    121          1           0       -7.835946    1.035242    2.922568
    122          1           0       -5.712132   -0.033328    1.215630
    123          1           0       -5.544315    1.707841    1.266797
    124          1           0       -8.411083    1.009213    0.548483
    125          1           0       -8.482381   -0.493854   -0.884522
    126          1           0       -6.763111   -0.992173   -0.301014
    127          1           0       -7.122194   -0.056495   -1.740556
    128          1           0       -6.165312    2.083593   -1.064692
    129          1           0       -7.090778    3.078862    0.117980
    130          1           0       -8.977771    1.758274   -1.741759
    131          1           0       -7.942252    2.756467   -2.633079
    132          1           0       -8.356622    4.550439   -1.686922
    133          1           0       -9.060916    3.779949   -0.080660
    134          1           0      -10.641042    3.319995   -2.570879
    135          1           0       -9.823402    5.419929   -3.457388
    136          1           0       -9.990759    6.224189   -1.833324
    137          1           0      -11.371142    5.814614   -2.961253
    138          1           0      -12.038416    2.997108   -1.039376
    139          1           0      -12.378368    4.706295   -0.991701
    140          1           0      -11.288329    4.106025    0.217527
 ---------------------------------------------------------------------

 SCF Done:  E(RZINDO/S) =  -474.200982721     A.U. after   19 cycles

 Excitation energies and oscillator strengths:

 Excited State   1:      Singlet-A      1.2277 eV 1009.85 nm  f=0.6146  <S**2>=0.000
     175 ->178        -0.19701
     176 ->177         0.66124
 This state for optimization and/or second-order correction.
 Total Energy, E(CIS/TDA) =  -474.155863821
 Copying the excited state density for this state as the 1-particle RhoCI density.

 Excited State   2:      Singlet-A      1.8996 eV  652.67 nm  f=0.0684  <S**2>=0.000
     175 ->177         0.55854
     176 ->178         0.40817

 Excited State   3:      Singlet-A      2.9264 eV  423.68 nm  f=0.0071  <S**2>=0.000
     168 ->177         0.19829
     168 ->179         0.27747
     168 ->181         0.13081
     168 ->182        -0.22200
     168 ->185         0.14426
     168 ->187        -0.10305
     169 ->177         0.20568
     169 ->179         0.25292
     169 ->181         0.12701
     169 ->182        -0.21998
     169 ->185         0.13090
     169 ->187        -0.10011

 Excited State   4:      Singlet-A      2.9951 eV  413.96 nm  f=0.8315  <S**2>=0.000
     175 ->177        -0.31877
     176 ->178         0.47377
     176 ->179        -0.28385

 Excited State   5:      Singlet-A      3.0109 eV  411.79 nm  f=0.0882  <S**2>=0.000
     168 ->177        -0.22874
     168 ->178        -0.10302
     168 ->179         0.22295
     168 ->182         0.17952
     168 ->185         0.13180
     169 ->177         0.22625
     169 ->178         0.10092
     169 ->179        -0.22788
     169 ->182        -0.17116
     169 ->185        -0.13504
     170 ->177         0.10297
     176 ->178        -0.13481
     176 ->179         0.10864

 The electronic state is 1-A.
 Alpha  occ. eigenvalues --   -1.86519  -1.83277  -1.80703  -1.74506  -1.72274
 Alpha  occ. eigenvalues --   -1.72055  -1.64585  -1.61038  -1.58828  -1.55680
 Alpha  occ. eigenvalues --   -1.52831  -1.51343  -1.49518  -1.47941  -1.46529
 Alpha  occ. eigenvalues --   -1.45251  -1.42637  -1.40570  -1.38552  -1.38412
 Alpha  occ. eigenvalues --   -1.36435  -1.34681  -1.33531  -1.30237  -1.29340
 Alpha  occ. eigenvalues --   -1.28313  -1.27545  -1.23185  -1.20560  -1.18329
 Alpha  occ. eigenvalues --   -1.17756  -1.15412  -1.14880  -1.14397  -1.13910
 Alpha  occ. eigenvalues --   -1.12667  -1.10220  -1.08999  -1.05421  -1.03772
 Alpha  occ. eigenvalues --   -1.01968  -1.01701  -0.98356  -0.98193  -0.97063
 Alpha  occ. eigenvalues --   -0.96057  -0.94039  -0.92974  -0.92447  -0.91846
 Alpha  occ. eigenvalues --   -0.91308  -0.89372  -0.89043  -0.88242  -0.86564
 Alpha  occ. eigenvalues --   -0.85882  -0.85712  -0.83696  -0.82311  -0.79823
 Alpha  occ. eigenvalues --   -0.79503  -0.79205  -0.77647  -0.76672  -0.76628
 Alpha  occ. eigenvalues --   -0.75996  -0.75458  -0.74915  -0.74267  -0.73480
 Alpha  occ. eigenvalues --   -0.72854  -0.72561  -0.71867  -0.70871  -0.70359
 Alpha  occ. eigenvalues --   -0.70109  -0.69215  -0.68490  -0.68115  -0.67408
 Alpha  occ. eigenvalues --   -0.67376  -0.67197  -0.66676  -0.66545  -0.66166
 Alpha  occ. eigenvalues --   -0.65699  -0.64815  -0.64190  -0.63668  -0.63512
 Alpha  occ. eigenvalues --   -0.63364  -0.62872  -0.62525  -0.62236  -0.62019
 Alpha  occ. eigenvalues --   -0.61773  -0.61127  -0.60908  -0.60802  -0.60403
 Alpha  occ. eigenvalues --   -0.60077  -0.59904  -0.59127  -0.58990  -0.58821
 Alpha  occ. eigenvalues --   -0.58334  -0.57745  -0.57477  -0.56800  -0.55863
 Alpha  occ. eigenvalues --   -0.55795  -0.55532  -0.55136  -0.54832  -0.54685
 Alpha  occ. eigenvalues --   -0.54328  -0.54170  -0.54056  -0.53331  -0.52836
 Alpha  occ. eigenvalues --   -0.52771  -0.52597  -0.52251  -0.52132  -0.52034
 Alpha  occ. eigenvalues --   -0.51824  -0.51449  -0.51119  -0.50877  -0.50699
 Alpha  occ. eigenvalues --   -0.49971  -0.49749  -0.49543  -0.49271  -0.48848
 Alpha  occ. eigenvalues --   -0.48634  -0.48570  -0.48396  -0.48187  -0.47788
 Alpha  occ. eigenvalues --   -0.47462  -0.47368  -0.47219  -0.46904  -0.46657
 Alpha  occ. eigenvalues --   -0.46568  -0.45975  -0.45935  -0.45845  -0.45500
 Alpha  occ. eigenvalues --   -0.45136  -0.45045  -0.44715  -0.44481  -0.44009
 Alpha  occ. eigenvalues --   -0.43738  -0.43506  -0.43203  -0.42724  -0.42391
 Alpha  occ. eigenvalues --   -0.42198  -0.41628  -0.41015  -0.39419  -0.39031
 Alpha  occ. eigenvalues --   -0.38255  -0.36936  -0.35076  -0.34995  -0.34534
 Alpha  occ. eigenvalues --   -0.32983  -0.32708  -0.32018  -0.31413  -0.26584
 Alpha  occ. eigenvalues --   -0.21847
 Alpha virt. eigenvalues --   -0.08789  -0.02079  -0.00394   0.01340   0.01546
 Alpha virt. eigenvalues --    0.01619   0.01905   0.03089   0.04574   0.04793
 Alpha virt. eigenvalues --    0.06166   0.06832   0.07324   0.07720   0.07772

 Mulliken charges:
               1
     1  Mg   0.423210
     2  C   -0.034162
     3  C   -0.069432
     4  C   -0.105129
     5  C   -0.086161
     6  N   -0.290857
     7  C    0.118837
     8  C   -0.003865
     9  C    0.007369
    10  C    0.142814
    11  C   -0.047980
    12  C   -0.017314
    13  C   -0.002930
    14  C    0.469935
    15  O   -0.508563
    16  O   -0.256182
    17  N   -0.318401
    18  C    0.080394
    19  C    0.049004
    20  C   -0.063909
    21  C    0.155855
    22  C   -0.029488
    23  C    0.312049
    24  O   -0.547212
    25  C   -0.030193
    26  N   -0.278591
    27  C    0.152329
    28  C   -0.003402
    29  C   -0.010783
    30  C    0.127039
    31  C   -0.060676
    32  C   -0.031178
    33  C   -0.053750
    34  N   -0.305316
    35  C    0.104381
    36  C    0.035947
    37  C   -0.064345
    38  C    0.104728
    39  C   -0.042388
    40  C    0.326867
    41  O   -0.507956
    42  C    0.055726
    43  C    0.493978
    44  O   -0.518867
    45  O   -0.275437
    46  C    0.075730
    47  C    0.100014
    48  C   -0.092468
    49  C   -0.044827
    50  C   -0.047252
    51  C   -0.032293
    52  C   -0.042259
    53  C   -0.029960
    54  C   -0.006923
    55  C   -0.066753
    56  C   -0.033025
    57  C   -0.040279
    58  C   -0.035010
    59  C   -0.016888
    60  C   -0.066517
    61  C   -0.024138
    62  C   -0.041811
    63  C   -0.045366
    64  C   -0.030882
    65  C   -0.057700
    66  C   -0.067429
    67  H    0.032277
    68  H    0.017822
    69  H    0.033595
    70  H    0.032735
    71  H    0.031701
    72  H    0.020744
    73  H    0.025105
    74  H    0.025581
    75  H    0.025614
    76  H    0.032198
    77  H    0.022437
    78  H    0.041895
    79  H    0.031326
    80  H    0.023568
    81  H    0.047387
    82  H    0.055810
    83  H    0.052175
    84  H    0.026189
    85  H    0.029354
    86  H    0.038356
    87  H    0.022995
    88  H    0.027224
    89  H    0.026433
    90  H    0.020664
    91  H    0.022599
    92  H    0.026228
    93  H    0.016885
    94  H    0.020005
    95  H    0.056987
    96  H    0.032277
    97  H    0.029900
    98  H    0.054588
    99  H    0.050043
   100  H    0.041912
   101  H    0.030057
   102  H    0.056326
   103  H    0.066036
   104  H    0.036869
   105  H    0.031731
   106  H    0.025511
   107  H    0.035500
   108  H    0.017384
   109  H    0.020414
   110  H    0.021400
   111  H    0.030087
   112  H    0.021728
   113  H    0.017605
   114  H    0.026216
   115  H    0.014749
   116  H    0.016400
   117  H    0.023000
   118  H    0.019671
   119  H    0.015670
   120  H    0.017158
   121  H    0.023817
   122  H    0.022821
   123  H    0.018837
   124  H    0.023254
   125  H    0.020916
   126  H    0.023870
   127  H    0.014839
   128  H    0.019430
   129  H    0.015258
   130  H    0.015676
   131  H    0.016576
   132  H    0.027529
   133  H    0.035351
   134  H    0.020850
   135  H    0.011230
   136  H    0.027257
   137  H    0.019601
   138  H    0.017689
   139  H    0.014874
   140  H    0.022240
 Sum of Mulliken charges =  -0.00000

 Dipole moment (field-independent basis, Debye):
    X=             -1.4180    Y=              1.4214    Z=              4.0619  Tot=              4.5310
 N-N= 4.456873396045D+03 E-N= 0.000000000000D+00  KE=-9.587582633909D+03
 Leave Link  601 at Thu May  5 00:33:43 2022, MaxMem=  6710886400 cpu:               3.6 elap:               0.2
 (Enter /sw/apps/gaussian-16.0/g16/l9999.exe)
 1\1\GINC-BP1-COMPUTE135\SP\RZINDO CIS\STO-3G\C55H74Mg1N4O6\OF15641\05-
 May-2022\0\\#p ZINDO=(nstates=5)\\step_501_chromophore_17 ZINDO\\0,1\M
 g,0,29.51,58.908,41.214\C,0,26.389,57.486,40.173\C,0,31.078,56.056,39.
 826\C,0,32.447,60.512,41.462\C,0,27.841,61.854,41.884\N,0,28.827,56.95
 9,40.121\C,0,27.518,56.7,39.825\C,0,27.436,55.532,38.855\C,0,28.911,54
 .976,39.03\C,0,29.715,56.028,39.694\C,0,29.081,53.624,39.801\C,0,26.96
 3,56.031,37.452\C,0,25.856,55.222,36.659\C,0,26.197,54.602,35.292\O,0,

 Normal termination of Gaussian 16 at Thu May  5 00:33:44 2022.
