 Gaussian 16, Revision A.03,
 Gaussian 16:  ES64L-G16RevA.03 25-Dec-2016

 ------------------------------
 #p blyp/Def2SVP td=(nstates=5)
 ------------------------------

 --------------------------------------------------
 step_651_chromophore_12 TDDFT with blyp functional
 --------------------------------------------------
 Symbolic Z-matrix:
 Charge =  0 Multiplicity = 1

                         Standard orientation:
 ---------------------------------------------------------------------
 Center     Atomic      Atomic             Coordinates (Angstroms)
 Number     Number       Type             X           Y           Z
 ---------------------------------------------------------------------
      1         12           0        4.484030    0.740841    0.207915
      2          6           0        3.602065   -2.724646   -0.334880
      3          6           0        1.017171    1.293139   -0.533926
      4          6           0        5.153454    3.992168    0.479020
      5          6           0        7.644882   -0.198263    0.443957
      6          7           0        2.455461   -0.624681   -0.212842
      7          6           0        2.402677   -1.997832   -0.318214
      8          6           0        0.957602   -2.462202   -0.441061
      9          6           0        0.137364   -1.124004   -0.591683
     10          6           0        1.267359   -0.112086   -0.475237
     11          6           0       -0.645401   -0.917733   -1.924571
     12          6           0        0.488243   -3.361361    0.751946
     13          6           0       -0.586634   -4.421912    0.342053
     14          6           0       -1.947273   -4.545428    1.151949
     15          8           0       -1.946464   -4.518164    2.422156
     16          8           0       -3.121452   -4.580286    0.382857
     17          7           0        3.250359    2.351686   -0.040378
     18          6           0        1.858196    2.408675   -0.349181
     19          6           0        1.490598    3.821895   -0.451698
     20          6           0        2.613543    4.609578   -0.161965
     21          6           0        3.719992    3.687814    0.153764
     22          6           0        0.112565    4.275181   -0.595276
     23          6           0        2.838390    6.130967   -0.140504
     24          8           0        3.907268    6.676318    0.027106
     25          6           0        1.661975    7.104973   -0.274377
     26          7           0        6.132030    1.767681    0.291352
     27          6           0        6.178659    3.088829    0.718683
     28          6           0        7.648739    3.540785    1.066952
     29          6           0        8.331547    2.110838    1.287144
     30          6           0        7.376498    1.185175    0.608759
     31          6           0        8.390392    4.335614   -0.013461
     32          6           0        8.583783    1.785414    2.800756
     33          6           0        9.910692    1.037748    3.115338
     34          7           0        5.461425   -1.020369    0.057819
     35          6           0        6.799194   -1.245237    0.121805
     36          6           0        7.136917   -2.629370   -0.018166
     37          6           0        5.927795   -3.238210   -0.181132
     38          6           0        4.923302   -2.227018   -0.138821
     39          6           0        8.461854   -3.188872   -0.046879
     40          6           0        5.293553   -4.499606   -0.587757
     41          8           0        5.715485   -5.572917   -0.944022
     42          6           0        3.842259   -4.221038   -0.463067
     43          6           0        3.225882   -4.729577   -1.692340
     44          8           0        3.738552   -4.597082   -2.816850
     45          8           0        2.121132   -5.506502   -1.380459
     46          6           0        1.410785   -6.008475   -2.638149
     47          6           0       -4.431916   -4.769278    1.128533
     48          6           0       -5.710159   -4.417831    0.259293
     49          6           0       -6.879784   -3.853627    0.678244
     50          6           0       -7.240343   -3.798726    2.193912
     51          6           0       -8.083250   -3.554081   -0.313306
     52          6           0       -8.710547   -2.081283   -0.311128
     53          6           0      -10.225748   -2.076732    0.102384
     54          6           0      -10.459436   -0.958157    1.220946
     55          6           0      -11.700015   -1.320254    2.073580
     56          6           0      -10.518947    0.493733    0.566878
     57          6           0       -9.370418    1.393676    1.104529
     58          6           0       -9.683686    2.866206    0.779147
     59          6           0       -8.302397    3.701035    0.543554
     60          6           0       -8.396110    4.808020    1.555080
     61          6           0       -8.159679    4.435751   -0.821507
     62          6           0       -7.229088    3.798442   -1.857557
     63          6           0       -5.906678    4.622368   -2.214972
     64          6           0       -4.619082    4.069345   -1.609781
     65          6           0       -3.522526    5.179445   -1.545491
     66          6           0       -4.096901    2.855012   -2.403407
     67          1           0       -0.033101    1.576842   -0.626905
     68          1           0        5.488448    5.026298    0.580127
     69          1           0        8.689107   -0.515800    0.422111
     70          1           0        0.785124   -3.068901   -1.330031
     71          1           0       -0.585079   -0.915096    0.197314
     72          1           0       -1.268399   -0.037186   -2.078476
     73          1           0       -1.138716   -1.776339   -2.378787
     74          1           0        0.166488   -0.786660   -2.640022
     75          1           0       -0.051608   -2.737725    1.465415
     76          1           0        1.370832   -3.862962    1.148393
     77          1           0        0.017021   -5.269689    0.664096
     78          1           0       -0.941952   -4.552275   -0.680009
     79          1           0       -0.246297    4.952022    0.179944
     80          1           0       -0.655837    3.519926   -0.431595
     81          1           0       -0.142906    4.680184   -1.574253
     82          1           0        1.712456    8.176876   -0.463180
     83          1           0        1.002726    7.013682    0.589144
     84          1           0        1.104182    6.718200   -1.126606
     85          1           0        7.683638    4.185159    1.945847
     86          1           0        9.254592    2.005982    0.715360
     87          1           0        9.266814    3.790003   -0.362123
     88          1           0        8.622635    5.284727    0.470534
     89          1           0        7.714969    4.457498   -0.860013
     90          1           0        7.848343    1.170273    3.319665
     91          1           0        8.607289    2.718246    3.365309
     92          1           0       10.564208    1.644897    3.741071
     93          1           0       10.435288    0.786560    2.193005
     94          1           0        9.775815    0.057267    3.572568
     95          1           0        8.691795   -3.249032   -1.110607
     96          1           0        8.567493   -4.203284    0.337472
     97          1           0        9.191489   -2.492760    0.367259
     98          1           0        3.550047   -4.833835    0.389878
     99          1           0        0.549462   -6.654939   -2.475210
    100          1           0        2.148041   -6.531152   -3.248310
    101          1           0        0.966856   -5.190223   -3.204111
    102          1           0       -4.635502   -3.958280    1.829272
    103          1           0       -4.550502   -5.685684    1.707344
    104          1           0       -5.505508   -4.628276   -0.790294
    105          1           0       -6.579847   -4.146452    2.988556
    106          1           0       -8.168786   -4.369947    2.203714
    107          1           0       -7.537813   -2.781853    2.451740
    108          1           0       -8.976797   -4.152404   -0.137442
    109          1           0       -7.790237   -3.806154   -1.332444
    110          1           0       -8.694460   -1.565623   -1.272010
    111          1           0       -8.169916   -1.422163    0.368872
    112          1           0      -10.514987   -2.929292    0.717492
    113          1           0      -10.871850   -2.058957   -0.774673
    114          1           0       -9.642341   -1.055696    1.937077
    115          1           0      -11.682490   -2.299801    2.551640
    116          1           0      -12.550852   -1.245895    1.397338
    117          1           0      -11.886874   -0.622062    2.889727
    118          1           0      -11.428469    1.008123    0.876493
    119          1           0      -10.426629    0.463731   -0.518651
    120          1           0       -8.469253    1.098539    0.568421
    121          1           0       -9.307641    1.272868    2.186033
    122          1           0      -10.343476    3.286266    1.538123
    123          1           0      -10.251975    2.786086   -0.148189
    124          1           0       -7.386296    3.178704    0.816967
    125          1           0       -9.311204    5.352042    1.321144
    126          1           0       -7.582443    5.532393    1.559249
    127          1           0       -8.326629    4.316542    2.526660
    128          1           0       -7.828250    5.462934   -0.668515
    129          1           0       -9.178548    4.518724   -1.200054
    130          1           0       -7.741581    3.463357   -2.759808
    131          1           0       -6.899676    2.869382   -1.394190
    132          1           0       -6.031353    5.680546   -1.982143
    133          1           0       -5.782369    4.596186   -3.297868
    134          1           0       -4.932981    3.748420   -0.616381
    135          1           0       -3.985305    6.110584   -1.872981
    136          1           0       -2.624178    4.831989   -2.056150
    137          1           0       -3.270089    5.348988   -0.498866
    138          1           0       -4.896716    2.120024   -2.492503
    139          1           0       -3.361526    2.302343   -1.817514
    140          1           0       -3.696818    3.177821   -3.364654
 ---------------------------------------------------------------------

 SCF Done:  E(RB-LYP) =  -3007.32838200     A.U. after   22 cycles

 Excitation energies and oscillator strengths:

 Excited State   1:      Singlet-A      1.7635 eV  703.06 nm  f=0.2618  <S**2>=0.000
     244 -> 247       -0.13854
     245 -> 248       -0.18776
     246 -> 247        0.67967
     246 <- 247       -0.15069
 This state for optimization and/or second-order correction.
 Total Energy, E(TD-HF/TD-DFT) =  -3007.26357519
 Copying the excited state density for this state as the 1-particle RhoCI density.

 Excited State   2:      Singlet-A      1.8715 eV  662.49 nm  f=0.0154  <S**2>=0.000
     244 -> 247        0.69213
     246 -> 247        0.13288

 Excited State   3:      Singlet-A      1.9851 eV  624.57 nm  f=0.0360  <S**2>=0.000
     243 -> 247        0.49595
     245 -> 247        0.46613
     246 -> 248        0.17992

 Excited State   4:      Singlet-A      2.0705 eV  598.81 nm  f=0.0392  <S**2>=0.000
     243 -> 247        0.50058
     245 -> 247       -0.43300
     246 -> 248       -0.23487

 Excited State   5:      Singlet-A      2.5156 eV  492.86 nm  f=0.0001  <S**2>=0.000
     241 -> 247        0.70558

 The electronic state is 1-A.
 Alpha  occ. eigenvalues --  -46.26098 -18.83247 -18.83038 -18.76547 -18.76522
 Alpha  occ. eigenvalues --  -18.75567 -18.75507 -14.03038 -14.02962 -14.01397
 Alpha  occ. eigenvalues --  -14.00932 -10.04813 -10.03753 -10.00319  -9.99008
 Alpha  occ. eigenvalues --   -9.98921  -9.98172  -9.96871  -9.96754  -9.96734
 Alpha  occ. eigenvalues --   -9.96333  -9.96320  -9.96028  -9.94919  -9.94824
 Alpha  occ. eigenvalues --   -9.94729  -9.94592  -9.94560  -9.94202  -9.94108
 Alpha  occ. eigenvalues --   -9.94090  -9.94026  -9.93995  -9.93944  -9.93417
 Alpha  occ. eigenvalues --   -9.93252  -9.93212  -9.93152  -9.93089  -9.93034
 Alpha  occ. eigenvalues --   -9.93004  -9.92877  -9.92748  -9.92647  -9.92634
 Alpha  occ. eigenvalues --   -9.92525  -9.92463  -9.92414  -9.92299  -9.92277
 Alpha  occ. eigenvalues --   -9.92144  -9.91992  -9.91874  -9.91840  -9.91737
 Alpha  occ. eigenvalues --   -9.91735  -9.91519  -9.91498  -9.91437  -9.91425
 Alpha  occ. eigenvalues --   -9.91393  -9.91375  -9.91255  -9.91109  -9.90647
 Alpha  occ. eigenvalues --   -9.90481  -2.91115  -1.71508  -1.71040  -1.70819
 Alpha  occ. eigenvalues --   -0.96636  -0.95485  -0.92171  -0.92161  -0.88727
 Alpha  occ. eigenvalues --   -0.87578  -0.87473  -0.86426  -0.84656  -0.82736
 Alpha  occ. eigenvalues --   -0.76255  -0.73234  -0.72723  -0.72571  -0.72221
 Alpha  occ. eigenvalues --   -0.71949  -0.71759  -0.71103  -0.71067  -0.70619
 Alpha  occ. eigenvalues --   -0.70283  -0.68604  -0.68198  -0.67684  -0.66897
 Alpha  occ. eigenvalues --   -0.66407  -0.65803  -0.65190  -0.64779  -0.64394
 Alpha  occ. eigenvalues --   -0.64246  -0.62887  -0.62332  -0.62053  -0.61314
 Alpha  occ. eigenvalues --   -0.60653  -0.60528  -0.59791  -0.59308  -0.58930
 Alpha  occ. eigenvalues --   -0.58105  -0.57731  -0.56716  -0.55763  -0.54707
 Alpha  occ. eigenvalues --   -0.53961  -0.53171  -0.52752  -0.52351  -0.51730
 Alpha  occ. eigenvalues --   -0.51374  -0.51216  -0.50713  -0.50229  -0.50040
 Alpha  occ. eigenvalues --   -0.49667  -0.49438  -0.48950  -0.48695  -0.46445
 Alpha  occ. eigenvalues --   -0.46393  -0.46226  -0.45818  -0.45360  -0.44894
 Alpha  occ. eigenvalues --   -0.44365  -0.43249  -0.43139  -0.42285  -0.42212
 Alpha  occ. eigenvalues --   -0.41945  -0.41852  -0.41686  -0.41593  -0.41273
 Alpha  occ. eigenvalues --   -0.41120  -0.40783  -0.40295  -0.40158  -0.39898
 Alpha  occ. eigenvalues --   -0.39723  -0.39581  -0.39362  -0.39349  -0.39193
 Alpha  occ. eigenvalues --   -0.39000  -0.38862  -0.38822  -0.38477  -0.38467
 Alpha  occ. eigenvalues --   -0.38243  -0.37881  -0.37707  -0.37440  -0.37270
 Alpha  occ. eigenvalues --   -0.37126  -0.37055  -0.37001  -0.36788  -0.36622
 Alpha  occ. eigenvalues --   -0.36408  -0.36328  -0.36026  -0.35722  -0.35675
 Alpha  occ. eigenvalues --   -0.35243  -0.35205  -0.35063  -0.34886  -0.34662
 Alpha  occ. eigenvalues --   -0.34535  -0.34348  -0.34199  -0.34133  -0.34022
 Alpha  occ. eigenvalues --   -0.33633  -0.33571  -0.33361  -0.33280  -0.33180
 Alpha  occ. eigenvalues --   -0.33006  -0.32756  -0.32533  -0.32443  -0.32351
 Alpha  occ. eigenvalues --   -0.32095  -0.31898  -0.31758  -0.31583  -0.31438
 Alpha  occ. eigenvalues --   -0.31276  -0.30970  -0.30852  -0.30644  -0.30466
 Alpha  occ. eigenvalues --   -0.30345  -0.30314  -0.30200  -0.30112  -0.29966
 Alpha  occ. eigenvalues --   -0.29802  -0.29695  -0.29610  -0.29484  -0.29437
 Alpha  occ. eigenvalues --   -0.29362  -0.28780  -0.28270  -0.28123  -0.27884
 Alpha  occ. eigenvalues --   -0.27771  -0.27533  -0.27477  -0.27225  -0.26922
 Alpha  occ. eigenvalues --   -0.26788  -0.26400  -0.26398  -0.25829  -0.25466
 Alpha  occ. eigenvalues --   -0.25267  -0.25114  -0.25107  -0.23945  -0.23668
 Alpha  occ. eigenvalues --   -0.23573  -0.22241  -0.21636  -0.21216  -0.21162
 Alpha  occ. eigenvalues --   -0.20770  -0.20543  -0.18870  -0.18319  -0.17427
 Alpha  occ. eigenvalues --   -0.15654
 Alpha virt. eigenvalues --   -0.11526  -0.07035  -0.05975  -0.04583  -0.04107
 Alpha virt. eigenvalues --   -0.02893  -0.02820  -0.02177  -0.01531  -0.00181
 Alpha virt. eigenvalues --    0.00785   0.01041   0.01761   0.02087   0.02636

 Mulliken charges:
               1
     1  Mg   0.721228
     2  C    0.013789
     3  C   -0.048754
     4  C   -0.016575
     5  C   -0.106312
     6  N   -0.124717
     7  C   -0.115530
     8  C    0.056575
     9  C    0.023967
    10  C   -0.029125
    11  C    0.087808
    12  C    0.135495
    13  C    0.112633
    14  C    0.095132
    15  O   -0.240498
    16  O   -0.290215
    17  N   -0.359785
    18  C    0.149810
    19  C   -0.085583
    20  C    0.031274
    21  C    0.096135
    22  C    0.116456
    23  C   -0.037513
    24  O   -0.149563
    25  C    0.109719
    26  N   -0.332103
    27  C    0.078509
    28  C   -0.034987
    29  C    0.039115
    30  C    0.075006
    31  C    0.142220
    32  C    0.107086
    33  C    0.040872
    34  N   -0.250311
    35  C    0.107758
    36  C   -0.163907
    37  C    0.053444
    38  C    0.070123
    39  C    0.186087
    40  C   -0.057221
    41  O   -0.105906
    42  C    0.116050
    43  C    0.096047
    44  O   -0.193240
    45  O   -0.292134
    46  C    0.215006
    47  C    0.284050
    48  C   -0.121201
    49  C   -0.084754
    50  C    0.101883
    51  C    0.132272
    52  C    0.038586
    53  C    0.051181
    54  C   -0.071150
    55  C    0.081477
    56  C    0.102627
    57  C    0.018265
    58  C    0.106552
    59  C   -0.066586
    60  C    0.080764
    61  C    0.128172
    62  C    0.071414
    63  C    0.084448
    64  C   -0.110296
    65  C    0.118137
    66  C    0.097315
    67  H   -0.074333
    68  H   -0.034652
    69  H   -0.063973
    70  H   -0.023362
    71  H   -0.010631
    72  H    0.006790
    73  H   -0.008833
    74  H   -0.019041
    75  H   -0.005945
    76  H   -0.007727
    77  H    0.014071
    78  H   -0.007471
    79  H   -0.001413
    80  H   -0.029203
    81  H    0.020485
    82  H   -0.009413
    83  H    0.004947
    84  H   -0.015599
    85  H   -0.022451
    86  H   -0.019196
    87  H   -0.008405
    88  H    0.001440
    89  H    0.001877
    90  H   -0.013568
    91  H   -0.022417
    92  H   -0.002414
    93  H   -0.017803
    94  H   -0.007592
    95  H    0.007338
    96  H    0.008866
    97  H   -0.016941
    98  H    0.008533
    99  H    0.014861
   100  H    0.033587
   101  H    0.011662
   102  H    0.011940
   103  H    0.023007
   104  H   -0.028790
   105  H    0.008358
   106  H    0.001719
   107  H   -0.004551
   108  H   -0.015915
   109  H   -0.031132
   110  H   -0.022736
   111  H   -0.007358
   112  H   -0.033581
   113  H   -0.017332
   114  H   -0.027520
   115  H   -0.011478
   116  H   -0.016189
   117  H   -0.020640
   118  H   -0.032378
   119  H   -0.022190
   120  H   -0.011945
   121  H   -0.023113
   122  H   -0.018166
   123  H   -0.037290
   124  H   -0.031450
   125  H   -0.012093
   126  H   -0.028873
   127  H   -0.023789
   128  H   -0.039705
   129  H   -0.042482
   130  H   -0.035347
   131  H   -0.034163
   132  H   -0.030361
   133  H   -0.044515
   134  H   -0.036744
   135  H   -0.017110
   136  H   -0.006134
   137  H   -0.018763
   138  H   -0.022591
   139  H   -0.015637
   140  H   -0.001565
 Sum of Mulliken charges =  -0.00000

 Dipole moment (field-independent basis, Debye):
    X=             -4.3804    Y=              1.7213    Z=              1.2403  Tot=              4.8672
 Quadrupole moment (field-independent basis, Debye-Ang):
   XX=           -367.7570   YY=           -436.0437   ZZ=           -411.1574
   XY=             19.8517   XZ=             22.9548   YZ=              2.0589

 Normal termination of Gaussian 16 at Sat Apr 30 08:06:30 2022.
