 Gaussian 16, Revision A.03,
 Gaussian 16:  ES64L-G16RevA.03 25-Dec-2016

 -----------------------------------
 #p cam-b3lyp/Def2SVP td=(nstates=5)
 -----------------------------------

 -------------------------------------------------------
 step_651_chromophore_12 TDDFT with cam-b3lyp functional
 -------------------------------------------------------
 Symbolic Z-matrix:
 Charge =  0 Multiplicity = 1

                         Standard orientation:
 ---------------------------------------------------------------------
 Center     Atomic      Atomic             Coordinates (Angstroms)
 Number     Number       Type             X           Y           Z
 ---------------------------------------------------------------------
      1         12           0        4.484030    0.740841    0.207915
      2          6           0        3.602065   -2.724646   -0.334880
      3          6           0        1.017171    1.293139   -0.533926
      4          6           0        5.153454    3.992168    0.479020
      5          6           0        7.644882   -0.198263    0.443957
      6          7           0        2.455461   -0.624681   -0.212842
      7          6           0        2.402677   -1.997832   -0.318214
      8          6           0        0.957602   -2.462202   -0.441061
      9          6           0        0.137364   -1.124004   -0.591683
     10          6           0        1.267359   -0.112086   -0.475237
     11          6           0       -0.645401   -0.917733   -1.924571
     12          6           0        0.488243   -3.361361    0.751946
     13          6           0       -0.586634   -4.421912    0.342053
     14          6           0       -1.947273   -4.545428    1.151949
     15          8           0       -1.946464   -4.518164    2.422156
     16          8           0       -3.121452   -4.580286    0.382857
     17          7           0        3.250359    2.351686   -0.040378
     18          6           0        1.858196    2.408675   -0.349181
     19          6           0        1.490598    3.821895   -0.451698
     20          6           0        2.613543    4.609578   -0.161965
     21          6           0        3.719992    3.687814    0.153764
     22          6           0        0.112565    4.275181   -0.595276
     23          6           0        2.838390    6.130967   -0.140504
     24          8           0        3.907268    6.676318    0.027106
     25          6           0        1.661975    7.104973   -0.274377
     26          7           0        6.132030    1.767681    0.291352
     27          6           0        6.178659    3.088829    0.718683
     28          6           0        7.648739    3.540785    1.066952
     29          6           0        8.331547    2.110838    1.287144
     30          6           0        7.376498    1.185175    0.608759
     31          6           0        8.390392    4.335614   -0.013461
     32          6           0        8.583783    1.785414    2.800756
     33          6           0        9.910692    1.037748    3.115338
     34          7           0        5.461425   -1.020369    0.057819
     35          6           0        6.799194   -1.245237    0.121805
     36          6           0        7.136917   -2.629370   -0.018166
     37          6           0        5.927795   -3.238210   -0.181132
     38          6           0        4.923302   -2.227018   -0.138821
     39          6           0        8.461854   -3.188872   -0.046879
     40          6           0        5.293553   -4.499606   -0.587757
     41          8           0        5.715485   -5.572917   -0.944022
     42          6           0        3.842259   -4.221038   -0.463067
     43          6           0        3.225882   -4.729577   -1.692340
     44          8           0        3.738552   -4.597082   -2.816850
     45          8           0        2.121132   -5.506502   -1.380459
     46          6           0        1.410785   -6.008475   -2.638149
     47          6           0       -4.431916   -4.769278    1.128533
     48          6           0       -5.710159   -4.417831    0.259293
     49          6           0       -6.879784   -3.853627    0.678244
     50          6           0       -7.240343   -3.798726    2.193912
     51          6           0       -8.083250   -3.554081   -0.313306
     52          6           0       -8.710547   -2.081283   -0.311128
     53          6           0      -10.225748   -2.076732    0.102384
     54          6           0      -10.459436   -0.958157    1.220946
     55          6           0      -11.700015   -1.320254    2.073580
     56          6           0      -10.518947    0.493733    0.566878
     57          6           0       -9.370418    1.393676    1.104529
     58          6           0       -9.683686    2.866206    0.779147
     59          6           0       -8.302397    3.701035    0.543554
     60          6           0       -8.396110    4.808020    1.555080
     61          6           0       -8.159679    4.435751   -0.821507
     62          6           0       -7.229088    3.798442   -1.857557
     63          6           0       -5.906678    4.622368   -2.214972
     64          6           0       -4.619082    4.069345   -1.609781
     65          6           0       -3.522526    5.179445   -1.545491
     66          6           0       -4.096901    2.855012   -2.403407
     67          1           0       -0.033101    1.576842   -0.626905
     68          1           0        5.488448    5.026298    0.580127
     69          1           0        8.689107   -0.515800    0.422111
     70          1           0        0.785124   -3.068901   -1.330031
     71          1           0       -0.585079   -0.915096    0.197314
     72          1           0       -1.268399   -0.037186   -2.078476
     73          1           0       -1.138716   -1.776339   -2.378787
     74          1           0        0.166488   -0.786660   -2.640022
     75          1           0       -0.051608   -2.737725    1.465415
     76          1           0        1.370832   -3.862962    1.148393
     77          1           0        0.017021   -5.269689    0.664096
     78          1           0       -0.941952   -4.552275   -0.680009
     79          1           0       -0.246297    4.952022    0.179944
     80          1           0       -0.655837    3.519926   -0.431595
     81          1           0       -0.142906    4.680184   -1.574253
     82          1           0        1.712456    8.176876   -0.463180
     83          1           0        1.002726    7.013682    0.589144
     84          1           0        1.104182    6.718200   -1.126606
     85          1           0        7.683638    4.185159    1.945847
     86          1           0        9.254592    2.005982    0.715360
     87          1           0        9.266814    3.790003   -0.362123
     88          1           0        8.622635    5.284727    0.470534
     89          1           0        7.714969    4.457498   -0.860013
     90          1           0        7.848343    1.170273    3.319665
     91          1           0        8.607289    2.718246    3.365309
     92          1           0       10.564208    1.644897    3.741071
     93          1           0       10.435288    0.786560    2.193005
     94          1           0        9.775815    0.057267    3.572568
     95          1           0        8.691795   -3.249032   -1.110607
     96          1           0        8.567493   -4.203284    0.337472
     97          1           0        9.191489   -2.492760    0.367259
     98          1           0        3.550047   -4.833835    0.389878
     99          1           0        0.549462   -6.654939   -2.475210
    100          1           0        2.148041   -6.531152   -3.248310
    101          1           0        0.966856   -5.190223   -3.204111
    102          1           0       -4.635502   -3.958280    1.829272
    103          1           0       -4.550502   -5.685684    1.707344
    104          1           0       -5.505508   -4.628276   -0.790294
    105          1           0       -6.579847   -4.146452    2.988556
    106          1           0       -8.168786   -4.369947    2.203714
    107          1           0       -7.537813   -2.781853    2.451740
    108          1           0       -8.976797   -4.152404   -0.137442
    109          1           0       -7.790237   -3.806154   -1.332444
    110          1           0       -8.694460   -1.565623   -1.272010
    111          1           0       -8.169916   -1.422163    0.368872
    112          1           0      -10.514987   -2.929292    0.717492
    113          1           0      -10.871850   -2.058957   -0.774673
    114          1           0       -9.642341   -1.055696    1.937077
    115          1           0      -11.682490   -2.299801    2.551640
    116          1           0      -12.550852   -1.245895    1.397338
    117          1           0      -11.886874   -0.622062    2.889727
    118          1           0      -11.428469    1.008123    0.876493
    119          1           0      -10.426629    0.463731   -0.518651
    120          1           0       -8.469253    1.098539    0.568421
    121          1           0       -9.307641    1.272868    2.186033
    122          1           0      -10.343476    3.286266    1.538123
    123          1           0      -10.251975    2.786086   -0.148189
    124          1           0       -7.386296    3.178704    0.816967
    125          1           0       -9.311204    5.352042    1.321144
    126          1           0       -7.582443    5.532393    1.559249
    127          1           0       -8.326629    4.316542    2.526660
    128          1           0       -7.828250    5.462934   -0.668515
    129          1           0       -9.178548    4.518724   -1.200054
    130          1           0       -7.741581    3.463357   -2.759808
    131          1           0       -6.899676    2.869382   -1.394190
    132          1           0       -6.031353    5.680546   -1.982143
    133          1           0       -5.782369    4.596186   -3.297868
    134          1           0       -4.932981    3.748420   -0.616381
    135          1           0       -3.985305    6.110584   -1.872981
    136          1           0       -2.624178    4.831989   -2.056150
    137          1           0       -3.270089    5.348988   -0.498866
    138          1           0       -4.896716    2.120024   -2.492503
    139          1           0       -3.361526    2.302343   -1.817514
    140          1           0       -3.696818    3.177821   -3.364654
 ---------------------------------------------------------------------

 SCF Done:  E(RCAM-B3LYP) =  -3007.10498299     A.U. after   17 cycles

 Excitation energies and oscillator strengths:

 Excited State   1:      Singlet-A      1.6584 eV  747.63 nm  f=0.3622  <S**2>=0.000
     245 -> 248       -0.17938
     246 -> 247        0.68536
     245 <- 248       -0.11045
 This state for optimization and/or second-order correction.
 Total Energy, E(TD-HF/TD-DFT) =  -3007.04403960
 Copying the excited state density for this state as the 1-particle RhoCI density.

 Excited State   2:      Singlet-A      2.2372 eV  554.19 nm  f=0.0800  <S**2>=0.000
     245 -> 247        0.61831
     246 -> 248        0.33154

 Excited State   3:      Singlet-A      3.3911 eV  365.62 nm  f=0.2313  <S**2>=0.000
     243 -> 247        0.10770
     244 -> 247        0.51429
     245 -> 247        0.18162
     246 -> 248       -0.40123

 Excited State   4:      Singlet-A      3.5065 eV  353.58 nm  f=0.5457  <S**2>=0.000
     244 -> 247        0.44853
     245 -> 247       -0.25727
     246 -> 248        0.44858

 Excited State   5:      Singlet-A      3.6183 eV  342.66 nm  f=0.0074  <S**2>=0.000
     242 -> 247        0.44032
     242 -> 249        0.26133
     242 -> 250       -0.16906
     243 -> 247        0.33713
     243 -> 249        0.15779
     243 -> 250       -0.11315

 The electronic state is 1-A.
 Alpha  occ. eigenvalues --  -46.87515 -19.26210 -19.26091 -19.19637 -19.19549
 Alpha  occ. eigenvalues --  -19.18876 -19.18674 -14.42011 -14.41716 -14.39959
 Alpha  occ. eigenvalues --  -14.39301 -10.40345 -10.39235 -10.35595 -10.34178
 Alpha  occ. eigenvalues --  -10.33149 -10.32391 -10.31627 -10.31171 -10.31083
 Alpha  occ. eigenvalues --  -10.30844 -10.30812 -10.30522 -10.29090 -10.28957
 Alpha  occ. eigenvalues --  -10.28885 -10.28732 -10.28671 -10.28621 -10.28505
 Alpha  occ. eigenvalues --  -10.28259 -10.27953 -10.27936 -10.27929 -10.27695
 Alpha  occ. eigenvalues --  -10.27457 -10.27445 -10.27374 -10.27288 -10.27033
 Alpha  occ. eigenvalues --  -10.26810 -10.26671 -10.26620 -10.26619 -10.26607
 Alpha  occ. eigenvalues --  -10.26321 -10.26265 -10.26254 -10.26116 -10.25955
 Alpha  occ. eigenvalues --  -10.25797 -10.25652 -10.25618 -10.25546 -10.25523
 Alpha  occ. eigenvalues --  -10.25495 -10.25410 -10.25224 -10.25203 -10.25171
 Alpha  occ. eigenvalues --  -10.25163 -10.25133 -10.24917 -10.24843 -10.24683
 Alpha  occ. eigenvalues --  -10.24118  -3.16457  -1.91317  -1.90956  -1.90759
 Alpha  occ. eigenvalues --   -1.15180  -1.13840  -1.10694  -1.10564  -1.06643
 Alpha  occ. eigenvalues --   -1.05415  -1.05123  -1.04160  -1.02141  -1.00296
 Alpha  occ. eigenvalues --   -0.93453  -0.90116  -0.89540  -0.89364  -0.88830
 Alpha  occ. eigenvalues --   -0.88707  -0.88289  -0.87762  -0.87751  -0.87153
 Alpha  occ. eigenvalues --   -0.86931  -0.84989  -0.84520  -0.83798  -0.83046
 Alpha  occ. eigenvalues --   -0.82475  -0.81870  -0.81168  -0.80714  -0.80228
 Alpha  occ. eigenvalues --   -0.80098  -0.78600  -0.78056  -0.77580  -0.76738
 Alpha  occ. eigenvalues --   -0.76143  -0.75903  -0.75044  -0.74655  -0.74185
 Alpha  occ. eigenvalues --   -0.73159  -0.72759  -0.71597  -0.70560  -0.69286
 Alpha  occ. eigenvalues --   -0.68526  -0.67727  -0.67157  -0.66749  -0.65845
 Alpha  occ. eigenvalues --   -0.65597  -0.65506  -0.64820  -0.64365  -0.63889
 Alpha  occ. eigenvalues --   -0.63478  -0.63328  -0.62939  -0.62478  -0.60048
 Alpha  occ. eigenvalues --   -0.59875  -0.59814  -0.59312  -0.58717  -0.58435
 Alpha  occ. eigenvalues --   -0.57719  -0.56327  -0.56302  -0.55639  -0.55107
 Alpha  occ. eigenvalues --   -0.55006  -0.54853  -0.54744  -0.54443  -0.54313
 Alpha  occ. eigenvalues --   -0.53900  -0.53602  -0.53247  -0.52818  -0.52711
 Alpha  occ. eigenvalues --   -0.52594  -0.52236  -0.52178  -0.52144  -0.51879
 Alpha  occ. eigenvalues --   -0.51516  -0.51299  -0.51121  -0.50897  -0.50818
 Alpha  occ. eigenvalues --   -0.50697  -0.50459  -0.49974  -0.49871  -0.49816
 Alpha  occ. eigenvalues --   -0.49617  -0.49587  -0.49328  -0.49143  -0.48895
 Alpha  occ. eigenvalues --   -0.48803  -0.48460  -0.48302  -0.47982  -0.47684
 Alpha  occ. eigenvalues --   -0.47233  -0.47201  -0.47022  -0.46912  -0.46726
 Alpha  occ. eigenvalues --   -0.46551  -0.46456  -0.46169  -0.46121  -0.45803
 Alpha  occ. eigenvalues --   -0.45585  -0.45429  -0.45287  -0.45006  -0.44854
 Alpha  occ. eigenvalues --   -0.44745  -0.44510  -0.44252  -0.44144  -0.43874
 Alpha  occ. eigenvalues --   -0.43580  -0.43397  -0.43197  -0.43178  -0.42938
 Alpha  occ. eigenvalues --   -0.42697  -0.42436  -0.42332  -0.42278  -0.42202
 Alpha  occ. eigenvalues --   -0.42053  -0.41741  -0.41533  -0.41436  -0.41322
 Alpha  occ. eigenvalues --   -0.40932  -0.40896  -0.40835  -0.40740  -0.40653
 Alpha  occ. eigenvalues --   -0.40476  -0.39762  -0.39218  -0.39027  -0.38797
 Alpha  occ. eigenvalues --   -0.38766  -0.38485  -0.38410  -0.38260  -0.38029
 Alpha  occ. eigenvalues --   -0.37809  -0.37333  -0.37089  -0.36865  -0.36511
 Alpha  occ. eigenvalues --   -0.36326  -0.36062  -0.35803  -0.34962  -0.34246
 Alpha  occ. eigenvalues --   -0.33968  -0.33248  -0.32884  -0.31312  -0.30910
 Alpha  occ. eigenvalues --   -0.30668  -0.30640  -0.30530  -0.29899  -0.24248
 Alpha  occ. eigenvalues --   -0.20851
 Alpha virt. eigenvalues --   -0.08580  -0.01952   0.00616   0.02487   0.03168
 Alpha virt. eigenvalues --    0.03605   0.04658   0.04963   0.05302   0.06187
 Alpha virt. eigenvalues --    0.06882   0.08076   0.08267   0.08358   0.08986

 Mulliken charges:
               1
     1  Mg   0.855379
     2  C   -0.015128
     3  C   -0.055911
     4  C   -0.040123
     5  C   -0.113741
     6  N   -0.185550
     7  C   -0.079954
     8  C    0.012220
     9  C   -0.030059
    10  C   -0.010022
    11  C    0.032886
    12  C    0.091035
    13  C    0.041112
    14  C    0.180536
    15  O   -0.281218
    16  O   -0.358219
    17  N   -0.444859
    18  C    0.159205
    19  C   -0.088241
    20  C   -0.038518
    21  C    0.122242
    22  C    0.055510
    23  C    0.038591
    24  O   -0.188566
    25  C    0.034709
    26  N   -0.406392
    27  C    0.094602
    28  C   -0.082225
    29  C   -0.025526
    30  C    0.097236
    31  C    0.083781
    32  C    0.053005
    33  C   -0.018037
    34  N   -0.341592
    35  C    0.111839
    36  C   -0.166733
    37  C   -0.021540
    38  C    0.107374
    39  C    0.131019
    40  C    0.051105
    41  O   -0.144674
    42  C    0.031453
    43  C    0.187089
    44  O   -0.230666
    45  O   -0.356411
    46  C    0.174122
    47  C    0.256663
    48  C   -0.137042
    49  C   -0.113895
    50  C    0.042134
    51  C    0.078136
    52  C   -0.012923
    53  C    0.000968
    54  C   -0.125265
    55  C    0.026197
    56  C    0.046567
    57  C   -0.026101
    58  C    0.052859
    59  C   -0.124928
    60  C    0.022874
    61  C    0.073647
    62  C    0.018141
    63  C    0.029194
    64  C   -0.165067
    65  C    0.059118
    66  C    0.041793
    67  H   -0.040051
    68  H    0.004685
    69  H   -0.032054
    70  H    0.007458
    71  H    0.022801
    72  H    0.028968
    73  H    0.016756
    74  H    0.006406
    75  H    0.025203
    76  H    0.021982
    77  H    0.046529
    78  H    0.022593
    79  H    0.025713
    80  H   -0.001597
    81  H    0.045488
    82  H    0.025801
    83  H    0.031119
    84  H    0.009433
    85  H    0.012220
    86  H    0.014915
    87  H    0.015921
    88  H    0.024349
    89  H    0.027595
    90  H    0.015666
    91  H    0.005683
    92  H    0.020802
    93  H    0.003107
    94  H    0.016131
    95  H    0.035027
    96  H    0.035741
    97  H    0.006788
    98  H    0.051335
    99  H    0.038918
   100  H    0.059988
   101  H    0.032853
   102  H    0.037965
   103  H    0.049545
   104  H    0.004773
   105  H    0.033056
   106  H    0.024090
   107  H    0.017452
   108  H    0.013335
   109  H    0.000599
   110  H    0.005793
   111  H    0.016973
   112  H   -0.007175
   113  H    0.010541
   114  H    0.000999
   115  H    0.012635
   116  H    0.006703
   117  H    0.004174
   118  H   -0.003330
   119  H    0.004785
   120  H    0.011104
   121  H    0.003156
   122  H    0.010761
   123  H   -0.008408
   124  H   -0.001933
   125  H    0.011006
   126  H   -0.002888
   127  H    0.001565
   128  H   -0.009646
   129  H   -0.012196
   130  H   -0.004320
   131  H   -0.009554
   132  H   -0.002759
   133  H   -0.014409
   134  H   -0.007296
   135  H    0.008757
   136  H    0.012794
   137  H    0.004005
   138  H    0.001996
   139  H    0.004656
   140  H    0.021209
 Sum of Mulliken charges =  -0.00000

 Dipole moment (field-independent basis, Debye):
    X=             -5.1776    Y=              2.1357    Z=              1.1705  Tot=              5.7218
 Quadrupole moment (field-independent basis, Debye-Ang):
   XX=           -368.7629   YY=           -432.2041   ZZ=           -411.5078
   XY=             20.2286   XZ=             24.0844   YZ=              2.4034

 Normal termination of Gaussian 16 at Sat Apr 30 06:49:21 2022.
