 Gaussian 16, Revision A.03,
 Gaussian 16:  ES64L-G16RevA.03 25-Dec-2016

 ---------------------------------
 #p PBE1PBE/Def2SVP td=(nstates=5)
 ---------------------------------

 -----------------------------------------------------
 step_651_chromophore_12 TDDFT with PBE1PBE functional
 -----------------------------------------------------
 Symbolic Z-matrix:
 Charge =  0 Multiplicity = 1

                         Standard orientation:
 ---------------------------------------------------------------------
 Center     Atomic      Atomic             Coordinates (Angstroms)
 Number     Number       Type             X           Y           Z
 ---------------------------------------------------------------------
      1         12           0        4.484030    0.740841    0.207915
      2          6           0        3.602065   -2.724646   -0.334880
      3          6           0        1.017171    1.293139   -0.533926
      4          6           0        5.153454    3.992168    0.479020
      5          6           0        7.644882   -0.198263    0.443957
      6          7           0        2.455461   -0.624681   -0.212842
      7          6           0        2.402677   -1.997832   -0.318214
      8          6           0        0.957602   -2.462202   -0.441061
      9          6           0        0.137364   -1.124004   -0.591683
     10          6           0        1.267359   -0.112086   -0.475237
     11          6           0       -0.645401   -0.917733   -1.924571
     12          6           0        0.488243   -3.361361    0.751946
     13          6           0       -0.586634   -4.421912    0.342053
     14          6           0       -1.947273   -4.545428    1.151949
     15          8           0       -1.946464   -4.518164    2.422156
     16          8           0       -3.121452   -4.580286    0.382857
     17          7           0        3.250359    2.351686   -0.040378
     18          6           0        1.858196    2.408675   -0.349181
     19          6           0        1.490598    3.821895   -0.451698
     20          6           0        2.613543    4.609578   -0.161965
     21          6           0        3.719992    3.687814    0.153764
     22          6           0        0.112565    4.275181   -0.595276
     23          6           0        2.838390    6.130967   -0.140504
     24          8           0        3.907268    6.676318    0.027106
     25          6           0        1.661975    7.104973   -0.274377
     26          7           0        6.132030    1.767681    0.291352
     27          6           0        6.178659    3.088829    0.718683
     28          6           0        7.648739    3.540785    1.066952
     29          6           0        8.331547    2.110838    1.287144
     30          6           0        7.376498    1.185175    0.608759
     31          6           0        8.390392    4.335614   -0.013461
     32          6           0        8.583783    1.785414    2.800756
     33          6           0        9.910692    1.037748    3.115338
     34          7           0        5.461425   -1.020369    0.057819
     35          6           0        6.799194   -1.245237    0.121805
     36          6           0        7.136917   -2.629370   -0.018166
     37          6           0        5.927795   -3.238210   -0.181132
     38          6           0        4.923302   -2.227018   -0.138821
     39          6           0        8.461854   -3.188872   -0.046879
     40          6           0        5.293553   -4.499606   -0.587757
     41          8           0        5.715485   -5.572917   -0.944022
     42          6           0        3.842259   -4.221038   -0.463067
     43          6           0        3.225882   -4.729577   -1.692340
     44          8           0        3.738552   -4.597082   -2.816850
     45          8           0        2.121132   -5.506502   -1.380459
     46          6           0        1.410785   -6.008475   -2.638149
     47          6           0       -4.431916   -4.769278    1.128533
     48          6           0       -5.710159   -4.417831    0.259293
     49          6           0       -6.879784   -3.853627    0.678244
     50          6           0       -7.240343   -3.798726    2.193912
     51          6           0       -8.083250   -3.554081   -0.313306
     52          6           0       -8.710547   -2.081283   -0.311128
     53          6           0      -10.225748   -2.076732    0.102384
     54          6           0      -10.459436   -0.958157    1.220946
     55          6           0      -11.700015   -1.320254    2.073580
     56          6           0      -10.518947    0.493733    0.566878
     57          6           0       -9.370418    1.393676    1.104529
     58          6           0       -9.683686    2.866206    0.779147
     59          6           0       -8.302397    3.701035    0.543554
     60          6           0       -8.396110    4.808020    1.555080
     61          6           0       -8.159679    4.435751   -0.821507
     62          6           0       -7.229088    3.798442   -1.857557
     63          6           0       -5.906678    4.622368   -2.214972
     64          6           0       -4.619082    4.069345   -1.609781
     65          6           0       -3.522526    5.179445   -1.545491
     66          6           0       -4.096901    2.855012   -2.403407
     67          1           0       -0.033101    1.576842   -0.626905
     68          1           0        5.488448    5.026298    0.580127
     69          1           0        8.689107   -0.515800    0.422111
     70          1           0        0.785124   -3.068901   -1.330031
     71          1           0       -0.585079   -0.915096    0.197314
     72          1           0       -1.268399   -0.037186   -2.078476
     73          1           0       -1.138716   -1.776339   -2.378787
     74          1           0        0.166488   -0.786660   -2.640022
     75          1           0       -0.051608   -2.737725    1.465415
     76          1           0        1.370832   -3.862962    1.148393
     77          1           0        0.017021   -5.269689    0.664096
     78          1           0       -0.941952   -4.552275   -0.680009
     79          1           0       -0.246297    4.952022    0.179944
     80          1           0       -0.655837    3.519926   -0.431595
     81          1           0       -0.142906    4.680184   -1.574253
     82          1           0        1.712456    8.176876   -0.463180
     83          1           0        1.002726    7.013682    0.589144
     84          1           0        1.104182    6.718200   -1.126606
     85          1           0        7.683638    4.185159    1.945847
     86          1           0        9.254592    2.005982    0.715360
     87          1           0        9.266814    3.790003   -0.362123
     88          1           0        8.622635    5.284727    0.470534
     89          1           0        7.714969    4.457498   -0.860013
     90          1           0        7.848343    1.170273    3.319665
     91          1           0        8.607289    2.718246    3.365309
     92          1           0       10.564208    1.644897    3.741071
     93          1           0       10.435288    0.786560    2.193005
     94          1           0        9.775815    0.057267    3.572568
     95          1           0        8.691795   -3.249032   -1.110607
     96          1           0        8.567493   -4.203284    0.337472
     97          1           0        9.191489   -2.492760    0.367259
     98          1           0        3.550047   -4.833835    0.389878
     99          1           0        0.549462   -6.654939   -2.475210
    100          1           0        2.148041   -6.531152   -3.248310
    101          1           0        0.966856   -5.190223   -3.204111
    102          1           0       -4.635502   -3.958280    1.829272
    103          1           0       -4.550502   -5.685684    1.707344
    104          1           0       -5.505508   -4.628276   -0.790294
    105          1           0       -6.579847   -4.146452    2.988556
    106          1           0       -8.168786   -4.369947    2.203714
    107          1           0       -7.537813   -2.781853    2.451740
    108          1           0       -8.976797   -4.152404   -0.137442
    109          1           0       -7.790237   -3.806154   -1.332444
    110          1           0       -8.694460   -1.565623   -1.272010
    111          1           0       -8.169916   -1.422163    0.368872
    112          1           0      -10.514987   -2.929292    0.717492
    113          1           0      -10.871850   -2.058957   -0.774673
    114          1           0       -9.642341   -1.055696    1.937077
    115          1           0      -11.682490   -2.299801    2.551640
    116          1           0      -12.550852   -1.245895    1.397338
    117          1           0      -11.886874   -0.622062    2.889727
    118          1           0      -11.428469    1.008123    0.876493
    119          1           0      -10.426629    0.463731   -0.518651
    120          1           0       -8.469253    1.098539    0.568421
    121          1           0       -9.307641    1.272868    2.186033
    122          1           0      -10.343476    3.286266    1.538123
    123          1           0      -10.251975    2.786086   -0.148189
    124          1           0       -7.386296    3.178704    0.816967
    125          1           0       -9.311204    5.352042    1.321144
    126          1           0       -7.582443    5.532393    1.559249
    127          1           0       -8.326629    4.316542    2.526660
    128          1           0       -7.828250    5.462934   -0.668515
    129          1           0       -9.178548    4.518724   -1.200054
    130          1           0       -7.741581    3.463357   -2.759808
    131          1           0       -6.899676    2.869382   -1.394190
    132          1           0       -6.031353    5.680546   -1.982143
    133          1           0       -5.782369    4.596186   -3.297868
    134          1           0       -4.932981    3.748420   -0.616381
    135          1           0       -3.985305    6.110584   -1.872981
    136          1           0       -2.624178    4.831989   -2.056150
    137          1           0       -3.270089    5.348988   -0.498866
    138          1           0       -4.896716    2.120024   -2.492503
    139          1           0       -3.361526    2.302343   -1.817514
    140          1           0       -3.696818    3.177821   -3.364654
 ---------------------------------------------------------------------

 SCF Done:  E(RPBE1PBE) =  -3005.29245604     A.U. after   15 cycles

 Excitation energies and oscillator strengths:

 Excited State   1:      Singlet-A      1.8148 eV  683.18 nm  f=0.3471  <S**2>=0.000
     245 -> 248       -0.17314
     246 -> 247        0.69368
     246 <- 247       -0.11142
 This state for optimization and/or second-order correction.
 Total Energy, E(TD-HF/TD-DFT) =  -3005.22576306
 Copying the excited state density for this state as the 1-particle RhoCI density.

 Excited State   2:      Singlet-A      2.2454 eV  552.16 nm  f=0.0851  <S**2>=0.000
     245 -> 247        0.63300
     246 -> 248        0.30630

 Excited State   3:      Singlet-A      3.0094 eV  411.99 nm  f=0.0000  <S**2>=0.000
     244 -> 247        0.68051
     244 -> 249        0.13031

 Excited State   4:      Singlet-A      3.1109 eV  398.55 nm  f=0.0000  <S**2>=0.000
     242 -> 247       -0.22884
     243 -> 247        0.64341

 Excited State   5:      Singlet-A      3.1466 eV  394.02 nm  f=0.0278  <S**2>=0.000
     242 -> 247        0.60649
     242 -> 249       -0.10369
     243 -> 247        0.21646
     246 -> 248       -0.21611

 The electronic state is 1-A.
 Alpha  occ. eigenvalues --  -46.90972 -19.26928 -19.26711 -19.19886 -19.19870
 Alpha  occ. eigenvalues --  -19.19009 -19.18949 -14.41405 -14.41366 -14.39639
 Alpha  occ. eigenvalues --  -14.38970 -10.37466 -10.36270 -10.32673 -10.31365
 Alpha  occ. eigenvalues --  -10.30594 -10.29598 -10.29266 -10.28975 -10.28934
 Alpha  occ. eigenvalues --  -10.28541 -10.28474 -10.28148 -10.26810 -10.26745
 Alpha  occ. eigenvalues --  -10.26699 -10.26479 -10.26370 -10.26260 -10.26212
 Alpha  occ. eigenvalues --  -10.25859 -10.25817 -10.25805 -10.25595 -10.25312
 Alpha  occ. eigenvalues --  -10.25073 -10.24944 -10.24920 -10.24882 -10.24804
 Alpha  occ. eigenvalues --  -10.24392 -10.24372 -10.24323 -10.24220 -10.24047
 Alpha  occ. eigenvalues --  -10.23984 -10.23831 -10.23758 -10.23746 -10.23667
 Alpha  occ. eigenvalues --  -10.23319 -10.23231 -10.23116 -10.23066 -10.23062
 Alpha  occ. eigenvalues --  -10.22899 -10.22867 -10.22737 -10.22720 -10.22661
 Alpha  occ. eigenvalues --  -10.22592 -10.22529 -10.22463 -10.22390 -10.22323
 Alpha  occ. eigenvalues --  -10.21498  -3.13481  -1.86282  -1.85903  -1.85705
 Alpha  occ. eigenvalues --   -1.09896  -1.08656  -1.05367  -1.05358  -1.01446
 Alpha  occ. eigenvalues --   -1.00281  -0.99861  -0.98770  -0.96787  -0.94830
 Alpha  occ. eigenvalues --   -0.87840  -0.84181  -0.83697  -0.83509  -0.83189
 Alpha  occ. eigenvalues --   -0.82806  -0.82684  -0.82010  -0.81870  -0.81470
 Alpha  occ. eigenvalues --   -0.81199  -0.79199  -0.78679  -0.78125  -0.77321
 Alpha  occ. eigenvalues --   -0.76658  -0.76126  -0.75304  -0.74925  -0.74484
 Alpha  occ. eigenvalues --   -0.74317  -0.72893  -0.72290  -0.71904  -0.71084
 Alpha  occ. eigenvalues --   -0.70200  -0.70056  -0.69410  -0.68801  -0.68352
 Alpha  occ. eigenvalues --   -0.67519  -0.67157  -0.66011  -0.64922  -0.63743
 Alpha  occ. eigenvalues --   -0.62905  -0.61944  -0.61440  -0.61125  -0.60303
 Alpha  occ. eigenvalues --   -0.60029  -0.59662  -0.59357  -0.58524  -0.58479
 Alpha  occ. eigenvalues --   -0.57900  -0.57592  -0.57125  -0.57061  -0.54553
 Alpha  occ. eigenvalues --   -0.54414  -0.54234  -0.53927  -0.53300  -0.52918
 Alpha  occ. eigenvalues --   -0.52361  -0.50940  -0.50804  -0.50238  -0.49575
 Alpha  occ. eigenvalues --   -0.49452  -0.49251  -0.49181  -0.48935  -0.48768
 Alpha  occ. eigenvalues --   -0.48320  -0.48210  -0.47782  -0.47459  -0.47164
 Alpha  occ. eigenvalues --   -0.47102  -0.46829  -0.46691  -0.46467  -0.46407
 Alpha  occ. eigenvalues --   -0.46200  -0.45820  -0.45755  -0.45454  -0.45410
 Alpha  occ. eigenvalues --   -0.45227  -0.45028  -0.44598  -0.44436  -0.44386
 Alpha  occ. eigenvalues --   -0.44241  -0.44053  -0.43921  -0.43675  -0.43598
 Alpha  occ. eigenvalues --   -0.43408  -0.43142  -0.42918  -0.42664  -0.42339
 Alpha  occ. eigenvalues --   -0.41862  -0.41849  -0.41716  -0.41579  -0.41362
 Alpha  occ. eigenvalues --   -0.41197  -0.41130  -0.40873  -0.40811  -0.40366
 Alpha  occ. eigenvalues --   -0.40321  -0.40174  -0.39973  -0.39826  -0.39599
 Alpha  occ. eigenvalues --   -0.39457  -0.39260  -0.39049  -0.38992  -0.38588
 Alpha  occ. eigenvalues --   -0.38352  -0.38265  -0.38022  -0.37931  -0.37810
 Alpha  occ. eigenvalues --   -0.37389  -0.37253  -0.37109  -0.37019  -0.36975
 Alpha  occ. eigenvalues --   -0.36812  -0.36584  -0.36326  -0.36244  -0.36200
 Alpha  occ. eigenvalues --   -0.35869  -0.35704  -0.35658  -0.35626  -0.35406
 Alpha  occ. eigenvalues --   -0.35178  -0.34667  -0.34035  -0.33821  -0.33808
 Alpha  occ. eigenvalues --   -0.33569  -0.33424  -0.33232  -0.33163  -0.32969
 Alpha  occ. eigenvalues --   -0.32563  -0.32332  -0.32010  -0.31895  -0.31506
 Alpha  occ. eigenvalues --   -0.31388  -0.30984  -0.30618  -0.30124  -0.29124
 Alpha  occ. eigenvalues --   -0.29021  -0.28417  -0.28043  -0.26895  -0.26217
 Alpha  occ. eigenvalues --   -0.25950  -0.25862  -0.25554  -0.25221  -0.21139
 Alpha  occ. eigenvalues --   -0.18533
 Alpha virt. eigenvalues --   -0.11074  -0.05424  -0.03627  -0.01963  -0.01006
 Alpha virt. eigenvalues --    0.00187   0.00267   0.00360   0.00978   0.02710
 Alpha virt. eigenvalues --    0.03521   0.04011   0.04497   0.04980   0.05487

 Mulliken charges:
               1
     1  Mg   1.014686
     2  C   -0.033566
     3  C   -0.050820
     4  C   -0.035738
     5  C   -0.102098
     6  N   -0.288237
     7  C   -0.009832
     8  C   -0.053902
     9  C   -0.107423
    10  C    0.035531
    11  C   -0.025088
    12  C    0.041820
    13  C   -0.035258
    14  C    0.244657
    15  O   -0.309818
    16  O   -0.388732
    17  N   -0.552335
    18  C    0.185274
    19  C   -0.125920
    20  C   -0.089565
    21  C    0.152893
    22  C   -0.001834
    23  C    0.089205
    24  O   -0.226185
    25  C   -0.037140
    26  N   -0.502148
    27  C    0.116979
    28  C   -0.154283
    29  C   -0.109077
    30  C    0.130027
    31  C    0.028170
    32  C   -0.001402
    33  C   -0.087944
    34  N   -0.475949
    35  C    0.132574
    36  C   -0.193499
    37  C   -0.071161
    38  C    0.167661
    39  C    0.079234
    40  C    0.160720
    41  O   -0.191635
    42  C   -0.089781
    43  C    0.280226
    44  O   -0.262949
    45  O   -0.385918
    46  C    0.116453
    47  C    0.213172
    48  C   -0.142544
    49  C   -0.164384
    50  C   -0.021677
    51  C    0.017564
    52  C   -0.071501
    53  C   -0.053848
    54  C   -0.214777
    55  C   -0.035761
    56  C   -0.006134
    57  C   -0.091065
    58  C    0.001721
    59  C   -0.214143
    60  C   -0.042774
    61  C    0.025892
    62  C   -0.045424
    63  C   -0.023852
    64  C   -0.260530
    65  C   -0.004501
    66  C   -0.023480
    67  H   -0.007865
    68  H    0.036421
    69  H    0.001356
    70  H    0.049911
    71  H    0.059060
    72  H    0.056662
    73  H    0.044555
    74  H    0.035523
    75  H    0.057600
    76  H    0.055801
    77  H    0.079687
    78  H    0.052662
    79  H    0.051861
    80  H    0.025923
    81  H    0.071830
    82  H    0.052480
    83  H    0.057828
    84  H    0.037422
    85  H    0.047615
    86  H    0.050588
    87  H    0.043248
    88  H    0.051145
    89  H    0.055677
    90  H    0.047916
    91  H    0.038953
    92  H    0.048478
    93  H    0.029757
    94  H    0.043595
    95  H    0.064735
    96  H    0.063274
    97  H    0.033594
    98  H    0.086953
    99  H    0.060156
   100  H    0.081474
   101  H    0.053776
   102  H    0.066048
   103  H    0.075395
   104  H    0.034600
   105  H    0.057797
   106  H    0.052434
   107  H    0.046938
   108  H    0.045435
   109  H    0.032628
   110  H    0.037937
   111  H    0.050465
   112  H    0.025853
   113  H    0.041700
   114  H    0.040577
   115  H    0.039477
   116  H    0.035477
   117  H    0.032868
   118  H    0.030026
   119  H    0.036770
   120  H    0.045797
   121  H    0.036390
   122  H    0.041319
   123  H    0.024851
   124  H    0.034188
   125  H    0.039782
   126  H    0.026385
   127  H    0.031609
   128  H    0.022329
   129  H    0.020425
   130  H    0.027609
   131  H    0.024305
   132  H    0.028428
   133  H    0.019262
   134  H    0.032755
   135  H    0.035829
   136  H    0.042155
   137  H    0.032177
   138  H    0.030630
   139  H    0.034924
   140  H    0.047950
 Sum of Mulliken charges =  -0.00000

 Dipole moment (field-independent basis, Debye):
    X=             -4.9210    Y=              2.0356    Z=              1.2661  Tot=              5.4739
 Quadrupole moment (field-independent basis, Debye-Ang):
   XX=           -360.3788   YY=           -430.2550   ZZ=           -408.8500
   XY=             20.2993   XZ=             24.6516   YZ=              2.6199

 Normal termination of Gaussian 16 at Sat Apr 30 07:17:59 2022.
