 Gaussian 16, Revision A.03,
 Gaussian 16:  ES64L-G16RevA.03 25-Dec-2016

 --------------------------------
 #p wB97XD/Def2SVP td=(nstates=5)
 --------------------------------

 ----------------------------------------------------
 step_651_chromophore_12 TDDFT with wB97XD functional
 ----------------------------------------------------
 Symbolic Z-matrix:
 Charge =  0 Multiplicity = 1

                         Standard orientation:
 ---------------------------------------------------------------------
 Center     Atomic      Atomic             Coordinates (Angstroms)
 Number     Number       Type             X           Y           Z
 ---------------------------------------------------------------------
      1         12           0        4.484030    0.740841    0.207915
      2          6           0        3.602065   -2.724646   -0.334880
      3          6           0        1.017171    1.293139   -0.533926
      4          6           0        5.153454    3.992168    0.479020
      5          6           0        7.644882   -0.198263    0.443957
      6          7           0        2.455461   -0.624681   -0.212842
      7          6           0        2.402677   -1.997832   -0.318214
      8          6           0        0.957602   -2.462202   -0.441061
      9          6           0        0.137364   -1.124004   -0.591683
     10          6           0        1.267359   -0.112086   -0.475237
     11          6           0       -0.645401   -0.917733   -1.924571
     12          6           0        0.488243   -3.361361    0.751946
     13          6           0       -0.586634   -4.421912    0.342053
     14          6           0       -1.947273   -4.545428    1.151949
     15          8           0       -1.946464   -4.518164    2.422156
     16          8           0       -3.121452   -4.580286    0.382857
     17          7           0        3.250359    2.351686   -0.040378
     18          6           0        1.858196    2.408675   -0.349181
     19          6           0        1.490598    3.821895   -0.451698
     20          6           0        2.613543    4.609578   -0.161965
     21          6           0        3.719992    3.687814    0.153764
     22          6           0        0.112565    4.275181   -0.595276
     23          6           0        2.838390    6.130967   -0.140504
     24          8           0        3.907268    6.676318    0.027106
     25          6           0        1.661975    7.104973   -0.274377
     26          7           0        6.132030    1.767681    0.291352
     27          6           0        6.178659    3.088829    0.718683
     28          6           0        7.648739    3.540785    1.066952
     29          6           0        8.331547    2.110838    1.287144
     30          6           0        7.376498    1.185175    0.608759
     31          6           0        8.390392    4.335614   -0.013461
     32          6           0        8.583783    1.785414    2.800756
     33          6           0        9.910692    1.037748    3.115338
     34          7           0        5.461425   -1.020369    0.057819
     35          6           0        6.799194   -1.245237    0.121805
     36          6           0        7.136917   -2.629370   -0.018166
     37          6           0        5.927795   -3.238210   -0.181132
     38          6           0        4.923302   -2.227018   -0.138821
     39          6           0        8.461854   -3.188872   -0.046879
     40          6           0        5.293553   -4.499606   -0.587757
     41          8           0        5.715485   -5.572917   -0.944022
     42          6           0        3.842259   -4.221038   -0.463067
     43          6           0        3.225882   -4.729577   -1.692340
     44          8           0        3.738552   -4.597082   -2.816850
     45          8           0        2.121132   -5.506502   -1.380459
     46          6           0        1.410785   -6.008475   -2.638149
     47          6           0       -4.431916   -4.769278    1.128533
     48          6           0       -5.710159   -4.417831    0.259293
     49          6           0       -6.879784   -3.853627    0.678244
     50          6           0       -7.240343   -3.798726    2.193912
     51          6           0       -8.083250   -3.554081   -0.313306
     52          6           0       -8.710547   -2.081283   -0.311128
     53          6           0      -10.225748   -2.076732    0.102384
     54          6           0      -10.459436   -0.958157    1.220946
     55          6           0      -11.700015   -1.320254    2.073580
     56          6           0      -10.518947    0.493733    0.566878
     57          6           0       -9.370418    1.393676    1.104529
     58          6           0       -9.683686    2.866206    0.779147
     59          6           0       -8.302397    3.701035    0.543554
     60          6           0       -8.396110    4.808020    1.555080
     61          6           0       -8.159679    4.435751   -0.821507
     62          6           0       -7.229088    3.798442   -1.857557
     63          6           0       -5.906678    4.622368   -2.214972
     64          6           0       -4.619082    4.069345   -1.609781
     65          6           0       -3.522526    5.179445   -1.545491
     66          6           0       -4.096901    2.855012   -2.403407
     67          1           0       -0.033101    1.576842   -0.626905
     68          1           0        5.488448    5.026298    0.580127
     69          1           0        8.689107   -0.515800    0.422111
     70          1           0        0.785124   -3.068901   -1.330031
     71          1           0       -0.585079   -0.915096    0.197314
     72          1           0       -1.268399   -0.037186   -2.078476
     73          1           0       -1.138716   -1.776339   -2.378787
     74          1           0        0.166488   -0.786660   -2.640022
     75          1           0       -0.051608   -2.737725    1.465415
     76          1           0        1.370832   -3.862962    1.148393
     77          1           0        0.017021   -5.269689    0.664096
     78          1           0       -0.941952   -4.552275   -0.680009
     79          1           0       -0.246297    4.952022    0.179944
     80          1           0       -0.655837    3.519926   -0.431595
     81          1           0       -0.142906    4.680184   -1.574253
     82          1           0        1.712456    8.176876   -0.463180
     83          1           0        1.002726    7.013682    0.589144
     84          1           0        1.104182    6.718200   -1.126606
     85          1           0        7.683638    4.185159    1.945847
     86          1           0        9.254592    2.005982    0.715360
     87          1           0        9.266814    3.790003   -0.362123
     88          1           0        8.622635    5.284727    0.470534
     89          1           0        7.714969    4.457498   -0.860013
     90          1           0        7.848343    1.170273    3.319665
     91          1           0        8.607289    2.718246    3.365309
     92          1           0       10.564208    1.644897    3.741071
     93          1           0       10.435288    0.786560    2.193005
     94          1           0        9.775815    0.057267    3.572568
     95          1           0        8.691795   -3.249032   -1.110607
     96          1           0        8.567493   -4.203284    0.337472
     97          1           0        9.191489   -2.492760    0.367259
     98          1           0        3.550047   -4.833835    0.389878
     99          1           0        0.549462   -6.654939   -2.475210
    100          1           0        2.148041   -6.531152   -3.248310
    101          1           0        0.966856   -5.190223   -3.204111
    102          1           0       -4.635502   -3.958280    1.829272
    103          1           0       -4.550502   -5.685684    1.707344
    104          1           0       -5.505508   -4.628276   -0.790294
    105          1           0       -6.579847   -4.146452    2.988556
    106          1           0       -8.168786   -4.369947    2.203714
    107          1           0       -7.537813   -2.781853    2.451740
    108          1           0       -8.976797   -4.152404   -0.137442
    109          1           0       -7.790237   -3.806154   -1.332444
    110          1           0       -8.694460   -1.565623   -1.272010
    111          1           0       -8.169916   -1.422163    0.368872
    112          1           0      -10.514987   -2.929292    0.717492
    113          1           0      -10.871850   -2.058957   -0.774673
    114          1           0       -9.642341   -1.055696    1.937077
    115          1           0      -11.682490   -2.299801    2.551640
    116          1           0      -12.550852   -1.245895    1.397338
    117          1           0      -11.886874   -0.622062    2.889727
    118          1           0      -11.428469    1.008123    0.876493
    119          1           0      -10.426629    0.463731   -0.518651
    120          1           0       -8.469253    1.098539    0.568421
    121          1           0       -9.307641    1.272868    2.186033
    122          1           0      -10.343476    3.286266    1.538123
    123          1           0      -10.251975    2.786086   -0.148189
    124          1           0       -7.386296    3.178704    0.816967
    125          1           0       -9.311204    5.352042    1.321144
    126          1           0       -7.582443    5.532393    1.559249
    127          1           0       -8.326629    4.316542    2.526660
    128          1           0       -7.828250    5.462934   -0.668515
    129          1           0       -9.178548    4.518724   -1.200054
    130          1           0       -7.741581    3.463357   -2.759808
    131          1           0       -6.899676    2.869382   -1.394190
    132          1           0       -6.031353    5.680546   -1.982143
    133          1           0       -5.782369    4.596186   -3.297868
    134          1           0       -4.932981    3.748420   -0.616381
    135          1           0       -3.985305    6.110584   -1.872981
    136          1           0       -2.624178    4.831989   -2.056150
    137          1           0       -3.270089    5.348988   -0.498866
    138          1           0       -4.896716    2.120024   -2.492503
    139          1           0       -3.361526    2.302343   -1.817514
    140          1           0       -3.696818    3.177821   -3.364654
 ---------------------------------------------------------------------

 SCF Done:  E(RwB97XD) =  -3007.80296426     A.U. after   17 cycles

 Excitation energies and oscillator strengths:

 Excited State   1:      Singlet-A      1.5998 eV  775.01 nm  f=0.3605  <S**2>=0.000
     245 -> 248       -0.18519
     246 -> 247        0.68315
     245 <- 248       -0.12007
 This state for optimization and/or second-order correction.
 Total Energy, E(TD-HF/TD-DFT) =  -3007.74417327
 Copying the excited state density for this state as the 1-particle RhoCI density.

 Excited State   2:      Singlet-A      2.1799 eV  568.77 nm  f=0.0781  <S**2>=0.000
     245 -> 247        0.61727
     246 -> 248        0.33237

 Excited State   3:      Singlet-A      3.3933 eV  365.38 nm  f=0.2442  <S**2>=0.000
     240 -> 247        0.11643
     241 -> 247        0.16840
     244 -> 247        0.49334
     245 -> 247        0.18015
     246 -> 248       -0.40909

 Excited State   4:      Singlet-A      3.5223 eV  352.00 nm  f=0.5512  <S**2>=0.000
     244 -> 247        0.45727
     245 -> 247       -0.25753
     246 -> 248        0.44109

 Excited State   5:      Singlet-A      3.6381 eV  340.79 nm  f=0.0082  <S**2>=0.000
     241 -> 247       -0.12977
     241 -> 249        0.10608
     243 -> 247        0.52218
     243 -> 249       -0.30310
     243 -> 250       -0.20425
     244 -> 249       -0.10499

 The electronic state is 1-A.
 Alpha  occ. eigenvalues --  -46.93865 -19.31496 -19.31314 -19.24603 -19.24555
 Alpha  occ. eigenvalues --  -19.23908 -19.23724 -14.46640 -14.46329 -14.44621
 Alpha  occ. eigenvalues --  -14.43884 -10.44240 -10.43106 -10.39585 -10.38179
 Alpha  occ. eigenvalues --  -10.37103 -10.36173 -10.35763 -10.35204 -10.35093
 Alpha  occ. eigenvalues --  -10.34886 -10.34869 -10.34618 -10.33157 -10.32935
 Alpha  occ. eigenvalues --  -10.32899 -10.32874 -10.32756 -10.32679 -10.32669
 Alpha  occ. eigenvalues --  -10.32227 -10.31994 -10.31982 -10.31958 -10.31820
 Alpha  occ. eigenvalues --  -10.31559 -10.31500 -10.31351 -10.31278 -10.31079
 Alpha  occ. eigenvalues --  -10.30680 -10.30671 -10.30645 -10.30635 -10.30549
 Alpha  occ. eigenvalues --  -10.30261 -10.30213 -10.30202 -10.30065 -10.29954
 Alpha  occ. eigenvalues --  -10.29639 -10.29587 -10.29526 -10.29484 -10.29440
 Alpha  occ. eigenvalues --  -10.29391 -10.29220 -10.29130 -10.29109 -10.29065
 Alpha  occ. eigenvalues --  -10.29048 -10.29009 -10.28780 -10.28764 -10.28714
 Alpha  occ. eigenvalues --  -10.27957  -3.20219  -1.93774  -1.93391  -1.93192
 Alpha  occ. eigenvalues --   -1.17343  -1.16066  -1.12923  -1.12798  -1.08851
 Alpha  occ. eigenvalues --   -1.07656  -1.07144  -1.06189  -1.04138  -1.02356
 Alpha  occ. eigenvalues --   -0.95449  -0.91878  -0.91372  -0.91196  -0.90729
 Alpha  occ. eigenvalues --   -0.90508  -0.90195  -0.89695  -0.89561  -0.89083
 Alpha  occ. eigenvalues --   -0.88883  -0.86892  -0.86365  -0.85693  -0.84970
 Alpha  occ. eigenvalues --   -0.84336  -0.83791  -0.83003  -0.82635  -0.82186
 Alpha  occ. eigenvalues --   -0.81988  -0.80550  -0.80002  -0.79508  -0.78669
 Alpha  occ. eigenvalues --   -0.77951  -0.77761  -0.76990  -0.76501  -0.76039
 Alpha  occ. eigenvalues --   -0.75119  -0.74746  -0.73568  -0.72523  -0.71251
 Alpha  occ. eigenvalues --   -0.70466  -0.69607  -0.69066  -0.68729  -0.67808
 Alpha  occ. eigenvalues --   -0.67557  -0.67350  -0.66832  -0.66188  -0.65919
 Alpha  occ. eigenvalues --   -0.65378  -0.65271  -0.64790  -0.64486  -0.62026
 Alpha  occ. eigenvalues --   -0.61868  -0.61757  -0.61316  -0.60703  -0.60419
 Alpha  occ. eigenvalues --   -0.59730  -0.58298  -0.58261  -0.57644  -0.56974
 Alpha  occ. eigenvalues --   -0.56950  -0.56719  -0.56644  -0.56371  -0.56231
 Alpha  occ. eigenvalues --   -0.55784  -0.55540  -0.55184  -0.54774  -0.54588
 Alpha  occ. eigenvalues --   -0.54557  -0.54170  -0.54115  -0.54068  -0.53816
 Alpha  occ. eigenvalues --   -0.53479  -0.53188  -0.53006  -0.52795  -0.52731
 Alpha  occ. eigenvalues --   -0.52605  -0.52411  -0.51877  -0.51781  -0.51745
 Alpha  occ. eigenvalues --   -0.51569  -0.51556  -0.51231  -0.51031  -0.50819
 Alpha  occ. eigenvalues --   -0.50712  -0.50374  -0.50213  -0.49903  -0.49589
 Alpha  occ. eigenvalues --   -0.49160  -0.49128  -0.48940  -0.48860  -0.48670
 Alpha  occ. eigenvalues --   -0.48453  -0.48375  -0.48079  -0.48053  -0.47661
 Alpha  occ. eigenvalues --   -0.47545  -0.47363  -0.47224  -0.46929  -0.46770
 Alpha  occ. eigenvalues --   -0.46641  -0.46429  -0.46180  -0.46081  -0.45760
 Alpha  occ. eigenvalues --   -0.45509  -0.45330  -0.45117  -0.45074  -0.44858
 Alpha  occ. eigenvalues --   -0.44571  -0.44377  -0.44283  -0.44228  -0.44103
 Alpha  occ. eigenvalues --   -0.44044  -0.43679  -0.43442  -0.43339  -0.43252
 Alpha  occ. eigenvalues --   -0.42859  -0.42794  -0.42739  -0.42656  -0.42525
 Alpha  occ. eigenvalues --   -0.42319  -0.41629  -0.41085  -0.40886  -0.40675
 Alpha  occ. eigenvalues --   -0.40644  -0.40405  -0.40258  -0.40179  -0.39952
 Alpha  occ. eigenvalues --   -0.39658  -0.39404  -0.38945  -0.38825  -0.38574
 Alpha  occ. eigenvalues --   -0.38399  -0.37926  -0.37646  -0.36970  -0.36228
 Alpha  occ. eigenvalues --   -0.35822  -0.35183  -0.35142  -0.33496  -0.32924
 Alpha  occ. eigenvalues --   -0.32741  -0.32716  -0.32556  -0.32079  -0.26175
 Alpha  occ. eigenvalues --   -0.22659
 Alpha virt. eigenvalues --   -0.06936  -0.00056   0.02676   0.04600   0.05821
 Alpha virt. eigenvalues --    0.06236   0.06883   0.07111   0.07616   0.09179
 Alpha virt. eigenvalues --    0.10216   0.10761   0.11067   0.11678   0.12231

 Mulliken charges:
               1
     1  Mg   1.000106
     2  C   -0.031166
     3  C   -0.062087
     4  C   -0.052991
     5  C   -0.119078
     6  N   -0.248830
     7  C   -0.042607
     8  C   -0.026160
     9  C   -0.083244
    10  C    0.018637
    11  C   -0.014389
    12  C    0.055334
    13  C   -0.020345
    14  C    0.235806
    15  O   -0.307944
    16  O   -0.388711
    17  N   -0.525839
    18  C    0.177076
    19  C   -0.106747
    20  C   -0.082720
    21  C    0.146192
    22  C    0.008279
    23  C    0.085376
    24  O   -0.219985
    25  C   -0.023760
    26  N   -0.479101
    27  C    0.109454
    28  C   -0.130052
    29  C   -0.075695
    30  C    0.119841
    31  C    0.036604
    32  C    0.007072
    33  C   -0.071102
    34  N   -0.435982
    35  C    0.125143
    36  C   -0.185518
    37  C   -0.065504
    38  C    0.144730
    39  C    0.087728
    40  C    0.138247
    41  O   -0.182897
    42  C   -0.047026
    43  C    0.256227
    44  O   -0.258773
    45  O   -0.384426
    46  C    0.131209
    47  C    0.230795
    48  C   -0.153764
    49  C   -0.149750
    50  C   -0.007420
    51  C    0.036281
    52  C   -0.055661
    53  C   -0.038394
    54  C   -0.179095
    55  C   -0.021798
    56  C    0.004626
    57  C   -0.070095
    58  C    0.014214
    59  C   -0.183889
    60  C   -0.024764
    61  C    0.037050
    62  C   -0.025057
    63  C   -0.010477
    64  C   -0.226615
    65  C    0.010953
    66  C   -0.009510
    67  H   -0.018054
    68  H    0.032248
    69  H   -0.008618
    70  H    0.029170
    71  H    0.049714
    72  H    0.052202
    73  H    0.039790
    74  H    0.026970
    75  H    0.049572
    76  H    0.046082
    77  H    0.073487
    78  H    0.046926
    79  H    0.047104
    80  H    0.020728
    81  H    0.067045
    82  H    0.052361
    83  H    0.052453
    84  H    0.028829
    85  H    0.038628
    86  H    0.037287
    87  H    0.037693
    88  H    0.046420
    89  H    0.049315
    90  H    0.040348
    91  H    0.030295
    92  H    0.043203
    93  H    0.021958
    94  H    0.037914
    95  H    0.058871
    96  H    0.059587
    97  H    0.027838
    98  H    0.081346
    99  H    0.057492
   100  H    0.078258
   101  H    0.049864
   102  H    0.056563
   103  H    0.072078
   104  H    0.032055
   105  H    0.054810
   106  H    0.045137
   107  H    0.039417
   108  H    0.036191
   109  H    0.027056
   110  H    0.031492
   111  H    0.035178
   112  H    0.012241
   113  H    0.035713
   114  H    0.023833
   115  H    0.034185
   116  H    0.027654
   117  H    0.026934
   118  H    0.020290
   119  H    0.028283
   120  H    0.033100
   121  H    0.027447
   122  H    0.033830
   123  H    0.013679
   124  H    0.021947
   125  H    0.031252
   126  H    0.019922
   127  H    0.024426
   128  H    0.011392
   129  H    0.012394
   130  H    0.022353
   131  H    0.008433
   132  H    0.018555
   133  H    0.010157
   134  H    0.018680
   135  H    0.030297
   136  H    0.031567
   137  H    0.026039
   138  H    0.023848
   139  H    0.027713
   140  H    0.041523
 Sum of Mulliken charges =  -0.00000

 Dipole moment (field-independent basis, Debye):
    X=             -5.3049    Y=              2.2098    Z=              1.1945  Tot=              5.8696
 Quadrupole moment (field-independent basis, Debye-Ang):
   XX=           -363.6621   YY=           -428.0926   ZZ=           -408.6978
   XY=             20.3476   XZ=             24.4984   YZ=              2.5879

 Normal termination of Gaussian 16 at Sat Apr 30 07:50:32 2022.
