 Gaussian 16, Revision A.03,
 Gaussian 16:  ES64L-G16RevA.03 25-Dec-2016

 --------------------
 #p ZINDO=(nstates=5)
 --------------------

 -----------------------------
 step_651_chromophore_12 ZINDO
 -----------------------------
 Symbolic Z-matrix:
 Charge =  0 Multiplicity = 1

                         Standard orientation:
 ---------------------------------------------------------------------
 Center     Atomic      Atomic             Coordinates (Angstroms)
 Number     Number       Type             X           Y           Z
 ---------------------------------------------------------------------
      1         12           0        4.484030    0.740841    0.207915
      2          6           0        3.602065   -2.724646   -0.334880
      3          6           0        1.017171    1.293139   -0.533926
      4          6           0        5.153454    3.992168    0.479020
      5          6           0        7.644882   -0.198263    0.443957
      6          7           0        2.455461   -0.624681   -0.212842
      7          6           0        2.402677   -1.997832   -0.318214
      8          6           0        0.957602   -2.462202   -0.441061
      9          6           0        0.137364   -1.124004   -0.591683
     10          6           0        1.267359   -0.112086   -0.475237
     11          6           0       -0.645401   -0.917733   -1.924571
     12          6           0        0.488243   -3.361361    0.751946
     13          6           0       -0.586634   -4.421912    0.342053
     14          6           0       -1.947273   -4.545428    1.151949
     15          8           0       -1.946464   -4.518164    2.422156
     16          8           0       -3.121452   -4.580286    0.382857
     17          7           0        3.250359    2.351686   -0.040378
     18          6           0        1.858196    2.408675   -0.349181
     19          6           0        1.490598    3.821895   -0.451698
     20          6           0        2.613543    4.609578   -0.161965
     21          6           0        3.719992    3.687814    0.153764
     22          6           0        0.112565    4.275181   -0.595276
     23          6           0        2.838390    6.130967   -0.140504
     24          8           0        3.907268    6.676318    0.027106
     25          6           0        1.661975    7.104973   -0.274377
     26          7           0        6.132030    1.767681    0.291352
     27          6           0        6.178659    3.088829    0.718683
     28          6           0        7.648739    3.540785    1.066952
     29          6           0        8.331547    2.110838    1.287144
     30          6           0        7.376498    1.185175    0.608759
     31          6           0        8.390392    4.335614   -0.013461
     32          6           0        8.583783    1.785414    2.800756
     33          6           0        9.910692    1.037748    3.115338
     34          7           0        5.461425   -1.020369    0.057819
     35          6           0        6.799194   -1.245237    0.121805
     36          6           0        7.136917   -2.629370   -0.018166
     37          6           0        5.927795   -3.238210   -0.181132
     38          6           0        4.923302   -2.227018   -0.138821
     39          6           0        8.461854   -3.188872   -0.046879
     40          6           0        5.293553   -4.499606   -0.587757
     41          8           0        5.715485   -5.572917   -0.944022
     42          6           0        3.842259   -4.221038   -0.463067
     43          6           0        3.225882   -4.729577   -1.692340
     44          8           0        3.738552   -4.597082   -2.816850
     45          8           0        2.121132   -5.506502   -1.380459
     46          6           0        1.410785   -6.008475   -2.638149
     47          6           0       -4.431916   -4.769278    1.128533
     48          6           0       -5.710159   -4.417831    0.259293
     49          6           0       -6.879784   -3.853627    0.678244
     50          6           0       -7.240343   -3.798726    2.193912
     51          6           0       -8.083250   -3.554081   -0.313306
     52          6           0       -8.710547   -2.081283   -0.311128
     53          6           0      -10.225748   -2.076732    0.102384
     54          6           0      -10.459436   -0.958157    1.220946
     55          6           0      -11.700015   -1.320254    2.073580
     56          6           0      -10.518947    0.493733    0.566878
     57          6           0       -9.370418    1.393676    1.104529
     58          6           0       -9.683686    2.866206    0.779147
     59          6           0       -8.302397    3.701035    0.543554
     60          6           0       -8.396110    4.808020    1.555080
     61          6           0       -8.159679    4.435751   -0.821507
     62          6           0       -7.229088    3.798442   -1.857557
     63          6           0       -5.906678    4.622368   -2.214972
     64          6           0       -4.619082    4.069345   -1.609781
     65          6           0       -3.522526    5.179445   -1.545491
     66          6           0       -4.096901    2.855012   -2.403407
     67          1           0       -0.033101    1.576842   -0.626905
     68          1           0        5.488448    5.026298    0.580127
     69          1           0        8.689107   -0.515800    0.422111
     70          1           0        0.785124   -3.068901   -1.330031
     71          1           0       -0.585079   -0.915096    0.197314
     72          1           0       -1.268399   -0.037186   -2.078476
     73          1           0       -1.138716   -1.776339   -2.378787
     74          1           0        0.166488   -0.786660   -2.640022
     75          1           0       -0.051608   -2.737725    1.465415
     76          1           0        1.370832   -3.862962    1.148393
     77          1           0        0.017021   -5.269689    0.664096
     78          1           0       -0.941952   -4.552275   -0.680009
     79          1           0       -0.246297    4.952022    0.179944
     80          1           0       -0.655837    3.519926   -0.431595
     81          1           0       -0.142906    4.680184   -1.574253
     82          1           0        1.712456    8.176876   -0.463180
     83          1           0        1.002726    7.013682    0.589144
     84          1           0        1.104182    6.718200   -1.126606
     85          1           0        7.683638    4.185159    1.945847
     86          1           0        9.254592    2.005982    0.715360
     87          1           0        9.266814    3.790003   -0.362123
     88          1           0        8.622635    5.284727    0.470534
     89          1           0        7.714969    4.457498   -0.860013
     90          1           0        7.848343    1.170273    3.319665
     91          1           0        8.607289    2.718246    3.365309
     92          1           0       10.564208    1.644897    3.741071
     93          1           0       10.435288    0.786560    2.193005
     94          1           0        9.775815    0.057267    3.572568
     95          1           0        8.691795   -3.249032   -1.110607
     96          1           0        8.567493   -4.203284    0.337472
     97          1           0        9.191489   -2.492760    0.367259
     98          1           0        3.550047   -4.833835    0.389878
     99          1           0        0.549462   -6.654939   -2.475210
    100          1           0        2.148041   -6.531152   -3.248310
    101          1           0        0.966856   -5.190223   -3.204111
    102          1           0       -4.635502   -3.958280    1.829272
    103          1           0       -4.550502   -5.685684    1.707344
    104          1           0       -5.505508   -4.628276   -0.790294
    105          1           0       -6.579847   -4.146452    2.988556
    106          1           0       -8.168786   -4.369947    2.203714
    107          1           0       -7.537813   -2.781853    2.451740
    108          1           0       -8.976797   -4.152404   -0.137442
    109          1           0       -7.790237   -3.806154   -1.332444
    110          1           0       -8.694460   -1.565623   -1.272010
    111          1           0       -8.169916   -1.422163    0.368872
    112          1           0      -10.514987   -2.929292    0.717492
    113          1           0      -10.871850   -2.058957   -0.774673
    114          1           0       -9.642341   -1.055696    1.937077
    115          1           0      -11.682490   -2.299801    2.551640
    116          1           0      -12.550852   -1.245895    1.397338
    117          1           0      -11.886874   -0.622062    2.889727
    118          1           0      -11.428469    1.008123    0.876493
    119          1           0      -10.426629    0.463731   -0.518651
    120          1           0       -8.469253    1.098539    0.568421
    121          1           0       -9.307641    1.272868    2.186033
    122          1           0      -10.343476    3.286266    1.538123
    123          1           0      -10.251975    2.786086   -0.148189
    124          1           0       -7.386296    3.178704    0.816967
    125          1           0       -9.311204    5.352042    1.321144
    126          1           0       -7.582443    5.532393    1.559249
    127          1           0       -8.326629    4.316542    2.526660
    128          1           0       -7.828250    5.462934   -0.668515
    129          1           0       -9.178548    4.518724   -1.200054
    130          1           0       -7.741581    3.463357   -2.759808
    131          1           0       -6.899676    2.869382   -1.394190
    132          1           0       -6.031353    5.680546   -1.982143
    133          1           0       -5.782369    4.596186   -3.297868
    134          1           0       -4.932981    3.748420   -0.616381
    135          1           0       -3.985305    6.110584   -1.872981
    136          1           0       -2.624178    4.831989   -2.056150
    137          1           0       -3.270089    5.348988   -0.498866
    138          1           0       -4.896716    2.120024   -2.492503
    139          1           0       -3.361526    2.302343   -1.817514
    140          1           0       -3.696818    3.177821   -3.364654
 ---------------------------------------------------------------------

 SCF Done:  E(RZINDO/S) =  -473.759391610     A.U. after   20 cycles

 Excitation energies and oscillator strengths:

 Excited State   1:      Singlet-A      1.2148 eV 1020.62 nm  f=0.5633  <S**2>=0.000
     175 ->178         0.19786
     176 ->177         0.66076
 This state for optimization and/or second-order correction.
 Total Energy, E(CIS/TDA) =  -473.714748929
 Copying the excited state density for this state as the 1-particle RhoCI density.

 Excited State   2:      Singlet-A      1.8997 eV  652.65 nm  f=0.0102  <S**2>=0.000
     175 ->177         0.50710
     176 ->178        -0.47120

 Excited State   3:      Singlet-A      2.9615 eV  418.65 nm  f=0.0071  <S**2>=0.000
     168 ->177         0.25234
     168 ->179        -0.39340
     168 ->181        -0.31603
     168 ->182        -0.11038
     168 ->186        -0.24394
     168 ->196         0.10802

 Excited State   4:      Singlet-A      2.9832 eV  415.60 nm  f=0.9011  <S**2>=0.000
     170 ->177         0.11983
     170 ->179         0.11164
     170 ->181        -0.10342
     175 ->177         0.35868
     176 ->178         0.41450
     176 ->179         0.30349

 Excited State   5:      Singlet-A      3.0303 eV  409.15 nm  f=0.0687  <S**2>=0.000
     170 ->177         0.29418
     170 ->178         0.13147
     170 ->179         0.30128
     170 ->181        -0.26406
     170 ->182        -0.17391
     170 ->186         0.18911
     170 ->187         0.16895
     170 ->201        -0.10803
     176 ->178        -0.11405
     176 ->179        -0.17058

 The electronic state is 1-A.
 Alpha  occ. eigenvalues --   -1.86984  -1.79663  -1.77647  -1.72819  -1.69691
 Alpha  occ. eigenvalues --   -1.65903  -1.64368  -1.60176  -1.60005  -1.58692
 Alpha  occ. eigenvalues --   -1.54867  -1.49612  -1.47984  -1.46729  -1.45743
 Alpha  occ. eigenvalues --   -1.43291  -1.41929  -1.40351  -1.39276  -1.38806
 Alpha  occ. eigenvalues --   -1.37141  -1.36385  -1.32198  -1.30569  -1.29575
 Alpha  occ. eigenvalues --   -1.29051  -1.24222  -1.21669  -1.19524  -1.18258
 Alpha  occ. eigenvalues --   -1.17274  -1.16235  -1.14687  -1.13842  -1.11979
 Alpha  occ. eigenvalues --   -1.11541  -1.10059  -1.09434  -1.04978  -1.04414
 Alpha  occ. eigenvalues --   -1.01711  -1.01401  -0.98689  -0.97827  -0.97171
 Alpha  occ. eigenvalues --   -0.95754  -0.94066  -0.93872  -0.92389  -0.91346
 Alpha  occ. eigenvalues --   -0.90817  -0.90501  -0.89119  -0.88778  -0.86842
 Alpha  occ. eigenvalues --   -0.86309  -0.84365  -0.83029  -0.82748  -0.80824
 Alpha  occ. eigenvalues --   -0.79984  -0.79309  -0.77430  -0.77242  -0.76519
 Alpha  occ. eigenvalues --   -0.76051  -0.74780  -0.74759  -0.74197  -0.73806
 Alpha  occ. eigenvalues --   -0.73060  -0.72918  -0.71747  -0.70959  -0.70663
 Alpha  occ. eigenvalues --   -0.70275  -0.69639  -0.68847  -0.68323  -0.67375
 Alpha  occ. eigenvalues --   -0.67057  -0.66667  -0.66535  -0.66254  -0.65697
 Alpha  occ. eigenvalues --   -0.65659  -0.65115  -0.64539  -0.64249  -0.63968
 Alpha  occ. eigenvalues --   -0.63438  -0.62896  -0.62564  -0.62437  -0.62249
 Alpha  occ. eigenvalues --   -0.62015  -0.61504  -0.61024  -0.60598  -0.60248
 Alpha  occ. eigenvalues --   -0.59966  -0.59581  -0.59101  -0.58338  -0.58260
 Alpha  occ. eigenvalues --   -0.57691  -0.57658  -0.57107  -0.56588  -0.56009
 Alpha  occ. eigenvalues --   -0.55887  -0.55396  -0.54970  -0.54594  -0.54402
 Alpha  occ. eigenvalues --   -0.53975  -0.53522  -0.52998  -0.52925  -0.52612
 Alpha  occ. eigenvalues --   -0.52389  -0.52101  -0.52033  -0.51613  -0.51285
 Alpha  occ. eigenvalues --   -0.51152  -0.51074  -0.50961  -0.50753  -0.50569
 Alpha  occ. eigenvalues --   -0.50341  -0.50019  -0.49676  -0.49597  -0.49431
 Alpha  occ. eigenvalues --   -0.49265  -0.48925  -0.48718  -0.48140  -0.47782
 Alpha  occ. eigenvalues --   -0.47649  -0.47456  -0.47167  -0.47118  -0.46596
 Alpha  occ. eigenvalues --   -0.46489  -0.46016  -0.45904  -0.45864  -0.45630
 Alpha  occ. eigenvalues --   -0.45516  -0.45372  -0.45170  -0.44906  -0.44595
 Alpha  occ. eigenvalues --   -0.44158  -0.43754  -0.43345  -0.42962  -0.42573
 Alpha  occ. eigenvalues --   -0.42086  -0.41795  -0.41336  -0.39253  -0.38969
 Alpha  occ. eigenvalues --   -0.37905  -0.37677  -0.35139  -0.34677  -0.34592
 Alpha  occ. eigenvalues --   -0.33624  -0.33184  -0.33024  -0.32281  -0.26865
 Alpha  occ. eigenvalues --   -0.21495
 Alpha virt. eigenvalues --   -0.08373  -0.02410  -0.00159   0.00476   0.01467
 Alpha virt. eigenvalues --    0.02319   0.02479   0.03087   0.03775   0.04778
 Alpha virt. eigenvalues --    0.05935   0.06627   0.06839   0.07215   0.07546

 Mulliken charges:
               1
     1  Mg   0.434238
     2  C   -0.039515
     3  C   -0.074238
     4  C   -0.067897
     5  C   -0.076385
     6  N   -0.283719
     7  C    0.108345
     8  C    0.011294
     9  C    0.009153
    10  C    0.147206
    11  C   -0.061928
    12  C   -0.012899
    13  C   -0.005877
    14  C    0.449129
    15  O   -0.528748
    16  O   -0.262330
    17  N   -0.341203
    18  C    0.098116
    19  C    0.030726
    20  C   -0.037765
    21  C    0.125573
    22  C   -0.042114
    23  C    0.333657
    24  O   -0.511306
    25  C   -0.033586
    26  N   -0.275895
    27  C    0.122886
    28  C   -0.003566
    29  C    0.010395
    30  C    0.123507
    31  C   -0.051112
    32  C   -0.027853
    33  C   -0.061763
    34  N   -0.306030
    35  C    0.101963
    36  C    0.047760
    37  C   -0.061657
    38  C    0.106362
    39  C   -0.033755
    40  C    0.348417
    41  O   -0.515108
    42  C    0.059371
    43  C    0.491423
    44  O   -0.523208
    45  O   -0.279215
    46  C    0.068138
    47  C    0.088479
    48  C   -0.076622
    49  C   -0.012954
    50  C   -0.048396
    51  C   -0.025246
    52  C   -0.038821
    53  C   -0.046114
    54  C   -0.020735
    55  C   -0.059240
    56  C   -0.039352
    57  C   -0.041292
    58  C   -0.039512
    59  C   -0.020728
    60  C   -0.056717
    61  C   -0.029930
    62  C   -0.043514
    63  C   -0.034292
    64  C   -0.011275
    65  C   -0.063629
    66  C   -0.053510
    67  H    0.021801
    68  H    0.050422
    69  H    0.020467
    70  H    0.033980
    71  H    0.035778
    72  H    0.030998
    73  H    0.021326
    74  H    0.010275
    75  H    0.038586
    76  H    0.036975
    77  H    0.047545
    78  H    0.043168
    79  H    0.025382
    80  H    0.014249
    81  H    0.033143
    82  H    0.046560
    83  H    0.030723
    84  H    0.017589
    85  H    0.031752
    86  H    0.035625
    87  H    0.024548
    88  H    0.026002
    89  H    0.028344
    90  H    0.027499
    91  H    0.017330
    92  H    0.021762
    93  H    0.014275
    94  H    0.019261
    95  H    0.037171
    96  H    0.038569
    97  H    0.022430
    98  H    0.056381
    99  H    0.033621
   100  H    0.055837
   101  H    0.037182
   102  H    0.048598
   103  H    0.064944
   104  H    0.029843
   105  H    0.036422
   106  H    0.024211
   107  H    0.022204
   108  H    0.030009
   109  H    0.019008
   110  H    0.020993
   111  H    0.023084
   112  H    0.015726
   113  H    0.030241
   114  H    0.021897
   115  H    0.020048
   116  H    0.014041
   117  H    0.012008
   118  H    0.020680
   119  H    0.026327
   120  H    0.022420
   121  H    0.023156
   122  H    0.030525
   123  H    0.017962
   124  H    0.029621
   125  H    0.021438
   126  H    0.007079
   127  H    0.009870
   128  H    0.019960
   129  H    0.015335
   130  H    0.020359
   131  H    0.012143
   132  H    0.018882
   133  H    0.010449
   134  H    0.020231
   135  H    0.027334
   136  H    0.027442
   137  H    0.011329
   138  H    0.013196
   139  H    0.011067
   140  H    0.027774
 Sum of Mulliken charges =   0.00000

 Dipole moment (field-independent basis, Debye):
    X=             -7.0106    Y=              2.5738    Z=              1.9911  Tot=              7.7290
 N-N= 4.456074051122D+03 E-N= 0.000000000000D+00  KE=-9.585521433991D+03
 Leave Link  601 at Sat Apr 30 08:06:37 2022, MaxMem=  6710886400 cpu:               2.3 elap:               0.1
 (Enter /sw/apps/gaussian-16.0/g16/l9999.exe)
 1\1\GINC-BP1-COMPUTE142\SP\RZINDO CIS\STO-3G\C55H74Mg1N4O6\OF15641\30-
 Apr-2022\0\\#p ZINDO=(nstates=5)\\step_651_chromophore_12 ZINDO\\0,1\M
 g,0,46.56,16.322,27.93\C,0,44.738,15.442,30.928\C,0,48.08,18.756,30.08
 4\C,0,48.187,17.397,25.23\C,0,44.639,14.215,26.257\N,0,46.536,16.912,3
 0.34\C,0,45.741,16.344,31.312\C,0,46.121,16.882,32.685\C,0,47.157,18.0
 29,32.373\C,0,47.228,17.91,30.858\C,0,46.758,19.478,32.789\C,0,46.668,
 15.782,33.656\C,0,46.345,16.068,35.16\C,0,47.499,16.045,36.251\O,0,48.

 Normal termination of Gaussian 16 at Sat Apr 30 08:06:37 2022.
