 Gaussian 16, Revision A.03,
 Gaussian 16:  ES64L-G16RevA.03 25-Dec-2016

 ------------------------------
 #p blyp/Def2SVP td=(nstates=5)
 ------------------------------

 --------------------------------------------------
 step_551_chromophore_13 TDDFT with blyp functional
 --------------------------------------------------
 Symbolic Z-matrix:
 Charge =  0 Multiplicity = 1

                         Standard orientation:
 ---------------------------------------------------------------------
 Center     Atomic      Atomic             Coordinates (Angstroms)
 Number     Number       Type             X           Y           Z
 ---------------------------------------------------------------------
      1         12           0       -6.203373    0.465639   -0.095562
      2          6           0       -3.937338   -2.228740    0.114813
      3          6           0       -3.709208    2.502027    1.051959
      4          6           0       -8.499398    2.783778    0.088800
      5          6           0       -8.560446   -1.958684   -0.892504
      6          7           0       -3.998010    0.276136    0.275845
      7          6           0       -3.320593   -0.963907    0.382864
      8          6           0       -1.790501   -0.755606    0.624480
      9          6           0       -1.874875    0.782812    1.204814
     10          6           0       -3.271061    1.220258    0.832316
     11          6           0       -1.484444    0.853326    2.668693
     12          6           0       -0.890127   -1.016470   -0.557627
     13          6           0        0.288863   -1.809487   -0.143927
     14          6           0        1.559447   -1.907517   -1.005074
     15          8           0        1.678957   -2.137998   -2.188730
     16          8           0        2.695631   -1.749323   -0.208438
     17          7           0       -6.073286    2.420834    0.393507
     18          6           0       -4.950285    3.117886    0.716174
     19          6           0       -5.343062    4.468680    0.857491
     20          6           0       -6.673382    4.591574    0.587170
     21          6           0       -7.169812    3.235805    0.377031
     22          6           0       -4.349408    5.595145    1.085883
     23          6           0       -7.543445    5.847915    0.610793
     24          8           0       -8.753172    5.753125    0.409998
     25          6           0       -7.037676    7.150369    1.017389
     26          7           0       -8.258125    0.390766   -0.122670
     27          6           0       -8.972060    1.537375   -0.221275
     28          6           0      -10.391535    1.325746   -0.664918
     29          6           0      -10.391722   -0.147139   -1.217564
     30          6           0       -8.979946   -0.568624   -0.826922
     31          6           0      -11.463879    1.413633    0.427239
     32          6           0      -10.455373   -0.193039   -2.768829
     33          6           0       -9.391654    0.514424   -3.608629
     34          7           0       -6.268063   -1.650048   -0.305183
     35          6           0       -7.264593   -2.481462   -0.640863
     36          6           0       -6.897012   -3.851228   -0.576727
     37          6           0       -5.566569   -3.813247   -0.315152
     38          6           0       -5.249016   -2.465041   -0.173443
     39          6           0       -7.684030   -4.995804   -0.954839
     40          6           0       -4.391297   -4.606789   -0.054658
     41          8           0       -4.230830   -5.826227    0.070026
     42          6           0       -3.265924   -3.576004    0.261736
     43          6           0       -2.775070   -3.962536    1.609949
     44          8           0       -2.959115   -3.245293    2.590926
     45          8           0       -1.782798   -4.893973    1.481540
     46          6           0       -1.051796   -5.175622    2.758542
     47          6           0        3.927507   -1.673674   -1.081968
     48          6           0        4.999193   -0.885272   -0.380432
     49          6           0        6.313682   -0.965170   -0.242526
     50          6           0        7.235759   -1.910122   -0.913115
     51          6           0        7.034397    0.088471    0.682683
     52          6           0        7.811806    1.227367   -0.044436
     53          6           0        9.325353    1.345746    0.415454
     54          6           0       10.171368    1.860241   -0.723240
     55          6           0        9.536598    3.011515   -1.471763
     56          6           0       10.546653    0.758559   -1.734877
     57          6           0       11.758678    1.085706   -2.683960
     58          6           0       13.095128    0.253642   -2.264837
     59          6           0       14.169269    1.206884   -1.795196
     60          6           0       15.190313    1.574983   -2.976774
     61          6           0       14.928814    0.602260   -0.667169
     62          6           0       14.432601    1.189312    0.692229
     63          6           0       14.340608    0.046625    1.712498
     64          6           0       13.037493    0.113117    2.534707
     65          6           0       13.194304   -0.163172    4.084880
     66          6           0       11.941806   -0.779742    1.916589
     67          1           0       -2.971576    3.230131    1.394323
     68          1           0       -9.321780    3.495844    0.190855
     69          1           0       -9.203573   -2.733868   -1.314725
     70          1           0       -1.618334   -1.421662    1.468982
     71          1           0       -1.339870    1.462779    0.542362
     72          1           0       -0.591070    1.472206    2.751804
     73          1           0       -1.141964   -0.081530    3.112066
     74          1           0       -2.247696    1.361986    3.256866
     75          1           0       -0.470040   -0.106040   -0.985497
     76          1           0       -1.506041   -1.552163   -1.279511
     77          1           0       -0.126340   -2.761734    0.182215
     78          1           0        0.527362   -1.404349    0.839807
     79          1           0       -3.305377    5.348789    1.278102
     80          1           0       -4.667593    6.005050    2.045242
     81          1           0       -4.222634    6.254162    0.227315
     82          1           0       -6.355626    6.895411    1.828330
     83          1           0       -7.807232    7.865891    1.306909
     84          1           0       -6.370111    7.633269    0.304438
     85          1           0      -10.608726    1.986646   -1.503839
     86          1           0      -11.190384   -0.758368   -0.796726
     87          1           0      -11.128600    1.103950    1.418123
     88          1           0      -12.377202    0.900410    0.127110
     89          1           0      -11.828435    2.435692    0.531689
     90          1           0      -11.422962    0.168772   -3.116342
     91          1           0      -10.257026   -1.231154   -3.037278
     92          1           0       -8.773350   -0.170095   -4.190037
     93          1           0       -8.770120    1.130347   -2.957911
     94          1           0       -9.823798    1.279910   -4.253494
     95          1           0       -8.752425   -4.838721   -1.101984
     96          1           0       -7.684373   -5.721986   -0.141745
     97          1           0       -7.126206   -5.534028   -1.721064
     98          1           0       -2.485767   -3.708647   -0.486348
     99          1           0       -1.666140   -5.028233    3.646873
    100          1           0       -0.171558   -4.533626    2.739677
    101          1           0       -0.653821   -6.188069    2.819143
    102          1           0        3.838774   -1.054215   -1.974972
    103          1           0        4.317108   -2.635589   -1.415232
    104          1           0        4.579247   -0.137399    0.292489
    105          1           0        6.615470   -2.403809   -1.661746
    106          1           0        7.735023   -2.584023   -0.217832
    107          1           0        7.977883   -1.366180   -1.496744
    108          1           0        7.851694   -0.461466    1.148413
    109          1           0        6.450410    0.525031    1.493473
    110          1           0        7.445082    2.226759    0.189460
    111          1           0        7.579324    1.142777   -1.105731
    112          1           0        9.663008    0.376983    0.783560
    113          1           0        9.310531    1.910556    1.348082
    114          1           0       11.107455    2.157716   -0.251435
    115          1           0        8.709046    3.391486   -0.873697
    116          1           0        8.999619    2.587396   -2.320222
    117          1           0       10.207502    3.858473   -1.620917
    118          1           0        9.676884    0.521174   -2.347891
    119          1           0       10.729682   -0.226315   -1.306594
    120          1           0       11.897852    2.162424   -2.789600
    121          1           0       11.479111    0.722359   -3.673525
    122          1           0       13.479890   -0.208992   -3.173727
    123          1           0       12.938564   -0.523717   -1.516925
    124          1           0       13.812787    2.203973   -1.537429
    125          1           0       16.094972    0.967728   -2.973480
    126          1           0       15.586728    2.575854   -3.146724
    127          1           0       14.692958    1.499370   -3.943756
    128          1           0       15.976114    0.895185   -0.751671
    129          1           0       15.007156   -0.484576   -0.663200
    130          1           0       13.413194    1.572657    0.654479
    131          1           0       15.063070    2.017560    1.016583
    132          1           0       15.217175    0.128293    2.355247
    133          1           0       14.421082   -0.956752    1.293370
    134          1           0       12.599362    1.107178    2.448506
    135          1           0       13.001153    0.768769    4.615502
    136          1           0       14.242781   -0.369798    4.300222
    137          1           0       12.557270   -1.010435    4.338197
    138          1           0       12.121681   -1.794099    2.273923
    139          1           0       12.013430   -0.667894    0.834597
    140          1           0       11.025184   -0.251875    2.181309
 ---------------------------------------------------------------------

 SCF Done:  E(RB-LYP) =  -3007.31772865     A.U. after   21 cycles

 Excitation energies and oscillator strengths:

 Excited State   1:      Singlet-A      1.7921 eV  691.82 nm  f=0.2865  <S**2>=0.000
     244 -> 247       -0.10460
     245 -> 248        0.18908
     246 -> 247        0.68307
     246 <- 247       -0.15007
 This state for optimization and/or second-order correction.
 Total Energy, E(TD-HF/TD-DFT) =  -3007.25186844
 Copying the excited state density for this state as the 1-particle RhoCI density.

 Excited State   2:      Singlet-A      1.8888 eV  656.40 nm  f=0.0085  <S**2>=0.000
     244 -> 247        0.69137
     245 -> 247       -0.10273

 Excited State   3:      Singlet-A      2.0285 eV  611.22 nm  f=0.0624  <S**2>=0.000
     243 -> 247       -0.41490
     245 -> 247        0.51876
     246 -> 248       -0.20267

 Excited State   4:      Singlet-A      2.0575 eV  602.58 nm  f=0.0292  <S**2>=0.000
     243 -> 247        0.56726
     245 -> 247        0.37831
     246 -> 248       -0.16346

 Excited State   5:      Singlet-A      2.4239 eV  511.52 nm  f=0.0001  <S**2>=0.000
     242 -> 247        0.70689

 The electronic state is 1-A.
 Alpha  occ. eigenvalues --  -46.26644 -18.82738 -18.82294 -18.77338 -18.76974
 Alpha  occ. eigenvalues --  -18.75754 -18.74922 -14.03057 -14.03053 -14.00619
 Alpha  occ. eigenvalues --  -14.00383 -10.04565 -10.04223  -9.99634  -9.99475
 Alpha  occ. eigenvalues --   -9.98001  -9.97997  -9.96721  -9.96719  -9.95722
 Alpha  occ. eigenvalues --   -9.95674  -9.95489  -9.95026  -9.94659  -9.94019
 Alpha  occ. eigenvalues --   -9.93988  -9.93661  -9.93635  -9.93613  -9.93551
 Alpha  occ. eigenvalues --   -9.93336  -9.93158  -9.93077  -9.92902  -9.92851
 Alpha  occ. eigenvalues --   -9.92695  -9.92559  -9.92523  -9.92480  -9.92345
 Alpha  occ. eigenvalues --   -9.92186  -9.92104  -9.92093  -9.92019  -9.91986
 Alpha  occ. eigenvalues --   -9.91805  -9.91758  -9.91737  -9.91707  -9.91650
 Alpha  occ. eigenvalues --   -9.91523  -9.91507  -9.91481  -9.91354  -9.91346
 Alpha  occ. eigenvalues --   -9.91292  -9.91212  -9.91056  -9.91020  -9.90893
 Alpha  occ. eigenvalues --   -9.90806  -9.90783  -9.90466  -9.90436  -9.90400
 Alpha  occ. eigenvalues --   -9.90398  -2.91400  -1.71828  -1.71276  -1.71115
 Alpha  occ. eigenvalues --   -0.97760  -0.97607  -0.91013  -0.90810  -0.89833
 Alpha  occ. eigenvalues --   -0.89495  -0.88427  -0.86384  -0.85854  -0.85230
 Alpha  occ. eigenvalues --   -0.76198  -0.73998  -0.73665  -0.73043  -0.72570
 Alpha  occ. eigenvalues --   -0.72283  -0.72097  -0.71454  -0.71000  -0.70595
 Alpha  occ. eigenvalues --   -0.70460  -0.69206  -0.67767  -0.67624  -0.67146
 Alpha  occ. eigenvalues --   -0.66372  -0.66101  -0.65428  -0.65044  -0.64812
 Alpha  occ. eigenvalues --   -0.63696  -0.62981  -0.62373  -0.61922  -0.60926
 Alpha  occ. eigenvalues --   -0.60344  -0.60168  -0.59919  -0.59348  -0.59003
 Alpha  occ. eigenvalues --   -0.58416  -0.57819  -0.57058  -0.56003  -0.55090
 Alpha  occ. eigenvalues --   -0.54302  -0.53969  -0.52761  -0.52619  -0.51628
 Alpha  occ. eigenvalues --   -0.51401  -0.50761  -0.50532  -0.50127  -0.50080
 Alpha  occ. eigenvalues --   -0.49776  -0.48332  -0.48140  -0.48138  -0.46747
 Alpha  occ. eigenvalues --   -0.46472  -0.46173  -0.45693  -0.45231  -0.45044
 Alpha  occ. eigenvalues --   -0.44495  -0.43666  -0.43292  -0.42799  -0.42638
 Alpha  occ. eigenvalues --   -0.42331  -0.42112  -0.42041  -0.41383  -0.41082
 Alpha  occ. eigenvalues --   -0.41018  -0.40753  -0.40659  -0.40495  -0.40436
 Alpha  occ. eigenvalues --   -0.40242  -0.40027  -0.39631  -0.39433  -0.39262
 Alpha  occ. eigenvalues --   -0.39072  -0.39022  -0.38889  -0.38517  -0.38375
 Alpha  occ. eigenvalues --   -0.38100  -0.37790  -0.37711  -0.37331  -0.37268
 Alpha  occ. eigenvalues --   -0.37184  -0.36978  -0.36894  -0.36689  -0.36562
 Alpha  occ. eigenvalues --   -0.36383  -0.36279  -0.36058  -0.35877  -0.35831
 Alpha  occ. eigenvalues --   -0.35494  -0.35255  -0.34844  -0.34676  -0.34554
 Alpha  occ. eigenvalues --   -0.34335  -0.34285  -0.34146  -0.33925  -0.33772
 Alpha  occ. eigenvalues --   -0.33740  -0.33399  -0.33258  -0.33148  -0.32937
 Alpha  occ. eigenvalues --   -0.32840  -0.32706  -0.32452  -0.32226  -0.32129
 Alpha  occ. eigenvalues --   -0.32027  -0.31881  -0.31676  -0.31547  -0.31336
 Alpha  occ. eigenvalues --   -0.31280  -0.31073  -0.30961  -0.30773  -0.30700
 Alpha  occ. eigenvalues --   -0.30609  -0.30458  -0.30418  -0.30198  -0.30193
 Alpha  occ. eigenvalues --   -0.29919  -0.29541  -0.29298  -0.29250  -0.29019
 Alpha  occ. eigenvalues --   -0.28603  -0.28519  -0.28195  -0.27973  -0.27276
 Alpha  occ. eigenvalues --   -0.27111  -0.27065  -0.26779  -0.26501  -0.26369
 Alpha  occ. eigenvalues --   -0.26237  -0.25945  -0.25751  -0.25732  -0.25354
 Alpha  occ. eigenvalues --   -0.25336  -0.24819  -0.23994  -0.23876  -0.23445
 Alpha  occ. eigenvalues --   -0.23115  -0.22461  -0.22104  -0.22068  -0.21270
 Alpha  occ. eigenvalues --   -0.20659  -0.20276  -0.18762  -0.18239  -0.17110
 Alpha  occ. eigenvalues --   -0.15582
 Alpha virt. eigenvalues --   -0.11369  -0.06588  -0.06206  -0.04550  -0.03656
 Alpha virt. eigenvalues --   -0.03441  -0.01820  -0.01234  -0.00907   0.00577
 Alpha virt. eigenvalues --    0.01076   0.01784   0.01977   0.02682   0.02956

 Mulliken charges:
               1
     1  Mg   0.687435
     2  C    0.005743
     3  C   -0.068632
     4  C   -0.046422
     5  C   -0.086877
     6  N   -0.195257
     7  C   -0.118850
     8  C   -0.013377
     9  C    0.007811
    10  C    0.030231
    11  C    0.157823
    12  C    0.217888
    13  C    0.051688
    14  C    0.127073
    15  O   -0.170912
    16  O   -0.287867
    17  N   -0.313066
    18  C    0.113833
    19  C   -0.134998
    20  C    0.065530
    21  C    0.088263
    22  C    0.147488
    23  C   -0.084502
    24  O   -0.173545
    25  C    0.179639
    26  N   -0.253361
    27  C    0.029269
    28  C    0.060607
    29  C    0.040777
    30  C    0.040661
    31  C    0.130519
    32  C    0.071585
    33  C    0.053014
    34  N   -0.165673
    35  C    0.066106
    36  C   -0.188159
    37  C    0.135829
    38  C    0.059426
    39  C    0.196396
    40  C   -0.095636
    41  O   -0.139911
    42  C    0.032362
    43  C    0.164934
    44  O   -0.197621
    45  O   -0.265257
    46  C    0.205533
    47  C    0.339743
    48  C   -0.100313
    49  C   -0.177533
    50  C    0.165333
    51  C    0.159875
    52  C    0.008191
    53  C    0.060806
    54  C   -0.045130
    55  C    0.168247
    56  C    0.063020
    57  C    0.080086
    58  C    0.133616
    59  C   -0.062637
    60  C    0.065450
    61  C    0.122823
    62  C    0.059458
    63  C    0.111882
    64  C   -0.161754
    65  C    0.119903
    66  C    0.098800
    67  H   -0.075548
    68  H   -0.043050
    69  H   -0.061310
    70  H   -0.017406
    71  H   -0.024318
    72  H   -0.022896
    73  H    0.005757
    74  H   -0.005214
    75  H   -0.024354
    76  H   -0.013844
    77  H    0.003701
    78  H   -0.017441
    79  H   -0.029498
    80  H    0.004378
    81  H    0.015615
    82  H   -0.020040
    83  H    0.000115
    84  H   -0.001609
    85  H   -0.029975
    86  H   -0.023650
    87  H    0.003764
    88  H   -0.014912
    89  H   -0.011490
    90  H   -0.017535
    91  H   -0.025902
    92  H    0.003352
    93  H   -0.006596
    94  H   -0.014249
    95  H   -0.016017
    96  H   -0.010621
    97  H    0.010122
    98  H    0.013453
    99  H    0.032279
   100  H    0.013392
   101  H    0.018393
   102  H    0.014981
   103  H   -0.000834
   104  H   -0.046446
   105  H   -0.028551
   106  H    0.009709
   107  H   -0.007620
   108  H   -0.048373
   109  H   -0.030125
   110  H   -0.029228
   111  H   -0.021622
   112  H   -0.019821
   113  H   -0.034325
   114  H   -0.041201
   115  H   -0.039101
   116  H   -0.023404
   117  H   -0.006942
   118  H   -0.037844
   119  H   -0.041124
   120  H   -0.022809
   121  H   -0.042886
   122  H   -0.035658
   123  H   -0.020579
   124  H   -0.029499
   125  H   -0.018130
   126  H   -0.028301
   127  H   -0.034702
   128  H   -0.051393
   129  H   -0.032980
   130  H   -0.016472
   131  H   -0.021334
   132  H   -0.046218
   133  H   -0.036189
   134  H   -0.036945
   135  H   -0.014330
   136  H   -0.024323
   137  H   -0.013775
   138  H   -0.001668
   139  H   -0.014759
   140  H    0.000578
 Sum of Mulliken charges =  -0.00000

 Dipole moment (field-independent basis, Debye):
    X=              2.3192    Y=              2.9287    Z=              0.1927  Tot=              3.7408
 Quadrupole moment (field-independent basis, Debye-Ang):
   XX=           -383.8802   YY=           -416.9947   ZZ=           -407.7755
   XY=              9.4763   XZ=             17.1890   YZ=             -1.8750

 Normal termination of Gaussian 16 at Sat Apr 30 03:29:18 2022.
