 Gaussian 16, Revision A.03,
 Gaussian 16:  ES64L-G16RevA.03 25-Dec-2016

 -----------------------------------
 #p cam-b3lyp/Def2SVP td=(nstates=5)
 -----------------------------------

 -------------------------------------------------------
 step_551_chromophore_13 TDDFT with cam-b3lyp functional
 -------------------------------------------------------
 Symbolic Z-matrix:
 Charge =  0 Multiplicity = 1

                         Standard orientation:
 ---------------------------------------------------------------------
 Center     Atomic      Atomic             Coordinates (Angstroms)
 Number     Number       Type             X           Y           Z
 ---------------------------------------------------------------------
      1         12           0       -6.203373    0.465639   -0.095562
      2          6           0       -3.937338   -2.228740    0.114813
      3          6           0       -3.709208    2.502027    1.051959
      4          6           0       -8.499398    2.783778    0.088800
      5          6           0       -8.560446   -1.958684   -0.892504
      6          7           0       -3.998010    0.276136    0.275845
      7          6           0       -3.320593   -0.963907    0.382864
      8          6           0       -1.790501   -0.755606    0.624480
      9          6           0       -1.874875    0.782812    1.204814
     10          6           0       -3.271061    1.220258    0.832316
     11          6           0       -1.484444    0.853326    2.668693
     12          6           0       -0.890127   -1.016470   -0.557627
     13          6           0        0.288863   -1.809487   -0.143927
     14          6           0        1.559447   -1.907517   -1.005074
     15          8           0        1.678957   -2.137998   -2.188730
     16          8           0        2.695631   -1.749323   -0.208438
     17          7           0       -6.073286    2.420834    0.393507
     18          6           0       -4.950285    3.117886    0.716174
     19          6           0       -5.343062    4.468680    0.857491
     20          6           0       -6.673382    4.591574    0.587170
     21          6           0       -7.169812    3.235805    0.377031
     22          6           0       -4.349408    5.595145    1.085883
     23          6           0       -7.543445    5.847915    0.610793
     24          8           0       -8.753172    5.753125    0.409998
     25          6           0       -7.037676    7.150369    1.017389
     26          7           0       -8.258125    0.390766   -0.122670
     27          6           0       -8.972060    1.537375   -0.221275
     28          6           0      -10.391535    1.325746   -0.664918
     29          6           0      -10.391722   -0.147139   -1.217564
     30          6           0       -8.979946   -0.568624   -0.826922
     31          6           0      -11.463879    1.413633    0.427239
     32          6           0      -10.455373   -0.193039   -2.768829
     33          6           0       -9.391654    0.514424   -3.608629
     34          7           0       -6.268063   -1.650048   -0.305183
     35          6           0       -7.264593   -2.481462   -0.640863
     36          6           0       -6.897012   -3.851228   -0.576727
     37          6           0       -5.566569   -3.813247   -0.315152
     38          6           0       -5.249016   -2.465041   -0.173443
     39          6           0       -7.684030   -4.995804   -0.954839
     40          6           0       -4.391297   -4.606789   -0.054658
     41          8           0       -4.230830   -5.826227    0.070026
     42          6           0       -3.265924   -3.576004    0.261736
     43          6           0       -2.775070   -3.962536    1.609949
     44          8           0       -2.959115   -3.245293    2.590926
     45          8           0       -1.782798   -4.893973    1.481540
     46          6           0       -1.051796   -5.175622    2.758542
     47          6           0        3.927507   -1.673674   -1.081968
     48          6           0        4.999193   -0.885272   -0.380432
     49          6           0        6.313682   -0.965170   -0.242526
     50          6           0        7.235759   -1.910122   -0.913115
     51          6           0        7.034397    0.088471    0.682683
     52          6           0        7.811806    1.227367   -0.044436
     53          6           0        9.325353    1.345746    0.415454
     54          6           0       10.171368    1.860241   -0.723240
     55          6           0        9.536598    3.011515   -1.471763
     56          6           0       10.546653    0.758559   -1.734877
     57          6           0       11.758678    1.085706   -2.683960
     58          6           0       13.095128    0.253642   -2.264837
     59          6           0       14.169269    1.206884   -1.795196
     60          6           0       15.190313    1.574983   -2.976774
     61          6           0       14.928814    0.602260   -0.667169
     62          6           0       14.432601    1.189312    0.692229
     63          6           0       14.340608    0.046625    1.712498
     64          6           0       13.037493    0.113117    2.534707
     65          6           0       13.194304   -0.163172    4.084880
     66          6           0       11.941806   -0.779742    1.916589
     67          1           0       -2.971576    3.230131    1.394323
     68          1           0       -9.321780    3.495844    0.190855
     69          1           0       -9.203573   -2.733868   -1.314725
     70          1           0       -1.618334   -1.421662    1.468982
     71          1           0       -1.339870    1.462779    0.542362
     72          1           0       -0.591070    1.472206    2.751804
     73          1           0       -1.141964   -0.081530    3.112066
     74          1           0       -2.247696    1.361986    3.256866
     75          1           0       -0.470040   -0.106040   -0.985497
     76          1           0       -1.506041   -1.552163   -1.279511
     77          1           0       -0.126340   -2.761734    0.182215
     78          1           0        0.527362   -1.404349    0.839807
     79          1           0       -3.305377    5.348789    1.278102
     80          1           0       -4.667593    6.005050    2.045242
     81          1           0       -4.222634    6.254162    0.227315
     82          1           0       -6.355626    6.895411    1.828330
     83          1           0       -7.807232    7.865891    1.306909
     84          1           0       -6.370111    7.633269    0.304438
     85          1           0      -10.608726    1.986646   -1.503839
     86          1           0      -11.190384   -0.758368   -0.796726
     87          1           0      -11.128600    1.103950    1.418123
     88          1           0      -12.377202    0.900410    0.127110
     89          1           0      -11.828435    2.435692    0.531689
     90          1           0      -11.422962    0.168772   -3.116342
     91          1           0      -10.257026   -1.231154   -3.037278
     92          1           0       -8.773350   -0.170095   -4.190037
     93          1           0       -8.770120    1.130347   -2.957911
     94          1           0       -9.823798    1.279910   -4.253494
     95          1           0       -8.752425   -4.838721   -1.101984
     96          1           0       -7.684373   -5.721986   -0.141745
     97          1           0       -7.126206   -5.534028   -1.721064
     98          1           0       -2.485767   -3.708647   -0.486348
     99          1           0       -1.666140   -5.028233    3.646873
    100          1           0       -0.171558   -4.533626    2.739677
    101          1           0       -0.653821   -6.188069    2.819143
    102          1           0        3.838774   -1.054215   -1.974972
    103          1           0        4.317108   -2.635589   -1.415232
    104          1           0        4.579247   -0.137399    0.292489
    105          1           0        6.615470   -2.403809   -1.661746
    106          1           0        7.735023   -2.584023   -0.217832
    107          1           0        7.977883   -1.366180   -1.496744
    108          1           0        7.851694   -0.461466    1.148413
    109          1           0        6.450410    0.525031    1.493473
    110          1           0        7.445082    2.226759    0.189460
    111          1           0        7.579324    1.142777   -1.105731
    112          1           0        9.663008    0.376983    0.783560
    113          1           0        9.310531    1.910556    1.348082
    114          1           0       11.107455    2.157716   -0.251435
    115          1           0        8.709046    3.391486   -0.873697
    116          1           0        8.999619    2.587396   -2.320222
    117          1           0       10.207502    3.858473   -1.620917
    118          1           0        9.676884    0.521174   -2.347891
    119          1           0       10.729682   -0.226315   -1.306594
    120          1           0       11.897852    2.162424   -2.789600
    121          1           0       11.479111    0.722359   -3.673525
    122          1           0       13.479890   -0.208992   -3.173727
    123          1           0       12.938564   -0.523717   -1.516925
    124          1           0       13.812787    2.203973   -1.537429
    125          1           0       16.094972    0.967728   -2.973480
    126          1           0       15.586728    2.575854   -3.146724
    127          1           0       14.692958    1.499370   -3.943756
    128          1           0       15.976114    0.895185   -0.751671
    129          1           0       15.007156   -0.484576   -0.663200
    130          1           0       13.413194    1.572657    0.654479
    131          1           0       15.063070    2.017560    1.016583
    132          1           0       15.217175    0.128293    2.355247
    133          1           0       14.421082   -0.956752    1.293370
    134          1           0       12.599362    1.107178    2.448506
    135          1           0       13.001153    0.768769    4.615502
    136          1           0       14.242781   -0.369798    4.300222
    137          1           0       12.557270   -1.010435    4.338197
    138          1           0       12.121681   -1.794099    2.273923
    139          1           0       12.013430   -0.667894    0.834597
    140          1           0       11.025184   -0.251875    2.181309
 ---------------------------------------------------------------------

 SCF Done:  E(RCAM-B3LYP) =  -3007.12677511     A.U. after   16 cycles

 Excitation energies and oscillator strengths:

 Excited State   1:      Singlet-A      1.6820 eV  737.11 nm  f=0.3722  <S**2>=0.000
     245 -> 248        0.17631
     246 -> 247        0.68725
     245 <- 248        0.10855
 This state for optimization and/or second-order correction.
 Total Energy, E(TD-HF/TD-DFT) =  -3007.06496126
 Copying the excited state density for this state as the 1-particle RhoCI density.

 Excited State   2:      Singlet-A      2.2298 eV  556.03 nm  f=0.1140  <S**2>=0.000
     245 -> 247        0.63992
     246 -> 248       -0.29196

 Excited State   3:      Singlet-A      3.5202 eV  352.20 nm  f=0.2268  <S**2>=0.000
     240 -> 247       -0.21545
     240 -> 249        0.11334
     242 -> 247        0.13017
     243 -> 247       -0.29449
     244 -> 247        0.34907
     245 -> 247        0.16421
     246 -> 248        0.40280

 Excited State   4:      Singlet-A      3.5368 eV  350.55 nm  f=0.0111  <S**2>=0.000
     240 -> 247        0.44212
     240 -> 249       -0.31696
     241 -> 247       -0.13326
     242 -> 247        0.10541
     243 -> 247       -0.21917
     244 -> 247        0.26625

 Excited State   5:      Singlet-A      3.5676 eV  347.53 nm  f=0.3939  <S**2>=0.000
     240 -> 247        0.16787
     240 -> 249       -0.12958
     241 -> 247       -0.16931
     242 -> 247        0.10812
     243 -> 247        0.24128
     244 -> 247       -0.28567
     245 -> 247        0.20779
     246 -> 248        0.45973

 The electronic state is 1-A.
 Alpha  occ. eigenvalues --  -46.88140 -19.25721 -19.25202 -19.20393 -19.20111
 Alpha  occ. eigenvalues --  -19.19076 -19.18170 -14.41963 -14.41894 -14.39064
 Alpha  occ. eigenvalues --  -14.38782 -10.39926 -10.39733 -10.35082 -10.34644
 Alpha  occ. eigenvalues --  -10.32102 -10.32077 -10.31334 -10.31182 -10.30095
 Alpha  occ. eigenvalues --  -10.30072 -10.29828 -10.29293 -10.28805 -10.28152
 Alpha  occ. eigenvalues --  -10.28029 -10.27986 -10.27756 -10.27648 -10.27494
 Alpha  occ. eigenvalues --  -10.27340 -10.27170 -10.27168 -10.27083 -10.27019
 Alpha  occ. eigenvalues --  -10.26994 -10.26679 -10.26650 -10.26442 -10.26351
 Alpha  occ. eigenvalues --  -10.26126 -10.25862 -10.25778 -10.25760 -10.25690
 Alpha  occ. eigenvalues --  -10.25655 -10.25509 -10.25483 -10.25447 -10.25443
 Alpha  occ. eigenvalues --  -10.25280 -10.25230 -10.25198 -10.25191 -10.25113
 Alpha  occ. eigenvalues --  -10.25046 -10.25043 -10.24770 -10.24673 -10.24539
 Alpha  occ. eigenvalues --  -10.24469 -10.24434 -10.24375 -10.24120 -10.24077
 Alpha  occ. eigenvalues --  -10.24027  -3.16807  -1.91710  -1.91261  -1.91120
 Alpha  occ. eigenvalues --   -1.16334  -1.16117  -1.09443  -1.09293  -1.07790
 Alpha  occ. eigenvalues --   -1.07318  -1.06181  -1.04083  -1.03507  -1.02800
 Alpha  occ. eigenvalues --   -0.93444  -0.90895  -0.90560  -0.89873  -0.89242
 Alpha  occ. eigenvalues --   -0.89037  -0.88787  -0.88162  -0.87621  -0.87263
 Alpha  occ. eigenvalues --   -0.86966  -0.85598  -0.83995  -0.83814  -0.83307
 Alpha  occ. eigenvalues --   -0.82408  -0.82320  -0.81414  -0.80884  -0.80645
 Alpha  occ. eigenvalues --   -0.79470  -0.78716  -0.78037  -0.77410  -0.76362
 Alpha  occ. eigenvalues --   -0.75728  -0.75462  -0.75258  -0.74621  -0.74261
 Alpha  occ. eigenvalues --   -0.73538  -0.72882  -0.71994  -0.70847  -0.69715
 Alpha  occ. eigenvalues --   -0.68967  -0.68589  -0.67227  -0.67081  -0.65887
 Alpha  occ. eigenvalues --   -0.65672  -0.64820  -0.64551  -0.64163  -0.64046
 Alpha  occ. eigenvalues --   -0.63547  -0.62184  -0.61972  -0.61840  -0.60397
 Alpha  occ. eigenvalues --   -0.60168  -0.59729  -0.59329  -0.58767  -0.58573
 Alpha  occ. eigenvalues --   -0.57911  -0.56960  -0.56501  -0.55964  -0.55787
 Alpha  occ. eigenvalues --   -0.55361  -0.55241  -0.54941  -0.54577  -0.54429
 Alpha  occ. eigenvalues --   -0.54064  -0.53468  -0.53396  -0.53301  -0.53232
 Alpha  occ. eigenvalues --   -0.52864  -0.52633  -0.52420  -0.52247  -0.51957
 Alpha  occ. eigenvalues --   -0.51871  -0.51703  -0.51327  -0.50867  -0.50673
 Alpha  occ. eigenvalues --   -0.50604  -0.50401  -0.50216  -0.49855  -0.49646
 Alpha  occ. eigenvalues --   -0.49517  -0.49250  -0.49081  -0.48949  -0.48764
 Alpha  occ. eigenvalues --   -0.48698  -0.48394  -0.48319  -0.48109  -0.47832
 Alpha  occ. eigenvalues --   -0.47507  -0.47173  -0.47025  -0.46749  -0.46702
 Alpha  occ. eigenvalues --   -0.46236  -0.46063  -0.46003  -0.45804  -0.45676
 Alpha  occ. eigenvalues --   -0.45387  -0.45252  -0.45149  -0.44975  -0.44634
 Alpha  occ. eigenvalues --   -0.44563  -0.44413  -0.44234  -0.44013  -0.43693
 Alpha  occ. eigenvalues --   -0.43671  -0.43474  -0.43375  -0.43218  -0.43002
 Alpha  occ. eigenvalues --   -0.42690  -0.42562  -0.42400  -0.42333  -0.42125
 Alpha  occ. eigenvalues --   -0.42022  -0.41953  -0.41611  -0.41588  -0.41500
 Alpha  occ. eigenvalues --   -0.41142  -0.41008  -0.40706  -0.40354  -0.40071
 Alpha  occ. eigenvalues --   -0.39739  -0.39632  -0.39246  -0.38875  -0.38354
 Alpha  occ. eigenvalues --   -0.38180  -0.37943  -0.37722  -0.37500  -0.37417
 Alpha  occ. eigenvalues --   -0.37157  -0.37133  -0.36895  -0.36427  -0.36295
 Alpha  occ. eigenvalues --   -0.36015  -0.35424  -0.34879  -0.34595  -0.34403
 Alpha  occ. eigenvalues --   -0.34301  -0.33498  -0.33039  -0.31482  -0.30901
 Alpha  occ. eigenvalues --   -0.30719  -0.30638  -0.30027  -0.29996  -0.23856
 Alpha  occ. eigenvalues --   -0.20867
 Alpha virt. eigenvalues --   -0.08470  -0.01356   0.00369   0.02394   0.03250
 Alpha virt. eigenvalues --    0.04016   0.04369   0.05881   0.06604   0.06694
 Alpha virt. eigenvalues --    0.08167   0.08194   0.08854   0.08926   0.09294

 Mulliken charges:
               1
     1  Mg   0.823826
     2  C   -0.018736
     3  C   -0.077228
     4  C   -0.058296
     5  C   -0.082777
     6  N   -0.264582
     7  C   -0.067336
     8  C   -0.064613
     9  C   -0.041939
    10  C    0.047620
    11  C    0.093970
    12  C    0.159032
    13  C   -0.014107
    14  C    0.208290
    15  O   -0.211288
    16  O   -0.352318
    17  N   -0.403687
    18  C    0.125515
    19  C   -0.142552
    20  C   -0.006302
    21  C    0.114007
    22  C    0.084752
    23  C   -0.000629
    24  O   -0.214603
    25  C    0.093343
    26  N   -0.319787
    27  C    0.039514
    28  C   -0.000044
    29  C   -0.018188
    30  C    0.049939
    31  C    0.071981
    32  C    0.021468
    33  C   -0.008636
    34  N   -0.255230
    35  C    0.067241
    36  C   -0.180370
    37  C    0.057217
    38  C    0.090212
    39  C    0.133844
    40  C    0.009400
    41  O   -0.177257
    42  C   -0.042426
    43  C    0.243853
    44  O   -0.234151
    45  O   -0.327893
    46  C    0.169165
    47  C    0.306318
    48  C   -0.120940
    49  C   -0.200792
    50  C    0.106811
    51  C    0.103825
    52  C   -0.047600
    53  C    0.019250
    54  C   -0.098169
    55  C    0.095736
    56  C    0.013623
    57  C    0.027119
    58  C    0.079374
    59  C   -0.120636
    60  C    0.010787
    61  C    0.061809
    62  C    0.013275
    63  C    0.053665
    64  C   -0.214507
    65  C    0.060515
    66  C    0.048504
    67  H   -0.041269
    68  H   -0.002757
    69  H   -0.028659
    70  H    0.016436
    71  H    0.010526
    72  H    0.002626
    73  H    0.030258
    74  H    0.021888
    75  H    0.006804
    76  H    0.017713
    77  H    0.030633
    78  H    0.017902
    79  H    0.001063
    80  H    0.030785
    81  H    0.041450
    82  H    0.005327
    83  H    0.035687
    84  H    0.028104
    85  H    0.006586
    86  H    0.013178
    87  H    0.029268
    88  H    0.009725
    89  H    0.013517
    90  H    0.011001
    91  H    0.002572
    92  H    0.027793
    93  H    0.012843
    94  H    0.011184
    95  H    0.010931
    96  H    0.019038
    97  H    0.037479
    98  H    0.054667
    99  H    0.057206
   100  H    0.033430
   101  H    0.041546
   102  H    0.044538
   103  H    0.026327
   104  H   -0.011708
   105  H   -0.004299
   106  H    0.034239
   107  H    0.013611
   108  H   -0.019018
   109  H    0.000904
   110  H   -0.000257
   111  H    0.005335
   112  H   -0.000284
   113  H   -0.003916
   114  H   -0.011784
   115  H   -0.012067
   116  H    0.002450
   117  H    0.019361
   118  H   -0.011599
   119  H   -0.014629
   120  H    0.003303
   121  H   -0.011464
   122  H   -0.004255
   123  H    0.005223
   124  H    0.002448
   125  H    0.005308
   126  H   -0.002435
   127  H   -0.010762
   128  H   -0.018401
   129  H   -0.003411
   130  H    0.004320
   131  H    0.007395
   132  H   -0.015297
   133  H   -0.007795
   134  H   -0.007106
   135  H    0.009911
   136  H    0.000199
   137  H    0.009985
   138  H    0.021155
   139  H   -0.000814
   140  H    0.021625
 Sum of Mulliken charges =  -0.00000

 Dipole moment (field-independent basis, Debye):
    X=              2.5041    Y=              3.3336    Z=              0.2990  Tot=              4.1800
 Quadrupole moment (field-independent basis, Debye-Ang):
   XX=           -382.3148   YY=           -412.7531   ZZ=           -407.6243
   XY=              7.9867   XZ=             17.6171   YZ=             -1.4824

 Normal termination of Gaussian 16 at Sat Apr 30 02:21:46 2022.
