 Gaussian 16, Revision A.03,
 Gaussian 16:  ES64L-G16RevA.03 25-Dec-2016

 ---------------------------------
 #p PBE1PBE/Def2SVP td=(nstates=5)
 ---------------------------------

 -----------------------------------------------------
 step_551_chromophore_13 TDDFT with PBE1PBE functional
 -----------------------------------------------------
 Symbolic Z-matrix:
 Charge =  0 Multiplicity = 1

                         Standard orientation:
 ---------------------------------------------------------------------
 Center     Atomic      Atomic             Coordinates (Angstroms)
 Number     Number       Type             X           Y           Z
 ---------------------------------------------------------------------
      1         12           0       -6.203373    0.465639   -0.095562
      2          6           0       -3.937338   -2.228740    0.114813
      3          6           0       -3.709208    2.502027    1.051959
      4          6           0       -8.499398    2.783778    0.088800
      5          6           0       -8.560446   -1.958684   -0.892504
      6          7           0       -3.998010    0.276136    0.275845
      7          6           0       -3.320593   -0.963907    0.382864
      8          6           0       -1.790501   -0.755606    0.624480
      9          6           0       -1.874875    0.782812    1.204814
     10          6           0       -3.271061    1.220258    0.832316
     11          6           0       -1.484444    0.853326    2.668693
     12          6           0       -0.890127   -1.016470   -0.557627
     13          6           0        0.288863   -1.809487   -0.143927
     14          6           0        1.559447   -1.907517   -1.005074
     15          8           0        1.678957   -2.137998   -2.188730
     16          8           0        2.695631   -1.749323   -0.208438
     17          7           0       -6.073286    2.420834    0.393507
     18          6           0       -4.950285    3.117886    0.716174
     19          6           0       -5.343062    4.468680    0.857491
     20          6           0       -6.673382    4.591574    0.587170
     21          6           0       -7.169812    3.235805    0.377031
     22          6           0       -4.349408    5.595145    1.085883
     23          6           0       -7.543445    5.847915    0.610793
     24          8           0       -8.753172    5.753125    0.409998
     25          6           0       -7.037676    7.150369    1.017389
     26          7           0       -8.258125    0.390766   -0.122670
     27          6           0       -8.972060    1.537375   -0.221275
     28          6           0      -10.391535    1.325746   -0.664918
     29          6           0      -10.391722   -0.147139   -1.217564
     30          6           0       -8.979946   -0.568624   -0.826922
     31          6           0      -11.463879    1.413633    0.427239
     32          6           0      -10.455373   -0.193039   -2.768829
     33          6           0       -9.391654    0.514424   -3.608629
     34          7           0       -6.268063   -1.650048   -0.305183
     35          6           0       -7.264593   -2.481462   -0.640863
     36          6           0       -6.897012   -3.851228   -0.576727
     37          6           0       -5.566569   -3.813247   -0.315152
     38          6           0       -5.249016   -2.465041   -0.173443
     39          6           0       -7.684030   -4.995804   -0.954839
     40          6           0       -4.391297   -4.606789   -0.054658
     41          8           0       -4.230830   -5.826227    0.070026
     42          6           0       -3.265924   -3.576004    0.261736
     43          6           0       -2.775070   -3.962536    1.609949
     44          8           0       -2.959115   -3.245293    2.590926
     45          8           0       -1.782798   -4.893973    1.481540
     46          6           0       -1.051796   -5.175622    2.758542
     47          6           0        3.927507   -1.673674   -1.081968
     48          6           0        4.999193   -0.885272   -0.380432
     49          6           0        6.313682   -0.965170   -0.242526
     50          6           0        7.235759   -1.910122   -0.913115
     51          6           0        7.034397    0.088471    0.682683
     52          6           0        7.811806    1.227367   -0.044436
     53          6           0        9.325353    1.345746    0.415454
     54          6           0       10.171368    1.860241   -0.723240
     55          6           0        9.536598    3.011515   -1.471763
     56          6           0       10.546653    0.758559   -1.734877
     57          6           0       11.758678    1.085706   -2.683960
     58          6           0       13.095128    0.253642   -2.264837
     59          6           0       14.169269    1.206884   -1.795196
     60          6           0       15.190313    1.574983   -2.976774
     61          6           0       14.928814    0.602260   -0.667169
     62          6           0       14.432601    1.189312    0.692229
     63          6           0       14.340608    0.046625    1.712498
     64          6           0       13.037493    0.113117    2.534707
     65          6           0       13.194304   -0.163172    4.084880
     66          6           0       11.941806   -0.779742    1.916589
     67          1           0       -2.971576    3.230131    1.394323
     68          1           0       -9.321780    3.495844    0.190855
     69          1           0       -9.203573   -2.733868   -1.314725
     70          1           0       -1.618334   -1.421662    1.468982
     71          1           0       -1.339870    1.462779    0.542362
     72          1           0       -0.591070    1.472206    2.751804
     73          1           0       -1.141964   -0.081530    3.112066
     74          1           0       -2.247696    1.361986    3.256866
     75          1           0       -0.470040   -0.106040   -0.985497
     76          1           0       -1.506041   -1.552163   -1.279511
     77          1           0       -0.126340   -2.761734    0.182215
     78          1           0        0.527362   -1.404349    0.839807
     79          1           0       -3.305377    5.348789    1.278102
     80          1           0       -4.667593    6.005050    2.045242
     81          1           0       -4.222634    6.254162    0.227315
     82          1           0       -6.355626    6.895411    1.828330
     83          1           0       -7.807232    7.865891    1.306909
     84          1           0       -6.370111    7.633269    0.304438
     85          1           0      -10.608726    1.986646   -1.503839
     86          1           0      -11.190384   -0.758368   -0.796726
     87          1           0      -11.128600    1.103950    1.418123
     88          1           0      -12.377202    0.900410    0.127110
     89          1           0      -11.828435    2.435692    0.531689
     90          1           0      -11.422962    0.168772   -3.116342
     91          1           0      -10.257026   -1.231154   -3.037278
     92          1           0       -8.773350   -0.170095   -4.190037
     93          1           0       -8.770120    1.130347   -2.957911
     94          1           0       -9.823798    1.279910   -4.253494
     95          1           0       -8.752425   -4.838721   -1.101984
     96          1           0       -7.684373   -5.721986   -0.141745
     97          1           0       -7.126206   -5.534028   -1.721064
     98          1           0       -2.485767   -3.708647   -0.486348
     99          1           0       -1.666140   -5.028233    3.646873
    100          1           0       -0.171558   -4.533626    2.739677
    101          1           0       -0.653821   -6.188069    2.819143
    102          1           0        3.838774   -1.054215   -1.974972
    103          1           0        4.317108   -2.635589   -1.415232
    104          1           0        4.579247   -0.137399    0.292489
    105          1           0        6.615470   -2.403809   -1.661746
    106          1           0        7.735023   -2.584023   -0.217832
    107          1           0        7.977883   -1.366180   -1.496744
    108          1           0        7.851694   -0.461466    1.148413
    109          1           0        6.450410    0.525031    1.493473
    110          1           0        7.445082    2.226759    0.189460
    111          1           0        7.579324    1.142777   -1.105731
    112          1           0        9.663008    0.376983    0.783560
    113          1           0        9.310531    1.910556    1.348082
    114          1           0       11.107455    2.157716   -0.251435
    115          1           0        8.709046    3.391486   -0.873697
    116          1           0        8.999619    2.587396   -2.320222
    117          1           0       10.207502    3.858473   -1.620917
    118          1           0        9.676884    0.521174   -2.347891
    119          1           0       10.729682   -0.226315   -1.306594
    120          1           0       11.897852    2.162424   -2.789600
    121          1           0       11.479111    0.722359   -3.673525
    122          1           0       13.479890   -0.208992   -3.173727
    123          1           0       12.938564   -0.523717   -1.516925
    124          1           0       13.812787    2.203973   -1.537429
    125          1           0       16.094972    0.967728   -2.973480
    126          1           0       15.586728    2.575854   -3.146724
    127          1           0       14.692958    1.499370   -3.943756
    128          1           0       15.976114    0.895185   -0.751671
    129          1           0       15.007156   -0.484576   -0.663200
    130          1           0       13.413194    1.572657    0.654479
    131          1           0       15.063070    2.017560    1.016583
    132          1           0       15.217175    0.128293    2.355247
    133          1           0       14.421082   -0.956752    1.293370
    134          1           0       12.599362    1.107178    2.448506
    135          1           0       13.001153    0.768769    4.615502
    136          1           0       14.242781   -0.369798    4.300222
    137          1           0       12.557270   -1.010435    4.338197
    138          1           0       12.121681   -1.794099    2.273923
    139          1           0       12.013430   -0.667894    0.834597
    140          1           0       11.025184   -0.251875    2.181309
 ---------------------------------------------------------------------

 SCF Done:  E(RPBE1PBE) =  -3005.31659736     A.U. after   15 cycles

 Excitation energies and oscillator strengths:

 Excited State   1:      Singlet-A      1.8403 eV  673.71 nm  f=0.3595  <S**2>=0.000
     245 -> 248        0.17034
     246 -> 247        0.69482
     246 <- 247       -0.11085
 This state for optimization and/or second-order correction.
 Total Energy, E(TD-HF/TD-DFT) =  -3005.24896663
 Copying the excited state density for this state as the 1-particle RhoCI density.

 Excited State   2:      Singlet-A      2.2439 eV  552.53 nm  f=0.1127  <S**2>=0.000
     245 -> 247        0.65067
     246 -> 248       -0.26945

 Excited State   3:      Singlet-A      3.0782 eV  402.78 nm  f=0.0007  <S**2>=0.000
     241 -> 247        0.64987
     241 -> 249       -0.20444
     243 -> 247        0.11532

 Excited State   4:      Singlet-A      3.0879 eV  401.52 nm  f=0.0002  <S**2>=0.000
     241 -> 247       -0.10386
     243 -> 247        0.66377
     243 -> 249        0.11786
     243 -> 250        0.12289

 Excited State   5:      Singlet-A      3.2057 eV  386.77 nm  f=0.0019  <S**2>=0.000
     242 -> 247        0.67965

 The electronic state is 1-A.
 Alpha  occ. eigenvalues --  -46.91541 -19.26353 -19.25922 -19.20673 -19.20336
 Alpha  occ. eigenvalues --  -19.19293 -19.18368 -14.41452 -14.41449 -14.38730
 Alpha  occ. eigenvalues --  -14.38390 -10.36975 -10.36724 -10.32213 -10.31749
 Alpha  occ. eigenvalues --  -10.29540 -10.29293 -10.29164 -10.29035 -10.27776
 Alpha  occ. eigenvalues --  -10.27723 -10.27541 -10.26962 -10.26522 -10.26013
 Alpha  occ. eigenvalues --  -10.25793 -10.25631 -10.25393 -10.25370 -10.25119
 Alpha  occ. eigenvalues --  -10.24999 -10.24957 -10.24945 -10.24698 -10.24556
 Alpha  occ. eigenvalues --  -10.24450 -10.24370 -10.24312 -10.24064 -10.24016
 Alpha  occ. eigenvalues --  -10.23805 -10.23313 -10.23204 -10.23200 -10.23190
 Alpha  occ. eigenvalues --  -10.23156 -10.23040 -10.23028 -10.23024 -10.23016
 Alpha  occ. eigenvalues --  -10.22921 -10.22890 -10.22723 -10.22721 -10.22711
 Alpha  occ. eigenvalues --  -10.22626 -10.22620 -10.22352 -10.22224 -10.22166
 Alpha  occ. eigenvalues --  -10.21941 -10.21832 -10.21788 -10.21676 -10.21595
 Alpha  occ. eigenvalues --  -10.21511  -3.13786  -1.86630  -1.86160  -1.86021
 Alpha  occ. eigenvalues --   -1.11065  -1.10930  -1.04144  -1.03998  -1.02585
 Alpha  occ. eigenvalues --   -1.02213  -1.00931  -0.98727  -0.98123  -0.97459
 Alpha  occ. eigenvalues --   -0.87813  -0.85100  -0.84655  -0.83986  -0.83556
 Alpha  occ. eigenvalues --   -0.83186  -0.83141  -0.82463  -0.81727  -0.81560
 Alpha  occ. eigenvalues --   -0.81294  -0.79874  -0.78194  -0.78084  -0.77564
 Alpha  occ. eigenvalues --   -0.76601  -0.76476  -0.75668  -0.75126  -0.74982
 Alpha  occ. eigenvalues --   -0.73626  -0.73032  -0.72310  -0.71724  -0.70685
 Alpha  occ. eigenvalues --   -0.69893  -0.69758  -0.69380  -0.68754  -0.68435
 Alpha  occ. eigenvalues --   -0.67905  -0.67229  -0.66396  -0.65185  -0.64081
 Alpha  occ. eigenvalues --   -0.63436  -0.62848  -0.61580  -0.61333  -0.60335
 Alpha  occ. eigenvalues --   -0.59849  -0.59351  -0.59120  -0.58530  -0.58287
 Alpha  occ. eigenvalues --   -0.58111  -0.56436  -0.56393  -0.56206  -0.54914
 Alpha  occ. eigenvalues --   -0.54677  -0.54224  -0.53883  -0.53144  -0.53114
 Alpha  occ. eigenvalues --   -0.52465  -0.51490  -0.51074  -0.50378  -0.50234
 Alpha  occ. eigenvalues --   -0.49911  -0.49735  -0.49391  -0.49164  -0.49003
 Alpha  occ. eigenvalues --   -0.48477  -0.48039  -0.47894  -0.47682  -0.47582
 Alpha  occ. eigenvalues --   -0.47431  -0.47181  -0.46938  -0.46808  -0.46528
 Alpha  occ. eigenvalues --   -0.46414  -0.46271  -0.45853  -0.45371  -0.45263
 Alpha  occ. eigenvalues --   -0.45201  -0.44991  -0.44810  -0.44424  -0.44151
 Alpha  occ. eigenvalues --   -0.44069  -0.43857  -0.43706  -0.43619  -0.43354
 Alpha  occ. eigenvalues --   -0.43321  -0.43004  -0.42964  -0.42720  -0.42471
 Alpha  occ. eigenvalues --   -0.42116  -0.41859  -0.41651  -0.41465  -0.41356
 Alpha  occ. eigenvalues --   -0.40955  -0.40835  -0.40592  -0.40545  -0.40427
 Alpha  occ. eigenvalues --   -0.40058  -0.39987  -0.39919  -0.39683  -0.39375
 Alpha  occ. eigenvalues --   -0.39271  -0.39164  -0.38949  -0.38759  -0.38492
 Alpha  occ. eigenvalues --   -0.38354  -0.38264  -0.38189  -0.38048  -0.37793
 Alpha  occ. eigenvalues --   -0.37572  -0.37379  -0.37179  -0.37043  -0.36939
 Alpha  occ. eigenvalues --   -0.36821  -0.36709  -0.36473  -0.36393  -0.36228
 Alpha  occ. eigenvalues --   -0.35901  -0.35822  -0.35532  -0.35058  -0.34857
 Alpha  occ. eigenvalues --   -0.34646  -0.34362  -0.34151  -0.33665  -0.33287
 Alpha  occ. eigenvalues --   -0.33055  -0.32757  -0.32695  -0.32477  -0.32379
 Alpha  occ. eigenvalues --   -0.32108  -0.31934  -0.31926  -0.31401  -0.31284
 Alpha  occ. eigenvalues --   -0.30903  -0.30314  -0.29976  -0.29425  -0.29251
 Alpha  occ. eigenvalues --   -0.29226  -0.28653  -0.28456  -0.27090  -0.26335
 Alpha  occ. eigenvalues --   -0.25718  -0.25645  -0.25364  -0.25316  -0.20794
 Alpha  occ. eigenvalues --   -0.18509
 Alpha virt. eigenvalues --   -0.10950  -0.04898  -0.03886  -0.01940  -0.00579
 Alpha virt. eigenvalues --   -0.00299   0.00495   0.01532   0.02138   0.03523
 Alpha virt. eigenvalues --    0.03801   0.04766   0.04829   0.05631   0.05897

 Mulliken charges:
               1
     1  Mg   0.976731
     2  C   -0.026976
     3  C   -0.069917
     4  C   -0.041961
     5  C   -0.059301
     6  N   -0.367616
     7  C    0.013177
     8  C   -0.137019
     9  C   -0.116325
    10  C    0.084194
    11  C    0.036597
    12  C    0.106687
    13  C   -0.095441
    14  C    0.272665
    15  O   -0.245108
    16  O   -0.380268
    17  N   -0.524461
    18  C    0.162342
    19  C   -0.181177
    20  C   -0.062812
    21  C    0.152647
    22  C    0.028058
    23  C    0.055986
    24  O   -0.252144
    25  C    0.018967
    26  N   -0.416869
    27  C    0.058873
    28  C   -0.072778
    29  C   -0.103036
    30  C    0.077941
    31  C    0.015766
    32  C   -0.036324
    33  C   -0.082487
    34  N   -0.387954
    35  C    0.082591
    36  C   -0.199738
    37  C    0.018485
    38  C    0.125458
    39  C    0.079205
    40  C    0.107440
    41  O   -0.222659
    42  C   -0.149318
    43  C    0.323863
    44  O   -0.266733
    45  O   -0.357580
    46  C    0.114193
    47  C    0.261415
    48  C   -0.129841
    49  C   -0.249473
    50  C    0.039995
    51  C    0.039485
    52  C   -0.103997
    53  C   -0.039430
    54  C   -0.197600
    55  C    0.033052
    56  C   -0.039183
    57  C   -0.032755
    58  C    0.024074
    59  C   -0.209788
    60  C   -0.045859
    61  C    0.007933
    62  C   -0.055100
    63  C    0.001240
    64  C   -0.304478
    65  C   -0.000472
    66  C   -0.026777
    67  H   -0.008356
    68  H    0.029159
    69  H    0.002563
    70  H    0.059711
    71  H    0.047383
    72  H    0.030614
    73  H    0.055756
    74  H    0.049233
    75  H    0.039858
    76  H    0.051471
    77  H    0.068013
    78  H    0.052225
    79  H    0.027945
    80  H    0.058869
    81  H    0.068241
    82  H    0.033527
    83  H    0.062606
    84  H    0.055235
    85  H    0.043397
    86  H    0.047354
    87  H    0.056600
    88  H    0.037976
    89  H    0.041486
    90  H    0.044033
    91  H    0.038218
    92  H    0.055074
    93  H    0.046213
    94  H    0.039463
    95  H    0.036468
    96  H    0.048177
    97  H    0.065190
    98  H    0.091126
    99  H    0.077635
   100  H    0.055133
   101  H    0.063164
   102  H    0.072760
   103  H    0.053257
   104  H    0.019015
   105  H    0.024942
   106  H    0.060851
   107  H    0.045286
   108  H    0.016377
   109  H    0.031836
   110  H    0.033621
   111  H    0.037051
   112  H    0.035771
   113  H    0.028707
   114  H    0.034333
   115  H    0.018286
   116  H    0.030174
   117  H    0.046431
   118  H    0.021474
   119  H    0.017067
   120  H    0.034200
   121  H    0.022083
   122  H    0.028912
   123  H    0.037210
   124  H    0.039560
   125  H    0.032274
   126  H    0.025009
   127  H    0.016959
   128  H    0.016437
   129  H    0.026976
   130  H    0.043842
   131  H    0.039458
   132  H    0.018286
   133  H    0.023787
   134  H    0.031329
   135  H    0.037343
   136  H    0.027833
   137  H    0.036734
   138  H    0.048741
   139  H    0.035950
   140  H    0.050771
 Sum of Mulliken charges =  -0.00000

 Dipole moment (field-independent basis, Debye):
    X=              2.4357    Y=              3.3350    Z=              0.2293  Tot=              4.1361
 Quadrupole moment (field-independent basis, Debye-Ang):
   XX=           -375.4123   YY=           -410.3022   ZZ=           -404.9703
   XY=              8.7775   XZ=             18.4021   YZ=             -1.2094

 Normal termination of Gaussian 16 at Sat Apr 30 02:40:43 2022.
