 Gaussian 16, Revision A.03,
 Gaussian 16:  ES64L-G16RevA.03 25-Dec-2016

 --------------------------------
 #p wB97XD/Def2SVP td=(nstates=5)
 --------------------------------

 ----------------------------------------------------
 step_551_chromophore_13 TDDFT with wB97XD functional
 ----------------------------------------------------
 Symbolic Z-matrix:
 Charge =  0 Multiplicity = 1

                         Standard orientation:
 ---------------------------------------------------------------------
 Center     Atomic      Atomic             Coordinates (Angstroms)
 Number     Number       Type             X           Y           Z
 ---------------------------------------------------------------------
      1         12           0       -6.203373    0.465639   -0.095562
      2          6           0       -3.937338   -2.228740    0.114813
      3          6           0       -3.709208    2.502027    1.051959
      4          6           0       -8.499398    2.783778    0.088800
      5          6           0       -8.560446   -1.958684   -0.892504
      6          7           0       -3.998010    0.276136    0.275845
      7          6           0       -3.320593   -0.963907    0.382864
      8          6           0       -1.790501   -0.755606    0.624480
      9          6           0       -1.874875    0.782812    1.204814
     10          6           0       -3.271061    1.220258    0.832316
     11          6           0       -1.484444    0.853326    2.668693
     12          6           0       -0.890127   -1.016470   -0.557627
     13          6           0        0.288863   -1.809487   -0.143927
     14          6           0        1.559447   -1.907517   -1.005074
     15          8           0        1.678957   -2.137998   -2.188730
     16          8           0        2.695631   -1.749323   -0.208438
     17          7           0       -6.073286    2.420834    0.393507
     18          6           0       -4.950285    3.117886    0.716174
     19          6           0       -5.343062    4.468680    0.857491
     20          6           0       -6.673382    4.591574    0.587170
     21          6           0       -7.169812    3.235805    0.377031
     22          6           0       -4.349408    5.595145    1.085883
     23          6           0       -7.543445    5.847915    0.610793
     24          8           0       -8.753172    5.753125    0.409998
     25          6           0       -7.037676    7.150369    1.017389
     26          7           0       -8.258125    0.390766   -0.122670
     27          6           0       -8.972060    1.537375   -0.221275
     28          6           0      -10.391535    1.325746   -0.664918
     29          6           0      -10.391722   -0.147139   -1.217564
     30          6           0       -8.979946   -0.568624   -0.826922
     31          6           0      -11.463879    1.413633    0.427239
     32          6           0      -10.455373   -0.193039   -2.768829
     33          6           0       -9.391654    0.514424   -3.608629
     34          7           0       -6.268063   -1.650048   -0.305183
     35          6           0       -7.264593   -2.481462   -0.640863
     36          6           0       -6.897012   -3.851228   -0.576727
     37          6           0       -5.566569   -3.813247   -0.315152
     38          6           0       -5.249016   -2.465041   -0.173443
     39          6           0       -7.684030   -4.995804   -0.954839
     40          6           0       -4.391297   -4.606789   -0.054658
     41          8           0       -4.230830   -5.826227    0.070026
     42          6           0       -3.265924   -3.576004    0.261736
     43          6           0       -2.775070   -3.962536    1.609949
     44          8           0       -2.959115   -3.245293    2.590926
     45          8           0       -1.782798   -4.893973    1.481540
     46          6           0       -1.051796   -5.175622    2.758542
     47          6           0        3.927507   -1.673674   -1.081968
     48          6           0        4.999193   -0.885272   -0.380432
     49          6           0        6.313682   -0.965170   -0.242526
     50          6           0        7.235759   -1.910122   -0.913115
     51          6           0        7.034397    0.088471    0.682683
     52          6           0        7.811806    1.227367   -0.044436
     53          6           0        9.325353    1.345746    0.415454
     54          6           0       10.171368    1.860241   -0.723240
     55          6           0        9.536598    3.011515   -1.471763
     56          6           0       10.546653    0.758559   -1.734877
     57          6           0       11.758678    1.085706   -2.683960
     58          6           0       13.095128    0.253642   -2.264837
     59          6           0       14.169269    1.206884   -1.795196
     60          6           0       15.190313    1.574983   -2.976774
     61          6           0       14.928814    0.602260   -0.667169
     62          6           0       14.432601    1.189312    0.692229
     63          6           0       14.340608    0.046625    1.712498
     64          6           0       13.037493    0.113117    2.534707
     65          6           0       13.194304   -0.163172    4.084880
     66          6           0       11.941806   -0.779742    1.916589
     67          1           0       -2.971576    3.230131    1.394323
     68          1           0       -9.321780    3.495844    0.190855
     69          1           0       -9.203573   -2.733868   -1.314725
     70          1           0       -1.618334   -1.421662    1.468982
     71          1           0       -1.339870    1.462779    0.542362
     72          1           0       -0.591070    1.472206    2.751804
     73          1           0       -1.141964   -0.081530    3.112066
     74          1           0       -2.247696    1.361986    3.256866
     75          1           0       -0.470040   -0.106040   -0.985497
     76          1           0       -1.506041   -1.552163   -1.279511
     77          1           0       -0.126340   -2.761734    0.182215
     78          1           0        0.527362   -1.404349    0.839807
     79          1           0       -3.305377    5.348789    1.278102
     80          1           0       -4.667593    6.005050    2.045242
     81          1           0       -4.222634    6.254162    0.227315
     82          1           0       -6.355626    6.895411    1.828330
     83          1           0       -7.807232    7.865891    1.306909
     84          1           0       -6.370111    7.633269    0.304438
     85          1           0      -10.608726    1.986646   -1.503839
     86          1           0      -11.190384   -0.758368   -0.796726
     87          1           0      -11.128600    1.103950    1.418123
     88          1           0      -12.377202    0.900410    0.127110
     89          1           0      -11.828435    2.435692    0.531689
     90          1           0      -11.422962    0.168772   -3.116342
     91          1           0      -10.257026   -1.231154   -3.037278
     92          1           0       -8.773350   -0.170095   -4.190037
     93          1           0       -8.770120    1.130347   -2.957911
     94          1           0       -9.823798    1.279910   -4.253494
     95          1           0       -8.752425   -4.838721   -1.101984
     96          1           0       -7.684373   -5.721986   -0.141745
     97          1           0       -7.126206   -5.534028   -1.721064
     98          1           0       -2.485767   -3.708647   -0.486348
     99          1           0       -1.666140   -5.028233    3.646873
    100          1           0       -0.171558   -4.533626    2.739677
    101          1           0       -0.653821   -6.188069    2.819143
    102          1           0        3.838774   -1.054215   -1.974972
    103          1           0        4.317108   -2.635589   -1.415232
    104          1           0        4.579247   -0.137399    0.292489
    105          1           0        6.615470   -2.403809   -1.661746
    106          1           0        7.735023   -2.584023   -0.217832
    107          1           0        7.977883   -1.366180   -1.496744
    108          1           0        7.851694   -0.461466    1.148413
    109          1           0        6.450410    0.525031    1.493473
    110          1           0        7.445082    2.226759    0.189460
    111          1           0        7.579324    1.142777   -1.105731
    112          1           0        9.663008    0.376983    0.783560
    113          1           0        9.310531    1.910556    1.348082
    114          1           0       11.107455    2.157716   -0.251435
    115          1           0        8.709046    3.391486   -0.873697
    116          1           0        8.999619    2.587396   -2.320222
    117          1           0       10.207502    3.858473   -1.620917
    118          1           0        9.676884    0.521174   -2.347891
    119          1           0       10.729682   -0.226315   -1.306594
    120          1           0       11.897852    2.162424   -2.789600
    121          1           0       11.479111    0.722359   -3.673525
    122          1           0       13.479890   -0.208992   -3.173727
    123          1           0       12.938564   -0.523717   -1.516925
    124          1           0       13.812787    2.203973   -1.537429
    125          1           0       16.094972    0.967728   -2.973480
    126          1           0       15.586728    2.575854   -3.146724
    127          1           0       14.692958    1.499370   -3.943756
    128          1           0       15.976114    0.895185   -0.751671
    129          1           0       15.007156   -0.484576   -0.663200
    130          1           0       13.413194    1.572657    0.654479
    131          1           0       15.063070    2.017560    1.016583
    132          1           0       15.217175    0.128293    2.355247
    133          1           0       14.421082   -0.956752    1.293370
    134          1           0       12.599362    1.107178    2.448506
    135          1           0       13.001153    0.768769    4.615502
    136          1           0       14.242781   -0.369798    4.300222
    137          1           0       12.557270   -1.010435    4.338197
    138          1           0       12.121681   -1.794099    2.273923
    139          1           0       12.013430   -0.667894    0.834597
    140          1           0       11.025184   -0.251875    2.181309
 ---------------------------------------------------------------------

 SCF Done:  E(RwB97XD) =  -3007.82880105     A.U. after   17 cycles

 Excitation energies and oscillator strengths:

 Excited State   1:      Singlet-A      1.6239 eV  763.49 nm  f=0.3711  <S**2>=0.000
     245 -> 248        0.18182
     246 -> 247        0.68504
     245 <- 248        0.11771
 This state for optimization and/or second-order correction.
 Total Energy, E(TD-HF/TD-DFT) =  -3007.76912312
 Copying the excited state density for this state as the 1-particle RhoCI density.

 Excited State   2:      Singlet-A      2.1741 eV  570.29 nm  f=0.1110  <S**2>=0.000
     245 -> 247        0.63816
     246 -> 248       -0.29432

 Excited State   3:      Singlet-A      3.5370 eV  350.54 nm  f=0.3152  <S**2>=0.000
     240 -> 247        0.21803
     241 -> 249        0.10471
     242 -> 247        0.12180
     243 -> 247        0.40022
     245 -> 247        0.18903
     246 -> 248        0.45941

 Excited State   4:      Singlet-A      3.5619 eV  348.09 nm  f=0.0367  <S**2>=0.000
     240 -> 247       -0.26304
     240 -> 249        0.22864
     241 -> 247        0.33240
     241 -> 249       -0.22416
     243 -> 247        0.38342
     246 -> 248       -0.13222

 Excited State   5:      Singlet-A      3.5865 eV  345.69 nm  f=0.2926  <S**2>=0.000
     241 -> 247       -0.30835
     241 -> 249        0.20471
     243 -> 247        0.38087
     245 -> 247       -0.17576
     246 -> 248       -0.38374

 The electronic state is 1-A.
 Alpha  occ. eigenvalues --  -46.94483 -19.30941 -19.30481 -19.25348 -19.25055
 Alpha  occ. eigenvalues --  -19.24157 -19.23186 -14.46564 -14.46496 -14.43663
 Alpha  occ. eigenvalues --  -14.43369 -10.43761 -10.43580 -10.39120 -10.38584
 Alpha  occ. eigenvalues --  -10.36034 -10.35827 -10.35405 -10.35233 -10.34139
 Alpha  occ. eigenvalues --  -10.34044 -10.33833 -10.33315 -10.32803 -10.32251
 Alpha  occ. eigenvalues --  -10.32083 -10.32030 -10.31719 -10.31561 -10.31547
 Alpha  occ. eigenvalues --  -10.31441 -10.31278 -10.31198 -10.31177 -10.30960
 Alpha  occ. eigenvalues --  -10.30935 -10.30738 -10.30662 -10.30492 -10.30414
 Alpha  occ. eigenvalues --  -10.30065 -10.29711 -10.29651 -10.29605 -10.29551
 Alpha  occ. eigenvalues --  -10.29549 -10.29482 -10.29460 -10.29414 -10.29401
 Alpha  occ. eigenvalues --  -10.29190 -10.29180 -10.29128 -10.29101 -10.29097
 Alpha  occ. eigenvalues --  -10.29008 -10.28997 -10.28728 -10.28592 -10.28508
 Alpha  occ. eigenvalues --  -10.28401 -10.28256 -10.28230 -10.28038 -10.27956
 Alpha  occ. eigenvalues --  -10.27934  -3.20571  -1.94167  -1.93699  -1.93555
 Alpha  occ. eigenvalues --   -1.18496  -1.18305  -1.11637  -1.11539  -1.09980
 Alpha  occ. eigenvalues --   -1.09559  -1.08250  -1.06102  -1.05506  -1.04834
 Alpha  occ. eigenvalues --   -0.95443  -0.92745  -0.92338  -0.91656  -0.91119
 Alpha  occ. eigenvalues --   -0.90851  -0.90717  -0.90091  -0.89394  -0.89207
 Alpha  occ. eigenvalues --   -0.88878  -0.87494  -0.85859  -0.85719  -0.85197
 Alpha  occ. eigenvalues --   -0.84280  -0.84196  -0.83319  -0.82774  -0.82598
 Alpha  occ. eigenvalues --   -0.81302  -0.80665  -0.79960  -0.79326  -0.78305
 Alpha  occ. eigenvalues --   -0.77565  -0.77370  -0.77080  -0.76439  -0.76102
 Alpha  occ. eigenvalues --   -0.75488  -0.74829  -0.73943  -0.72782  -0.71630
 Alpha  occ. eigenvalues --   -0.70961  -0.70485  -0.69146  -0.68993  -0.67849
 Alpha  occ. eigenvalues --   -0.67516  -0.66814  -0.66563  -0.65985  -0.65972
 Alpha  occ. eigenvalues --   -0.65562  -0.64027  -0.63839  -0.63828  -0.62367
 Alpha  occ. eigenvalues --   -0.62131  -0.61674  -0.61325  -0.60701  -0.60531
 Alpha  occ. eigenvalues --   -0.59891  -0.58917  -0.58471  -0.57858  -0.57698
 Alpha  occ. eigenvalues --   -0.57319  -0.57159  -0.56850  -0.56546  -0.56393
 Alpha  occ. eigenvalues --   -0.55949  -0.55354  -0.55340  -0.55155  -0.55143
 Alpha  occ. eigenvalues --   -0.54747  -0.54552  -0.54326  -0.54174  -0.53891
 Alpha  occ. eigenvalues --   -0.53813  -0.53638  -0.53203  -0.52737  -0.52570
 Alpha  occ. eigenvalues --   -0.52553  -0.52341  -0.52138  -0.51774  -0.51594
 Alpha  occ. eigenvalues --   -0.51409  -0.51157  -0.51004  -0.50877  -0.50649
 Alpha  occ. eigenvalues --   -0.50592  -0.50282  -0.50257  -0.50036  -0.49733
 Alpha  occ. eigenvalues --   -0.49410  -0.49100  -0.48964  -0.48667  -0.48611
 Alpha  occ. eigenvalues --   -0.48161  -0.47976  -0.47849  -0.47715  -0.47584
 Alpha  occ. eigenvalues --   -0.47258  -0.47169  -0.47083  -0.46894  -0.46558
 Alpha  occ. eigenvalues --   -0.46448  -0.46289  -0.46126  -0.45944  -0.45635
 Alpha  occ. eigenvalues --   -0.45551  -0.45394  -0.45315  -0.45158  -0.44898
 Alpha  occ. eigenvalues --   -0.44626  -0.44496  -0.44341  -0.44203  -0.44048
 Alpha  occ. eigenvalues --   -0.43901  -0.43838  -0.43499  -0.43474  -0.43375
 Alpha  occ. eigenvalues --   -0.43027  -0.42946  -0.42654  -0.42197  -0.41926
 Alpha  occ. eigenvalues --   -0.41650  -0.41492  -0.41143  -0.40726  -0.40261
 Alpha  occ. eigenvalues --   -0.40087  -0.39788  -0.39642  -0.39491  -0.39353
 Alpha  occ. eigenvalues --   -0.39181  -0.39003  -0.38931  -0.38295  -0.38273
 Alpha  occ. eigenvalues --   -0.37879  -0.37291  -0.36860  -0.36529  -0.36346
 Alpha  occ. eigenvalues --   -0.36155  -0.35337  -0.35308  -0.33678  -0.32943
 Alpha  occ. eigenvalues --   -0.32825  -0.32585  -0.32210  -0.32047  -0.25783
 Alpha  occ. eigenvalues --   -0.22673
 Alpha virt. eigenvalues --   -0.06815   0.00561   0.02434   0.04573   0.06063
 Alpha virt. eigenvalues --    0.06408   0.06629   0.08269   0.08820   0.09692
 Alpha virt. eigenvalues --    0.10537   0.11364   0.11610   0.12251   0.12659

 Mulliken charges:
               1
     1  Mg   0.965518
     2  C   -0.029113
     3  C   -0.085634
     4  C   -0.062352
     5  C   -0.081435
     6  N   -0.334914
     7  C   -0.020277
     8  C   -0.100753
     9  C   -0.091268
    10  C    0.070728
    11  C    0.045601
    12  C    0.112461
    13  C   -0.068295
    14  C    0.265223
    15  O   -0.243059
    16  O   -0.380911
    17  N   -0.491351
    18  C    0.149190
    19  C   -0.164601
    20  C   -0.053647
    21  C    0.141081
    22  C    0.037756
    23  C    0.049139
    24  O   -0.246315
    25  C    0.031297
    26  N   -0.389709
    27  C    0.052424
    28  C   -0.051305
    29  C   -0.074956
    30  C    0.070266
    31  C    0.023421
    32  C   -0.021997
    33  C   -0.063500
    34  N   -0.346038
    35  C    0.077761
    36  C   -0.193289
    37  C    0.016547
    38  C    0.114730
    39  C    0.087560
    40  C    0.089130
    41  O   -0.212623
    42  C   -0.110715
    43  C    0.302499
    44  O   -0.260972
    45  O   -0.357644
    46  C    0.130812
    47  C    0.277024
    48  C   -0.139487
    49  C   -0.233370
    50  C    0.056880
    51  C    0.062325
    52  C   -0.090268
    53  C   -0.010995
    54  C   -0.155651
    55  C    0.043856
    56  C   -0.020774
    57  C   -0.018421
    58  C    0.039890
    59  C   -0.178574
    60  C   -0.033696
    61  C    0.021392
    62  C   -0.028156
    63  C    0.013002
    64  C   -0.270911
    65  C    0.012171
    66  C    0.003026
    67  H   -0.016731
    68  H    0.024583
    69  H   -0.005416
    70  H    0.035714
    71  H    0.036580
    72  H    0.024928
    73  H    0.051704
    74  H    0.043626
    75  H    0.032989
    76  H    0.042939
    77  H    0.055014
    78  H    0.043148
    79  H    0.024675
    80  H    0.052571
    81  H    0.063567
    82  H    0.024484
    83  H    0.062341
    84  H    0.050877
    85  H    0.033937
    86  H    0.040341
    87  H    0.051785
    88  H    0.031583
    89  H    0.036011
    90  H    0.037050
    91  H    0.027220
    92  H    0.050764
    93  H    0.031449
    94  H    0.034605
    95  H    0.032924
    96  H    0.043335
    97  H    0.060816
    98  H    0.083628
    99  H    0.073721
   100  H    0.050725
   101  H    0.059734
   102  H    0.066665
   103  H    0.048023
   104  H    0.015093
   105  H    0.018023
   106  H    0.056777
   107  H    0.035528
   108  H    0.004655
   109  H    0.026652
   110  H    0.023727
   111  H    0.023793
   112  H    0.008825
   113  H    0.022255
   114  H    0.015481
   115  H    0.009741
   116  H    0.022643
   117  H    0.042998
   118  H    0.008458
   119  H    0.005961
   120  H    0.024681
   121  H    0.015679
   122  H    0.020748
   123  H    0.025690
   124  H    0.026160
   125  H    0.025787
   126  H    0.020049
   127  H    0.009425
   128  H    0.007697
   129  H    0.018191
   130  H    0.020050
   131  H    0.033981
   132  H    0.010121
   133  H    0.013540
   134  H    0.017406
   135  H    0.032209
   136  H    0.021185
   137  H    0.030926
   138  H    0.042909
   139  H    0.012657
   140  H    0.042660
 Sum of Mulliken charges =  -0.00000

 Dipole moment (field-independent basis, Debye):
    X=              2.5639    Y=              3.4070    Z=              0.2934  Tot=              4.2740
 Quadrupole moment (field-independent basis, Debye-Ang):
   XX=           -376.7248   YY=           -408.3985   ZZ=           -404.5867
   XY=              8.0797   XZ=             18.2377   YZ=             -1.2649

 Normal termination of Gaussian 16 at Sat Apr 30 03:16:00 2022.
