 Gaussian 16, Revision A.03,
 Gaussian 16:  ES64L-G16RevA.03 25-Dec-2016

 --------------------
 #p ZINDO=(nstates=5)
 --------------------

 -----------------------------
 step_551_chromophore_13 ZINDO
 -----------------------------
 Symbolic Z-matrix:
 Charge =  0 Multiplicity = 1

                         Standard orientation:
 ---------------------------------------------------------------------
 Center     Atomic      Atomic             Coordinates (Angstroms)
 Number     Number       Type             X           Y           Z
 ---------------------------------------------------------------------
      1         12           0       -6.203373    0.465639   -0.095562
      2          6           0       -3.937338   -2.228740    0.114813
      3          6           0       -3.709208    2.502027    1.051959
      4          6           0       -8.499398    2.783778    0.088800
      5          6           0       -8.560446   -1.958684   -0.892504
      6          7           0       -3.998010    0.276136    0.275845
      7          6           0       -3.320593   -0.963907    0.382864
      8          6           0       -1.790501   -0.755606    0.624480
      9          6           0       -1.874875    0.782812    1.204814
     10          6           0       -3.271061    1.220258    0.832316
     11          6           0       -1.484444    0.853326    2.668693
     12          6           0       -0.890127   -1.016470   -0.557627
     13          6           0        0.288863   -1.809487   -0.143927
     14          6           0        1.559447   -1.907517   -1.005074
     15          8           0        1.678957   -2.137998   -2.188730
     16          8           0        2.695631   -1.749323   -0.208438
     17          7           0       -6.073286    2.420834    0.393507
     18          6           0       -4.950285    3.117886    0.716174
     19          6           0       -5.343062    4.468680    0.857491
     20          6           0       -6.673382    4.591574    0.587170
     21          6           0       -7.169812    3.235805    0.377031
     22          6           0       -4.349408    5.595145    1.085883
     23          6           0       -7.543445    5.847915    0.610793
     24          8           0       -8.753172    5.753125    0.409998
     25          6           0       -7.037676    7.150369    1.017389
     26          7           0       -8.258125    0.390766   -0.122670
     27          6           0       -8.972060    1.537375   -0.221275
     28          6           0      -10.391535    1.325746   -0.664918
     29          6           0      -10.391722   -0.147139   -1.217564
     30          6           0       -8.979946   -0.568624   -0.826922
     31          6           0      -11.463879    1.413633    0.427239
     32          6           0      -10.455373   -0.193039   -2.768829
     33          6           0       -9.391654    0.514424   -3.608629
     34          7           0       -6.268063   -1.650048   -0.305183
     35          6           0       -7.264593   -2.481462   -0.640863
     36          6           0       -6.897012   -3.851228   -0.576727
     37          6           0       -5.566569   -3.813247   -0.315152
     38          6           0       -5.249016   -2.465041   -0.173443
     39          6           0       -7.684030   -4.995804   -0.954839
     40          6           0       -4.391297   -4.606789   -0.054658
     41          8           0       -4.230830   -5.826227    0.070026
     42          6           0       -3.265924   -3.576004    0.261736
     43          6           0       -2.775070   -3.962536    1.609949
     44          8           0       -2.959115   -3.245293    2.590926
     45          8           0       -1.782798   -4.893973    1.481540
     46          6           0       -1.051796   -5.175622    2.758542
     47          6           0        3.927507   -1.673674   -1.081968
     48          6           0        4.999193   -0.885272   -0.380432
     49          6           0        6.313682   -0.965170   -0.242526
     50          6           0        7.235759   -1.910122   -0.913115
     51          6           0        7.034397    0.088471    0.682683
     52          6           0        7.811806    1.227367   -0.044436
     53          6           0        9.325353    1.345746    0.415454
     54          6           0       10.171368    1.860241   -0.723240
     55          6           0        9.536598    3.011515   -1.471763
     56          6           0       10.546653    0.758559   -1.734877
     57          6           0       11.758678    1.085706   -2.683960
     58          6           0       13.095128    0.253642   -2.264837
     59          6           0       14.169269    1.206884   -1.795196
     60          6           0       15.190313    1.574983   -2.976774
     61          6           0       14.928814    0.602260   -0.667169
     62          6           0       14.432601    1.189312    0.692229
     63          6           0       14.340608    0.046625    1.712498
     64          6           0       13.037493    0.113117    2.534707
     65          6           0       13.194304   -0.163172    4.084880
     66          6           0       11.941806   -0.779742    1.916589
     67          1           0       -2.971576    3.230131    1.394323
     68          1           0       -9.321780    3.495844    0.190855
     69          1           0       -9.203573   -2.733868   -1.314725
     70          1           0       -1.618334   -1.421662    1.468982
     71          1           0       -1.339870    1.462779    0.542362
     72          1           0       -0.591070    1.472206    2.751804
     73          1           0       -1.141964   -0.081530    3.112066
     74          1           0       -2.247696    1.361986    3.256866
     75          1           0       -0.470040   -0.106040   -0.985497
     76          1           0       -1.506041   -1.552163   -1.279511
     77          1           0       -0.126340   -2.761734    0.182215
     78          1           0        0.527362   -1.404349    0.839807
     79          1           0       -3.305377    5.348789    1.278102
     80          1           0       -4.667593    6.005050    2.045242
     81          1           0       -4.222634    6.254162    0.227315
     82          1           0       -6.355626    6.895411    1.828330
     83          1           0       -7.807232    7.865891    1.306909
     84          1           0       -6.370111    7.633269    0.304438
     85          1           0      -10.608726    1.986646   -1.503839
     86          1           0      -11.190384   -0.758368   -0.796726
     87          1           0      -11.128600    1.103950    1.418123
     88          1           0      -12.377202    0.900410    0.127110
     89          1           0      -11.828435    2.435692    0.531689
     90          1           0      -11.422962    0.168772   -3.116342
     91          1           0      -10.257026   -1.231154   -3.037278
     92          1           0       -8.773350   -0.170095   -4.190037
     93          1           0       -8.770120    1.130347   -2.957911
     94          1           0       -9.823798    1.279910   -4.253494
     95          1           0       -8.752425   -4.838721   -1.101984
     96          1           0       -7.684373   -5.721986   -0.141745
     97          1           0       -7.126206   -5.534028   -1.721064
     98          1           0       -2.485767   -3.708647   -0.486348
     99          1           0       -1.666140   -5.028233    3.646873
    100          1           0       -0.171558   -4.533626    2.739677
    101          1           0       -0.653821   -6.188069    2.819143
    102          1           0        3.838774   -1.054215   -1.974972
    103          1           0        4.317108   -2.635589   -1.415232
    104          1           0        4.579247   -0.137399    0.292489
    105          1           0        6.615470   -2.403809   -1.661746
    106          1           0        7.735023   -2.584023   -0.217832
    107          1           0        7.977883   -1.366180   -1.496744
    108          1           0        7.851694   -0.461466    1.148413
    109          1           0        6.450410    0.525031    1.493473
    110          1           0        7.445082    2.226759    0.189460
    111          1           0        7.579324    1.142777   -1.105731
    112          1           0        9.663008    0.376983    0.783560
    113          1           0        9.310531    1.910556    1.348082
    114          1           0       11.107455    2.157716   -0.251435
    115          1           0        8.709046    3.391486   -0.873697
    116          1           0        8.999619    2.587396   -2.320222
    117          1           0       10.207502    3.858473   -1.620917
    118          1           0        9.676884    0.521174   -2.347891
    119          1           0       10.729682   -0.226315   -1.306594
    120          1           0       11.897852    2.162424   -2.789600
    121          1           0       11.479111    0.722359   -3.673525
    122          1           0       13.479890   -0.208992   -3.173727
    123          1           0       12.938564   -0.523717   -1.516925
    124          1           0       13.812787    2.203973   -1.537429
    125          1           0       16.094972    0.967728   -2.973480
    126          1           0       15.586728    2.575854   -3.146724
    127          1           0       14.692958    1.499370   -3.943756
    128          1           0       15.976114    0.895185   -0.751671
    129          1           0       15.007156   -0.484576   -0.663200
    130          1           0       13.413194    1.572657    0.654479
    131          1           0       15.063070    2.017560    1.016583
    132          1           0       15.217175    0.128293    2.355247
    133          1           0       14.421082   -0.956752    1.293370
    134          1           0       12.599362    1.107178    2.448506
    135          1           0       13.001153    0.768769    4.615502
    136          1           0       14.242781   -0.369798    4.300222
    137          1           0       12.557270   -1.010435    4.338197
    138          1           0       12.121681   -1.794099    2.273923
    139          1           0       12.013430   -0.667894    0.834597
    140          1           0       11.025184   -0.251875    2.181309
 ---------------------------------------------------------------------

 SCF Done:  E(RZINDO/S) =  -474.708534416     A.U. after   20 cycles

 Excitation energies and oscillator strengths:

 Excited State   1:      Singlet-A      1.2068 eV 1027.37 nm  f=0.5880  <S**2>=0.000
     175 ->178        -0.18105
     176 ->177         0.66390
 This state for optimization and/or second-order correction.
 Total Energy, E(CIS/TDA) =  -474.664185076
 Copying the excited state density for this state as the 1-particle RhoCI density.

 Excited State   2:      Singlet-A      1.9056 eV  650.63 nm  f=0.0374  <S**2>=0.000
     175 ->177         0.54135
     176 ->178         0.42001
     176 ->179        -0.10311

 Excited State   3:      Singlet-A      2.8828 eV  430.09 nm  f=0.2377  <S**2>=0.000
     175 ->177        -0.21525
     176 ->178         0.40466
     176 ->179         0.48912

 Excited State   4:      Singlet-A      2.9357 eV  422.33 nm  f=0.0040  <S**2>=0.000
     168 ->177         0.20105
     168 ->179        -0.21174
     168 ->180        -0.29170
     168 ->182         0.21114
     168 ->185        -0.13844
     168 ->187         0.12637
     169 ->177         0.17014
     169 ->179        -0.15397
     169 ->180        -0.22843
     169 ->182         0.17208
     169 ->185        -0.10157
     169 ->187         0.10141

 Excited State   5:      Singlet-A      2.9694 eV  417.53 nm  f=0.0007  <S**2>=0.000
     168 ->177         0.20687
     168 ->178         0.14768
     168 ->179         0.24595
     168 ->182         0.15612
     168 ->185         0.13554
     169 ->177        -0.24996
     169 ->178        -0.18035
     169 ->179        -0.31748
     169 ->182        -0.18257
     169 ->185        -0.17606

 The electronic state is 1-A.
 Alpha  occ. eigenvalues --   -1.89068  -1.83904  -1.81656  -1.73925  -1.72770
 Alpha  occ. eigenvalues --   -1.71563  -1.67256  -1.62304  -1.59821  -1.58944
 Alpha  occ. eigenvalues --   -1.54967  -1.52620  -1.50580  -1.49314  -1.46886
 Alpha  occ. eigenvalues --   -1.44243  -1.43432  -1.41001  -1.39289  -1.38101
 Alpha  occ. eigenvalues --   -1.36976  -1.35918  -1.33322  -1.32459  -1.29865
 Alpha  occ. eigenvalues --   -1.26472  -1.24742  -1.22275  -1.20988  -1.18772
 Alpha  occ. eigenvalues --   -1.17494  -1.16742  -1.15009  -1.13163  -1.12829
 Alpha  occ. eigenvalues --   -1.12140  -1.11490  -1.10566  -1.06307  -1.04741
 Alpha  occ. eigenvalues --   -1.03553  -1.02457  -1.00314  -0.98794  -0.98268
 Alpha  occ. eigenvalues --   -0.96698  -0.94693  -0.94079  -0.93455  -0.92791
 Alpha  occ. eigenvalues --   -0.90756  -0.90464  -0.87776  -0.86587  -0.85903
 Alpha  occ. eigenvalues --   -0.84707  -0.84612  -0.82923  -0.81941  -0.80807
 Alpha  occ. eigenvalues --   -0.79606  -0.78746  -0.77908  -0.76472  -0.76129
 Alpha  occ. eigenvalues --   -0.75705  -0.75663  -0.74925  -0.74373  -0.74233
 Alpha  occ. eigenvalues --   -0.73745  -0.72561  -0.72471  -0.72054  -0.71327
 Alpha  occ. eigenvalues --   -0.70613  -0.69782  -0.68830  -0.68528  -0.68427
 Alpha  occ. eigenvalues --   -0.68096  -0.67583  -0.66925  -0.66266  -0.65910
 Alpha  occ. eigenvalues --   -0.65232  -0.64613  -0.64360  -0.63241  -0.63083
 Alpha  occ. eigenvalues --   -0.62953  -0.62867  -0.62615  -0.62123  -0.61733
 Alpha  occ. eigenvalues --   -0.61512  -0.61166  -0.60921  -0.60303  -0.60032
 Alpha  occ. eigenvalues --   -0.59567  -0.59333  -0.58719  -0.58386  -0.57821
 Alpha  occ. eigenvalues --   -0.57456  -0.57099  -0.56476  -0.56171  -0.56068
 Alpha  occ. eigenvalues --   -0.55938  -0.55403  -0.54940  -0.54466  -0.54275
 Alpha  occ. eigenvalues --   -0.53764  -0.53681  -0.53130  -0.52910  -0.52559
 Alpha  occ. eigenvalues --   -0.52446  -0.52354  -0.51516  -0.51489  -0.51347
 Alpha  occ. eigenvalues --   -0.50964  -0.50802  -0.50527  -0.50271  -0.50221
 Alpha  occ. eigenvalues --   -0.50032  -0.49981  -0.49916  -0.49501  -0.48940
 Alpha  occ. eigenvalues --   -0.48772  -0.48474  -0.48232  -0.47699  -0.47616
 Alpha  occ. eigenvalues --   -0.47308  -0.47226  -0.46787  -0.46422  -0.46352
 Alpha  occ. eigenvalues --   -0.45793  -0.45666  -0.45392  -0.45016  -0.44820
 Alpha  occ. eigenvalues --   -0.44524  -0.44243  -0.44082  -0.43939  -0.43552
 Alpha  occ. eigenvalues --   -0.43401  -0.43063  -0.42767  -0.42068  -0.41915
 Alpha  occ. eigenvalues --   -0.41618  -0.41299  -0.41080  -0.39295  -0.38630
 Alpha  occ. eigenvalues --   -0.38468  -0.37222  -0.35046  -0.34947  -0.34516
 Alpha  occ. eigenvalues --   -0.33603  -0.32961  -0.32468  -0.32114  -0.26467
 Alpha  occ. eigenvalues --   -0.21392
 Alpha virt. eigenvalues --   -0.08283  -0.01836  -0.00598   0.01026   0.01493
 Alpha virt. eigenvalues --    0.01927   0.03000   0.03191   0.04992   0.05366
 Alpha virt. eigenvalues --    0.06390   0.07337   0.07708   0.08107   0.08651

 Mulliken charges:
               1
     1  Mg   0.429290
     2  C   -0.047238
     3  C   -0.089638
     4  C   -0.068830
     5  C   -0.085855
     6  N   -0.283879
     7  C    0.099000
     8  C   -0.009872
     9  C    0.001417
    10  C    0.163048
    11  C   -0.044346
    12  C   -0.004241
    13  C    0.004502
    14  C    0.467846
    15  O   -0.499688
    16  O   -0.270350
    17  N   -0.319638
    18  C    0.105967
    19  C    0.016376
    20  C   -0.037288
    21  C    0.132849
    22  C   -0.055820
    23  C    0.329097
    24  O   -0.533475
    25  C   -0.026271
    26  N   -0.269392
    27  C    0.149743
    28  C    0.009952
    29  C    0.000154
    30  C    0.111587
    31  C   -0.046470
    32  C   -0.029295
    33  C   -0.054978
    34  N   -0.314532
    35  C    0.096976
    36  C    0.047382
    37  C   -0.054582
    38  C    0.128743
    39  C   -0.039644
    40  C    0.326281
    41  O   -0.531002
    42  C    0.053825
    43  C    0.493133
    44  O   -0.527230
    45  O   -0.256238
    46  C    0.072793
    47  C    0.107891
    48  C   -0.081063
    49  C   -0.012513
    50  C   -0.041032
    51  C   -0.037907
    52  C   -0.043913
    53  C   -0.032520
    54  C    0.005437
    55  C   -0.057527
    56  C   -0.036395
    57  C   -0.046517
    58  C   -0.032200
    59  C    0.000576
    60  C   -0.079007
    61  C   -0.031062
    62  C   -0.039737
    63  C   -0.032642
    64  C   -0.026170
    65  C   -0.065586
    66  C   -0.065528
    67  H    0.016577
    68  H    0.042881
    69  H    0.024842
    70  H    0.042306
    71  H    0.033537
    72  H    0.008535
    73  H    0.032306
    74  H    0.029118
    75  H    0.028340
    76  H    0.029351
    77  H    0.046130
    78  H    0.027330
    79  H    0.014512
    80  H    0.032281
    81  H    0.034497
    82  H    0.032949
    83  H    0.043276
    84  H    0.037913
    85  H    0.033726
    86  H    0.039978
    87  H    0.030947
    88  H    0.017424
    89  H    0.013720
    90  H    0.018944
    91  H    0.015504
    92  H    0.026367
    93  H    0.019771
    94  H    0.016198
    95  H    0.027209
    96  H    0.028251
    97  H    0.041226
    98  H    0.057455
    99  H    0.054679
   100  H    0.033354
   101  H    0.036176
   102  H    0.056306
   103  H    0.053341
   104  H    0.017171
   105  H    0.017246
   106  H    0.036877
   107  H    0.026046
   108  H    0.014133
   109  H    0.025636
   110  H    0.013638
   111  H    0.026296
   112  H    0.016128
   113  H    0.018553
   114  H    0.010731
   115  H    0.010399
   116  H    0.027763
   117  H    0.026405
   118  H    0.011147
   119  H    0.013083
   120  H    0.030150
   121  H    0.011031
   122  H    0.020502
   123  H    0.029786
   124  H    0.025673
   125  H    0.018017
   126  H    0.018217
   127  H    0.006976
   128  H    0.005508
   129  H    0.027205
   130  H    0.020540
   131  H    0.025058
   132  H    0.008778
   133  H    0.021214
   134  H    0.013409
   135  H    0.021041
   136  H    0.017142
   137  H    0.027785
   138  H    0.032017
   139  H    0.015053
   140  H    0.023635
 Sum of Mulliken charges =  -0.00000

 Dipole moment (field-independent basis, Debye):
    X=              3.6443    Y=              4.9530    Z=             -0.2182  Tot=              6.1531
 N-N= 4.263958890483D+03 E-N= 0.000000000000D+00  KE=-9.202657893651D+03
 Leave Link  601 at Sat Apr 30 03:29:27 2022, MaxMem=  6710886400 cpu:               2.9 elap:               0.1
 (Enter /sw/apps/gaussian-16.0/g16/l9999.exe)
 1\1\GINC-BP1-COMPUTE150\SP\RZINDO CIS\STO-3G\C55H74Mg1N4O6\OF15641\30-
 Apr-2022\0\\#p ZINDO=(nstates=5)\\step_551_chromophore_13 ZINDO\\0,1\M
 g,0,46.211,24.673,28.199\C,0,47.021,26.886,30.823\C,0,45.479,22.318,30
 .566\C,0,45.917,22.589,25.699\C,0,47.38,27.188,26.107\N,0,45.978,24.63
 6,30.431\C,0,46.464,25.652,31.291\C,0,46.127,25.34,32.785\C,0,45.9,23.
 718,32.617\C,0,45.782,23.535,31.123\C,0,46.971,22.923,33.339\C,0,45.01
 1,26.15,33.397\C,0,45.395,26.622,34.746\C,0,44.362,27.128,35.767\O,0,4

 Normal termination of Gaussian 16 at Sat Apr 30 03:29:27 2022.
