 Gaussian 16, Revision A.03,
 Gaussian 16:  ES64L-G16RevA.03 25-Dec-2016

 ------------------------------
 #p blyp/Def2SVP td=(nstates=5)
 ------------------------------

 --------------------------------------------------
 step_1851_chromophore_4 TDDFT with blyp functional
 --------------------------------------------------
 Symbolic Z-matrix:
 Charge =  0 Multiplicity = 1

                         Standard orientation:
 ---------------------------------------------------------------------
 Center     Atomic      Atomic             Coordinates (Angstroms)
 Number     Number       Type             X           Y           Z
 ---------------------------------------------------------------------
      1         12           0        5.724545    0.579764    0.397172
      2          6           0        3.542380   -2.175099    0.274361
      3          6           0        3.223001    2.569321   -0.604527
      4          6           0        7.939780    3.055246   -0.159956
      5          6           0        8.467650   -1.713954    0.469595
      6          7           0        3.713944    0.150139   -0.346442
      7          6           0        2.921459   -0.957864   -0.136806
      8          6           0        1.394253   -0.615628   -0.383467
      9          6           0        1.454222    0.790178   -0.949802
     10          6           0        2.890290    1.199704   -0.709005
     11          6           0        0.925376    0.990821   -2.417610
     12          6           0        0.514831   -0.689375    1.030726
     13          6           0       -0.672496   -1.687677    0.942517
     14          6           0       -1.652349   -1.523040   -0.234715
     15          8           0       -2.001383   -0.444184   -0.670271
     16          8           0       -2.251925   -2.762128   -0.631205
     17          7           0        5.547305    2.618427   -0.078251
     18          6           0        4.387860    3.282765   -0.353679
     19          6           0        4.686397    4.700826   -0.371034
     20          6           0        6.073963    4.853795   -0.224754
     21          6           0        6.611963    3.471430   -0.200060
     22          6           0        3.636896    5.780046   -0.537823
     23          6           0        6.976358    6.059774   -0.336581
     24          8           0        8.178186    6.038416   -0.471522
     25          6           0        6.266246    7.451876   -0.176847
     26          7           0        7.974251    0.641900    0.206075
     27          6           0        8.576888    1.771387    0.008905
     28          6           0       10.109334    1.652272   -0.103812
     29          6           0       10.312071    0.069705    0.132128
     30          6           0        8.872758   -0.364348    0.225213
     31          6           0       10.724791    2.361563   -1.329815
     32          6           0       11.138868   -0.290445    1.476163
     33          6           0       12.139401   -1.397332    1.410946
     34          7           0        5.965532   -1.478430    0.481569
     35          6           0        7.125720   -2.242527    0.626102
     36          6           0        6.779913   -3.626367    0.886743
     37          6           0        5.393822   -3.651719    0.847505
     38          6           0        4.968564   -2.380792    0.474476
     39          6           0        7.752936   -4.723260    1.125134
     40          6           0        4.183762   -4.484186    0.976420
     41          8           0        3.944365   -5.686484    1.166566
     42          6           0        2.952739   -3.537197    0.533526
     43          6           0        2.291748   -4.094136   -0.686425
     44          8           0        2.646275   -3.857985   -1.840298
     45          8           0        1.162252   -4.826793   -0.247330
     46          6           0        0.131075   -5.094941   -1.274285
     47          6           0       -3.405081   -2.713462   -1.523381
     48          6           0       -4.606662   -2.437283   -0.582332
     49          6           0       -5.690016   -3.138740   -0.175661
     50          6           0       -5.966938   -4.592086   -0.592189
     51          6           0       -6.930771   -2.458068    0.421690
     52          6           0       -7.838627   -1.553180   -0.417185
     53          6           0       -7.354753   -0.066502   -0.405924
     54          6           0       -8.510237    1.034958   -0.275516
     55          6           0       -9.037885    1.559538   -1.708036
     56          6           0       -8.276126    2.201093    0.767059
     57          6           0       -9.305733    2.275455    1.980358
     58          6           0      -10.546197    3.114443    1.668066
     59          6           0      -11.921823    2.482469    1.884929
     60          6           0      -12.890116    3.454865    2.473526
     61          6           0      -12.314919    1.782227    0.632791
     62          6           0      -13.557297    0.865821    0.920374
     63          6           0      -14.826782    1.215631    0.089450
     64          6           0      -15.497662    0.008980   -0.521448
     65          6           0      -15.217951   -0.168569   -2.027482
     66          6           0      -16.987926    0.006927   -0.248671
     67          1           0        2.407229    3.281961   -0.745054
     68          1           0        8.731307    3.806303   -0.221433
     69          1           0        9.264573   -2.447223    0.329399
     70          1           0        1.120196   -1.307412   -1.179729
     71          1           0        0.953950    1.527871   -0.322221
     72          1           0        1.781444    0.966724   -3.090745
     73          1           0        0.329857    1.893234   -2.561063
     74          1           0        0.313338    0.127225   -2.676907
     75          1           0        0.182105    0.277699    1.407690
     76          1           0        1.177280   -1.185098    1.740232
     77          1           0       -1.250262   -1.448790    1.835985
     78          1           0       -0.252502   -2.692765    0.888539
     79          1           0        3.600885    6.465109    0.310000
     80          1           0        2.624756    5.377804   -0.596333
     81          1           0        3.735217    6.366089   -1.451118
     82          1           0        5.699282    7.307409    0.743225
     83          1           0        5.644548    7.468450   -1.071960
     84          1           0        7.104610    8.139407   -0.064595
     85          1           0       10.653969    2.167314    0.687697
     86          1           0       10.784905   -0.532784   -0.643200
     87          1           0       11.517873    3.084212   -1.136536
     88          1           0        9.968078    3.010701   -1.772089
     89          1           0       11.145412    1.630257   -2.019387
     90          1           0       10.391674   -0.363034    2.266806
     91          1           0       11.655490    0.616834    1.791225
     92          1           0       12.524510   -1.496495    0.396327
     93          1           0       11.559058   -2.235777    1.796224
     94          1           0       12.948190   -1.128327    2.090609
     95          1           0        8.719125   -4.703601    0.620866
     96          1           0        7.236132   -5.660719    0.918599
     97          1           0        8.098564   -4.623402    2.153602
     98          1           0        2.255232   -3.613948    1.367527
     99          1           0        0.431057   -4.805453   -2.281440
    100          1           0       -0.883221   -4.769219   -1.043351
    101          1           0        0.087447   -6.183429   -1.260847
    102          1           0       -3.599735   -3.622675   -2.092470
    103          1           0       -3.284165   -1.846966   -2.174970
    104          1           0       -4.776994   -1.371020   -0.430131
    105          1           0       -6.748861   -4.624445   -1.351418
    106          1           0       -6.393391   -5.050790    0.299705
    107          1           0       -5.074504   -5.032660   -1.036493
    108          1           0       -6.405913   -1.884633    1.186070
    109          1           0       -7.639611   -3.112168    0.929602
    110          1           0       -8.905061   -1.736498   -0.289012
    111          1           0       -7.645247   -1.839938   -1.451141
    112          1           0       -6.721148    0.136704   -1.269228
    113          1           0       -6.716367    0.107795    0.460021
    114          1           0       -9.316688    0.426220    0.132294
    115          1           0      -10.113886    1.434784   -1.826347
    116          1           0       -8.392348    1.215441   -2.516427
    117          1           0       -8.901505    2.640749   -1.750902
    118          1           0       -8.297589    3.126886    0.192858
    119          1           0       -7.280515    2.048402    1.182495
    120          1           0       -8.743140    2.630740    2.842898
    121          1           0       -9.663819    1.273734    2.219522
    122          1           0      -10.479732    3.561452    0.676008
    123          1           0      -10.452877    3.951059    2.360521
    124          1           0      -11.820603    1.700774    2.637762
    125          1           0      -12.486356    4.464537    2.550774
    126          1           0      -13.175493    3.189586    3.492284
    127          1           0      -13.834219    3.433508    1.929003
    128          1           0      -11.486817    1.096661    0.451641
    129          1           0      -12.462763    2.425710   -0.234850
    130          1           0      -13.803229    0.874407    1.981965
    131          1           0      -13.374148   -0.198410    0.769433
    132          1           0      -14.438010    1.861468   -0.697034
    133          1           0      -15.575488    1.767053    0.657286
    134          1           0      -15.167760   -0.893195   -0.007103
    135          1           0      -14.517823    0.517723   -2.503429
    136          1           0      -16.197314   -0.056313   -2.493029
    137          1           0      -14.786113   -1.153782   -2.204711
    138          1           0      -17.658416    0.073285   -1.105483
    139          1           0      -17.257249    0.817727    0.429169
    140          1           0      -17.344123   -0.950233    0.132837
 ---------------------------------------------------------------------

 SCF Done:  E(RB-LYP) =  -3007.34815623     A.U. after   21 cycles

 Excitation energies and oscillator strengths:

 Excited State   1:      Singlet-A      1.7972 eV  689.86 nm  f=0.2916  <S**2>=0.000
     245 -> 248       -0.20373
     246 -> 247        0.68395
     246 <- 247       -0.13887
 This state for optimization and/or second-order correction.
 Total Energy, E(TD-HF/TD-DFT) =  -3007.28210941
 Copying the excited state density for this state as the 1-particle RhoCI density.

 Excited State   2:      Singlet-A      1.9474 eV  636.67 nm  f=0.0649  <S**2>=0.000
     243 -> 247       -0.11093
     244 -> 247        0.12796
     245 -> 247        0.63920
     246 -> 248        0.22571

 Excited State   3:      Singlet-A      2.0341 eV  609.54 nm  f=0.0022  <S**2>=0.000
     243 -> 247        0.11248
     244 -> 247        0.68818

 Excited State   4:      Singlet-A      2.0584 eV  602.35 nm  f=0.0055  <S**2>=0.000
     243 -> 247        0.68826
     245 -> 247        0.11324

 Excited State   5:      Singlet-A      2.6155 eV  474.04 nm  f=0.0002  <S**2>=0.000
     240 -> 247       -0.23702
     242 -> 247        0.65380

 The electronic state is 1-A.
 Alpha  occ. eigenvalues --  -46.27961 -18.82145 -18.81385 -18.78277 -18.76937
 Alpha  occ. eigenvalues --  -18.76044 -18.75792 -14.03141 -14.02939 -14.00735
 Alpha  occ. eigenvalues --  -14.00626 -10.05133 -10.03649  -9.99998  -9.99881
 Alpha  occ. eigenvalues --   -9.98925  -9.96822  -9.96511  -9.96392  -9.96183
 Alpha  occ. eigenvalues --   -9.95994  -9.95627  -9.95482  -9.95321  -9.94802
 Alpha  occ. eigenvalues --   -9.94570  -9.94521  -9.94395  -9.94380  -9.94155
 Alpha  occ. eigenvalues --   -9.93951  -9.93711  -9.93516  -9.93410  -9.93342
 Alpha  occ. eigenvalues --   -9.93253  -9.93178  -9.92920  -9.92776  -9.92500
 Alpha  occ. eigenvalues --   -9.92480  -9.92377  -9.92347  -9.92216  -9.92191
 Alpha  occ. eigenvalues --   -9.92169  -9.92103  -9.92022  -9.91834  -9.91774
 Alpha  occ. eigenvalues --   -9.91766  -9.91739  -9.91658  -9.91452  -9.91419
 Alpha  occ. eigenvalues --   -9.91390  -9.91249  -9.91106  -9.91007  -9.91004
 Alpha  occ. eigenvalues --   -9.90956  -9.90660  -9.90540  -9.90475  -9.90384
 Alpha  occ. eigenvalues --   -9.90339  -2.92461  -1.72861  -1.72371  -1.72160
 Alpha  occ. eigenvalues --   -0.97285  -0.95539  -0.92438  -0.90650  -0.90208
 Alpha  occ. eigenvalues --   -0.89141  -0.87565  -0.85900  -0.85581  -0.84710
 Alpha  occ. eigenvalues --   -0.74258  -0.73872  -0.73293  -0.72167  -0.72027
 Alpha  occ. eigenvalues --   -0.71965  -0.71342  -0.70696  -0.70465  -0.70265
 Alpha  occ. eigenvalues --   -0.70031  -0.69132  -0.67906  -0.67564  -0.66532
 Alpha  occ. eigenvalues --   -0.66105  -0.65574  -0.64933  -0.64517  -0.63958
 Alpha  occ. eigenvalues --   -0.63804  -0.62456  -0.61969  -0.61833  -0.60332
 Alpha  occ. eigenvalues --   -0.60282  -0.60087  -0.60043  -0.59572  -0.59095
 Alpha  occ. eigenvalues --   -0.58653  -0.57387  -0.56573  -0.55886  -0.54179
 Alpha  occ. eigenvalues --   -0.54015  -0.53839  -0.52735  -0.52528  -0.51703
 Alpha  occ. eigenvalues --   -0.51205  -0.51077  -0.50285  -0.50087  -0.49804
 Alpha  occ. eigenvalues --   -0.49284  -0.49198  -0.48792  -0.47368  -0.46230
 Alpha  occ. eigenvalues --   -0.45894  -0.45632  -0.45271  -0.44742  -0.44379
 Alpha  occ. eigenvalues --   -0.43826  -0.43537  -0.43232  -0.43014  -0.42005
 Alpha  occ. eigenvalues --   -0.41428  -0.41382  -0.41049  -0.41027  -0.40857
 Alpha  occ. eigenvalues --   -0.40563  -0.40434  -0.40171  -0.40134  -0.40022
 Alpha  occ. eigenvalues --   -0.39809  -0.39725  -0.39580  -0.39431  -0.39068
 Alpha  occ. eigenvalues --   -0.38864  -0.38705  -0.38589  -0.38339  -0.38258
 Alpha  occ. eigenvalues --   -0.37932  -0.37794  -0.37575  -0.37468  -0.37262
 Alpha  occ. eigenvalues --   -0.36950  -0.36888  -0.36538  -0.36444  -0.36346
 Alpha  occ. eigenvalues --   -0.36180  -0.35969  -0.35834  -0.35461  -0.35332
 Alpha  occ. eigenvalues --   -0.35234  -0.35204  -0.34916  -0.34781  -0.34710
 Alpha  occ. eigenvalues --   -0.34472  -0.34311  -0.34086  -0.34020  -0.33846
 Alpha  occ. eigenvalues --   -0.33707  -0.33360  -0.33318  -0.33134  -0.33067
 Alpha  occ. eigenvalues --   -0.32865  -0.32675  -0.32605  -0.32530  -0.32344
 Alpha  occ. eigenvalues --   -0.32274  -0.31981  -0.31706  -0.31410  -0.31240
 Alpha  occ. eigenvalues --   -0.31135  -0.31075  -0.30901  -0.30830  -0.30733
 Alpha  occ. eigenvalues --   -0.30581  -0.30556  -0.30147  -0.29947  -0.29840
 Alpha  occ. eigenvalues --   -0.29493  -0.29197  -0.29101  -0.29053  -0.28871
 Alpha  occ. eigenvalues --   -0.28351  -0.28331  -0.28140  -0.27999  -0.27782
 Alpha  occ. eigenvalues --   -0.27663  -0.27244  -0.26718  -0.26461  -0.26448
 Alpha  occ. eigenvalues --   -0.25962  -0.25906  -0.25717  -0.25631  -0.25456
 Alpha  occ. eigenvalues --   -0.25068  -0.24417  -0.24175  -0.23999  -0.23842
 Alpha  occ. eigenvalues --   -0.23388  -0.22863  -0.22009  -0.21707  -0.20857
 Alpha  occ. eigenvalues --   -0.20775  -0.20267  -0.18626  -0.18540  -0.16723
 Alpha  occ. eigenvalues --   -0.15557
 Alpha virt. eigenvalues --   -0.11181  -0.06799  -0.06101  -0.04544  -0.04205
 Alpha virt. eigenvalues --   -0.03699  -0.03092  -0.02765  -0.01458   0.00226
 Alpha virt. eigenvalues --    0.01077   0.02294   0.02466   0.02739   0.03008

 Mulliken charges:
               1
     1  Mg   0.704556
     2  C    0.051829
     3  C   -0.060725
     4  C   -0.044606
     5  C   -0.069767
     6  N   -0.231836
     7  C   -0.092955
     8  C    0.069127
     9  C   -0.022203
    10  C    0.060795
    11  C    0.149794
    12  C    0.122033
    13  C    0.095805
    14  C    0.101825
    15  O   -0.181075
    16  O   -0.300859
    17  N   -0.299661
    18  C    0.102887
    19  C   -0.092488
    20  C    0.031975
    21  C    0.111508
    22  C    0.151928
    23  C   -0.103346
    24  O   -0.143378
    25  C    0.123267
    26  N   -0.136138
    27  C   -0.031824
    28  C    0.025010
    29  C    0.033708
    30  C   -0.033751
    31  C    0.111134
    32  C    0.050507
    33  C    0.104523
    34  N   -0.253021
    35  C    0.121467
    36  C   -0.191378
    37  C    0.118888
    38  C    0.023286
    39  C    0.176346
    40  C   -0.043727
    41  O   -0.142444
    42  C    0.014550
    43  C    0.148156
    44  O   -0.175718
    45  O   -0.299277
    46  C    0.193975
    47  C    0.353394
    48  C   -0.125071
    49  C   -0.157769
    50  C    0.134114
    51  C    0.098549
    52  C    0.106286
    53  C    0.062462
    54  C   -0.093355
    55  C    0.094868
    56  C    0.102474
    57  C    0.068591
    58  C    0.124596
    59  C   -0.101239
    60  C    0.137144
    61  C    0.131863
    62  C    0.054782
    63  C    0.121961
    64  C   -0.094649
    65  C    0.113322
    66  C    0.088985
    67  H   -0.078317
    68  H   -0.042760
    69  H   -0.061211
    70  H   -0.014085
    71  H   -0.023420
    72  H   -0.007977
    73  H   -0.001129
    74  H   -0.008849
    75  H    0.001292
    76  H   -0.010505
    77  H    0.015816
    78  H    0.011661
    79  H    0.002990
    80  H   -0.024848
    81  H    0.007282
    82  H    0.007175
    83  H    0.012839
    84  H    0.002153
    85  H   -0.012310
    86  H   -0.025461
    87  H   -0.017349
    88  H    0.002580
    89  H   -0.010214
    90  H   -0.026482
    91  H   -0.035206
    92  H   -0.001191
    93  H    0.004201
    94  H   -0.006184
    95  H   -0.014239
    96  H    0.018365
    97  H   -0.005462
    98  H   -0.002970
    99  H    0.017173
   100  H    0.024946
   101  H    0.002116
   102  H   -0.001743
   103  H   -0.007049
   104  H   -0.020880
   105  H   -0.000566
   106  H   -0.004531
   107  H   -0.009577
   108  H   -0.015610
   109  H   -0.039743
   110  H   -0.017672
   111  H   -0.035111
   112  H   -0.015986
   113  H   -0.029426
   114  H   -0.022533
   115  H   -0.003478
   116  H   -0.015463
   117  H   -0.031607
   118  H   -0.028638
   119  H   -0.041849
   120  H   -0.029121
   121  H   -0.032995
   122  H   -0.035591
   123  H   -0.051544
   124  H   -0.045353
   125  H   -0.018783
   126  H   -0.026777
   127  H   -0.023949
   128  H   -0.041566
   129  H   -0.021285
   130  H   -0.036773
   131  H   -0.041667
   132  H   -0.040809
   133  H   -0.030231
   134  H   -0.029787
   135  H   -0.016750
   136  H   -0.018209
   137  H   -0.016549
   138  H   -0.027637
   139  H   -0.019764
   140  H   -0.023823
 Sum of Mulliken charges =  -0.00000

 Dipole moment (field-independent basis, Debye):
    X=             -2.7912    Y=              2.3709    Z=              1.8204  Tot=              4.0897
 Quadrupole moment (field-independent basis, Debye-Ang):
   XX=           -371.1464   YY=           -433.4917   ZZ=           -403.9713
   XY=              8.2071   XZ=             13.0724   YZ=              7.5612

 Normal termination of Gaussian 16 at Wed May  4 16:20:28 2022.
