 Gaussian 16, Revision A.03,
 Gaussian 16:  ES64L-G16RevA.03 25-Dec-2016

 -----------------------------------
 #p cam-b3lyp/Def2SVP td=(nstates=5)
 -----------------------------------

 -------------------------------------------------------
 step_1851_chromophore_4 TDDFT with cam-b3lyp functional
 -------------------------------------------------------
 Symbolic Z-matrix:
 Charge =  0 Multiplicity = 1

                         Standard orientation:
 ---------------------------------------------------------------------
 Center     Atomic      Atomic             Coordinates (Angstroms)
 Number     Number       Type             X           Y           Z
 ---------------------------------------------------------------------
      1         12           0        5.724545    0.579764    0.397172
      2          6           0        3.542380   -2.175099    0.274361
      3          6           0        3.223001    2.569321   -0.604527
      4          6           0        7.939780    3.055246   -0.159956
      5          6           0        8.467650   -1.713954    0.469595
      6          7           0        3.713944    0.150139   -0.346442
      7          6           0        2.921459   -0.957864   -0.136806
      8          6           0        1.394253   -0.615628   -0.383467
      9          6           0        1.454222    0.790178   -0.949802
     10          6           0        2.890290    1.199704   -0.709005
     11          6           0        0.925376    0.990821   -2.417610
     12          6           0        0.514831   -0.689375    1.030726
     13          6           0       -0.672496   -1.687677    0.942517
     14          6           0       -1.652349   -1.523040   -0.234715
     15          8           0       -2.001383   -0.444184   -0.670271
     16          8           0       -2.251925   -2.762128   -0.631205
     17          7           0        5.547305    2.618427   -0.078251
     18          6           0        4.387860    3.282765   -0.353679
     19          6           0        4.686397    4.700826   -0.371034
     20          6           0        6.073963    4.853795   -0.224754
     21          6           0        6.611963    3.471430   -0.200060
     22          6           0        3.636896    5.780046   -0.537823
     23          6           0        6.976358    6.059774   -0.336581
     24          8           0        8.178186    6.038416   -0.471522
     25          6           0        6.266246    7.451876   -0.176847
     26          7           0        7.974251    0.641900    0.206075
     27          6           0        8.576888    1.771387    0.008905
     28          6           0       10.109334    1.652272   -0.103812
     29          6           0       10.312071    0.069705    0.132128
     30          6           0        8.872758   -0.364348    0.225213
     31          6           0       10.724791    2.361563   -1.329815
     32          6           0       11.138868   -0.290445    1.476163
     33          6           0       12.139401   -1.397332    1.410946
     34          7           0        5.965532   -1.478430    0.481569
     35          6           0        7.125720   -2.242527    0.626102
     36          6           0        6.779913   -3.626367    0.886743
     37          6           0        5.393822   -3.651719    0.847505
     38          6           0        4.968564   -2.380792    0.474476
     39          6           0        7.752936   -4.723260    1.125134
     40          6           0        4.183762   -4.484186    0.976420
     41          8           0        3.944365   -5.686484    1.166566
     42          6           0        2.952739   -3.537197    0.533526
     43          6           0        2.291748   -4.094136   -0.686425
     44          8           0        2.646275   -3.857985   -1.840298
     45          8           0        1.162252   -4.826793   -0.247330
     46          6           0        0.131075   -5.094941   -1.274285
     47          6           0       -3.405081   -2.713462   -1.523381
     48          6           0       -4.606662   -2.437283   -0.582332
     49          6           0       -5.690016   -3.138740   -0.175661
     50          6           0       -5.966938   -4.592086   -0.592189
     51          6           0       -6.930771   -2.458068    0.421690
     52          6           0       -7.838627   -1.553180   -0.417185
     53          6           0       -7.354753   -0.066502   -0.405924
     54          6           0       -8.510237    1.034958   -0.275516
     55          6           0       -9.037885    1.559538   -1.708036
     56          6           0       -8.276126    2.201093    0.767059
     57          6           0       -9.305733    2.275455    1.980358
     58          6           0      -10.546197    3.114443    1.668066
     59          6           0      -11.921823    2.482469    1.884929
     60          6           0      -12.890116    3.454865    2.473526
     61          6           0      -12.314919    1.782227    0.632791
     62          6           0      -13.557297    0.865821    0.920374
     63          6           0      -14.826782    1.215631    0.089450
     64          6           0      -15.497662    0.008980   -0.521448
     65          6           0      -15.217951   -0.168569   -2.027482
     66          6           0      -16.987926    0.006927   -0.248671
     67          1           0        2.407229    3.281961   -0.745054
     68          1           0        8.731307    3.806303   -0.221433
     69          1           0        9.264573   -2.447223    0.329399
     70          1           0        1.120196   -1.307412   -1.179729
     71          1           0        0.953950    1.527871   -0.322221
     72          1           0        1.781444    0.966724   -3.090745
     73          1           0        0.329857    1.893234   -2.561063
     74          1           0        0.313338    0.127225   -2.676907
     75          1           0        0.182105    0.277699    1.407690
     76          1           0        1.177280   -1.185098    1.740232
     77          1           0       -1.250262   -1.448790    1.835985
     78          1           0       -0.252502   -2.692765    0.888539
     79          1           0        3.600885    6.465109    0.310000
     80          1           0        2.624756    5.377804   -0.596333
     81          1           0        3.735217    6.366089   -1.451118
     82          1           0        5.699282    7.307409    0.743225
     83          1           0        5.644548    7.468450   -1.071960
     84          1           0        7.104610    8.139407   -0.064595
     85          1           0       10.653969    2.167314    0.687697
     86          1           0       10.784905   -0.532784   -0.643200
     87          1           0       11.517873    3.084212   -1.136536
     88          1           0        9.968078    3.010701   -1.772089
     89          1           0       11.145412    1.630257   -2.019387
     90          1           0       10.391674   -0.363034    2.266806
     91          1           0       11.655490    0.616834    1.791225
     92          1           0       12.524510   -1.496495    0.396327
     93          1           0       11.559058   -2.235777    1.796224
     94          1           0       12.948190   -1.128327    2.090609
     95          1           0        8.719125   -4.703601    0.620866
     96          1           0        7.236132   -5.660719    0.918599
     97          1           0        8.098564   -4.623402    2.153602
     98          1           0        2.255232   -3.613948    1.367527
     99          1           0        0.431057   -4.805453   -2.281440
    100          1           0       -0.883221   -4.769219   -1.043351
    101          1           0        0.087447   -6.183429   -1.260847
    102          1           0       -3.599735   -3.622675   -2.092470
    103          1           0       -3.284165   -1.846966   -2.174970
    104          1           0       -4.776994   -1.371020   -0.430131
    105          1           0       -6.748861   -4.624445   -1.351418
    106          1           0       -6.393391   -5.050790    0.299705
    107          1           0       -5.074504   -5.032660   -1.036493
    108          1           0       -6.405913   -1.884633    1.186070
    109          1           0       -7.639611   -3.112168    0.929602
    110          1           0       -8.905061   -1.736498   -0.289012
    111          1           0       -7.645247   -1.839938   -1.451141
    112          1           0       -6.721148    0.136704   -1.269228
    113          1           0       -6.716367    0.107795    0.460021
    114          1           0       -9.316688    0.426220    0.132294
    115          1           0      -10.113886    1.434784   -1.826347
    116          1           0       -8.392348    1.215441   -2.516427
    117          1           0       -8.901505    2.640749   -1.750902
    118          1           0       -8.297589    3.126886    0.192858
    119          1           0       -7.280515    2.048402    1.182495
    120          1           0       -8.743140    2.630740    2.842898
    121          1           0       -9.663819    1.273734    2.219522
    122          1           0      -10.479732    3.561452    0.676008
    123          1           0      -10.452877    3.951059    2.360521
    124          1           0      -11.820603    1.700774    2.637762
    125          1           0      -12.486356    4.464537    2.550774
    126          1           0      -13.175493    3.189586    3.492284
    127          1           0      -13.834219    3.433508    1.929003
    128          1           0      -11.486817    1.096661    0.451641
    129          1           0      -12.462763    2.425710   -0.234850
    130          1           0      -13.803229    0.874407    1.981965
    131          1           0      -13.374148   -0.198410    0.769433
    132          1           0      -14.438010    1.861468   -0.697034
    133          1           0      -15.575488    1.767053    0.657286
    134          1           0      -15.167760   -0.893195   -0.007103
    135          1           0      -14.517823    0.517723   -2.503429
    136          1           0      -16.197314   -0.056313   -2.493029
    137          1           0      -14.786113   -1.153782   -2.204711
    138          1           0      -17.658416    0.073285   -1.105483
    139          1           0      -17.257249    0.817727    0.429169
    140          1           0      -17.344123   -0.950233    0.132837
 ---------------------------------------------------------------------

 SCF Done:  E(RCAM-B3LYP) =  -3007.13014560     A.U. after   19 cycles

 Excitation energies and oscillator strengths:

 Excited State   1:      Singlet-A      1.7444 eV  710.77 nm  f=0.3640  <S**2>=0.000
     245 -> 248       -0.19146
     246 -> 247        0.68120
     245 <- 248       -0.10678
 This state for optimization and/or second-order correction.
 Total Energy, E(TD-HF/TD-DFT) =  -3007.06604150
 Copying the excited state density for this state as the 1-particle RhoCI density.

 Excited State   2:      Singlet-A      2.1881 eV  566.62 nm  f=0.1022  <S**2>=0.000
     245 -> 247        0.63860
     246 -> 248        0.29030

 Excited State   3:      Singlet-A      3.4380 eV  360.63 nm  f=0.4796  <S**2>=0.000
     239 -> 247       -0.14709
     240 -> 247        0.12221
     243 -> 247       -0.26714
     244 -> 247        0.16600
     245 -> 247       -0.22560
     246 -> 248        0.54838

 Excited State   4:      Singlet-A      3.4975 eV  354.50 nm  f=0.0728  <S**2>=0.000
     244 -> 247        0.61157
     246 -> 248       -0.22220

 Excited State   5:      Singlet-A      3.5858 eV  345.77 nm  f=0.0971  <S**2>=0.000
     240 -> 247        0.49015
     240 -> 249       -0.22285
     240 -> 251        0.17503
     242 -> 249       -0.10487
     243 -> 247       -0.21979
     246 -> 248       -0.16067

 The electronic state is 1-A.
 Alpha  occ. eigenvalues --  -46.89526 -19.24936 -19.24188 -19.21322 -19.19950
 Alpha  occ. eigenvalues --  -19.19684 -19.18638 -14.41944 -14.41849 -14.39320
 Alpha  occ. eigenvalues --  -14.38783 -10.40579 -10.39108 -10.35511 -10.35160
 Alpha  occ. eigenvalues --  -10.33042 -10.31354 -10.31149 -10.30851 -10.30382
 Alpha  occ. eigenvalues --  -10.30304 -10.30289 -10.30005 -10.29561 -10.29002
 Alpha  occ. eigenvalues --  -10.28916 -10.28550 -10.28491 -10.28281 -10.28009
 Alpha  occ. eigenvalues --  -10.27957 -10.27844 -10.27718 -10.27634 -10.27554
 Alpha  occ. eigenvalues --  -10.27426 -10.27343 -10.27164 -10.26995 -10.26607
 Alpha  occ. eigenvalues --  -10.26255 -10.26214 -10.26099 -10.26075 -10.25967
 Alpha  occ. eigenvalues --  -10.25884 -10.25827 -10.25798 -10.25744 -10.25572
 Alpha  occ. eigenvalues --  -10.25536 -10.25462 -10.25387 -10.25152 -10.25129
 Alpha  occ. eigenvalues --  -10.25016 -10.24857 -10.24761 -10.24665 -10.24641
 Alpha  occ. eigenvalues --  -10.24617 -10.24230 -10.24179 -10.24105 -10.23938
 Alpha  occ. eigenvalues --  -10.23917  -3.17920  -1.92800  -1.92388  -1.92209
 Alpha  occ. eigenvalues --   -1.15728  -1.13929  -1.11292  -1.08451  -1.08257
 Alpha  occ. eigenvalues --   -1.06923  -1.05332  -1.03617  -1.03129  -1.02198
 Alpha  occ. eigenvalues --   -0.91112  -0.90734  -0.90097  -0.88877  -0.88706
 Alpha  occ. eigenvalues --   -0.88628  -0.88098  -0.87630  -0.87057  -0.86864
 Alpha  occ. eigenvalues --   -0.86294  -0.85544  -0.84127  -0.83631  -0.82666
 Alpha  occ. eigenvalues --   -0.82140  -0.81716  -0.80923  -0.80525  -0.79713
 Alpha  occ. eigenvalues --   -0.79519  -0.78416  -0.77493  -0.77302  -0.75652
 Alpha  occ. eigenvalues --   -0.75621  -0.75395  -0.75381  -0.74795  -0.74319
 Alpha  occ. eigenvalues --   -0.73759  -0.72287  -0.71482  -0.70677  -0.68842
 Alpha  occ. eigenvalues --   -0.68639  -0.68418  -0.67096  -0.66985  -0.65761
 Alpha  occ. eigenvalues --   -0.65420  -0.65257  -0.64330  -0.63982  -0.63826
 Alpha  occ. eigenvalues --   -0.63186  -0.62889  -0.62696  -0.60925  -0.60058
 Alpha  occ. eigenvalues --   -0.59477  -0.59085  -0.58660  -0.58072  -0.57764
 Alpha  occ. eigenvalues --   -0.57245  -0.56901  -0.56393  -0.56227  -0.55257
 Alpha  occ. eigenvalues --   -0.54370  -0.54232  -0.53948  -0.53805  -0.53581
 Alpha  occ. eigenvalues --   -0.53397  -0.53373  -0.53224  -0.53103  -0.52762
 Alpha  occ. eigenvalues --   -0.52563  -0.52375  -0.52100  -0.52079  -0.51951
 Alpha  occ. eigenvalues --   -0.51320  -0.51216  -0.51076  -0.50782  -0.50636
 Alpha  occ. eigenvalues --   -0.50400  -0.50248  -0.50002  -0.49996  -0.49401
 Alpha  occ. eigenvalues --   -0.49221  -0.49105  -0.49052  -0.48886  -0.48598
 Alpha  occ. eigenvalues --   -0.48499  -0.48219  -0.48097  -0.47922  -0.47723
 Alpha  occ. eigenvalues --   -0.47511  -0.47163  -0.46722  -0.46623  -0.46557
 Alpha  occ. eigenvalues --   -0.46331  -0.46166  -0.46000  -0.45728  -0.45542
 Alpha  occ. eigenvalues --   -0.45369  -0.45130  -0.44938  -0.44887  -0.44742
 Alpha  occ. eigenvalues --   -0.44622  -0.44392  -0.44331  -0.44153  -0.44042
 Alpha  occ. eigenvalues --   -0.43851  -0.43619  -0.43338  -0.43137  -0.43003
 Alpha  occ. eigenvalues --   -0.42711  -0.42496  -0.42390  -0.42387  -0.42137
 Alpha  occ. eigenvalues --   -0.41837  -0.41820  -0.41596  -0.41441  -0.41236
 Alpha  occ. eigenvalues --   -0.41090  -0.40592  -0.40317  -0.39959  -0.39952
 Alpha  occ. eigenvalues --   -0.39350  -0.39338  -0.39160  -0.39044  -0.38732
 Alpha  occ. eigenvalues --   -0.38700  -0.38198  -0.37841  -0.37456  -0.37237
 Alpha  occ. eigenvalues --   -0.36832  -0.36733  -0.36402  -0.36313  -0.36061
 Alpha  occ. eigenvalues --   -0.35836  -0.35530  -0.34979  -0.34726  -0.34610
 Alpha  occ. eigenvalues --   -0.34444  -0.34068  -0.32725  -0.31427  -0.30911
 Alpha  occ. eigenvalues --   -0.30478  -0.30330  -0.29934  -0.29238  -0.23450
 Alpha  occ. eigenvalues --   -0.20869
 Alpha virt. eigenvalues --   -0.08158  -0.01694   0.00304   0.01450   0.02470
 Alpha virt. eigenvalues --    0.03492   0.04489   0.05028   0.05968   0.07241
 Alpha virt. eigenvalues --    0.08222   0.08299   0.08738   0.09204   0.09268

 Mulliken charges:
               1
     1  Mg   0.834173
     2  C    0.021145
     3  C   -0.084978
     4  C   -0.068900
     5  C   -0.067934
     6  N   -0.301551
     7  C   -0.050914
     8  C    0.013049
     9  C   -0.078784
    10  C    0.093844
    11  C    0.095294
    12  C    0.079771
    13  C    0.028627
    14  C    0.182598
    15  O   -0.219945
    16  O   -0.368974
    17  N   -0.389125
    18  C    0.117678
    19  C   -0.101844
    20  C   -0.026683
    21  C    0.135759
    22  C    0.094295
    23  C   -0.021071
    24  O   -0.182184
    25  C    0.046362
    26  N   -0.205443
    27  C   -0.003881
    28  C   -0.029772
    29  C   -0.019392
    30  C   -0.019725
    31  C    0.050407
    32  C   -0.000130
    33  C    0.038875
    34  N   -0.339593
    35  C    0.117593
    36  C   -0.188202
    37  C    0.031639
    38  C    0.056678
    39  C    0.122466
    40  C    0.060918
    41  O   -0.183818
    42  C   -0.058723
    43  C    0.236232
    44  O   -0.213075
    45  O   -0.364000
    46  C    0.158014
    47  C    0.316730
    48  C   -0.146006
    49  C   -0.172128
    50  C    0.074730
    51  C    0.036480
    52  C    0.047534
    53  C    0.018394
    54  C   -0.146408
    55  C    0.040738
    56  C    0.051131
    57  C    0.016346
    58  C    0.065070
    59  C   -0.157093
    60  C    0.074515
    61  C    0.077417
    62  C    0.002308
    63  C    0.069176
    64  C   -0.159096
    65  C    0.056162
    66  C    0.031537
    67  H   -0.045821
    68  H   -0.002267
    69  H   -0.027606
    70  H    0.018842
    71  H    0.012108
    72  H    0.018114
    73  H    0.023123
    74  H    0.015038
    75  H    0.029251
    76  H    0.019966
    77  H    0.048007
    78  H    0.039747
    79  H    0.031342
    80  H    0.006652
    81  H    0.035451
    82  H    0.033029
    83  H    0.037645
    84  H    0.037813
    85  H    0.022276
    86  H    0.007826
    87  H    0.009095
    88  H    0.027333
    89  H    0.015709
    90  H    0.003933
    91  H   -0.008039
    92  H    0.020895
    93  H    0.025391
    94  H    0.018106
    95  H    0.009860
    96  H    0.042942
    97  H    0.019951
    98  H    0.038228
    99  H    0.042606
   100  H    0.044853
   101  H    0.025791
   102  H    0.024883
   103  H    0.027825
   104  H    0.006153
   105  H    0.022172
   106  H    0.019232
   107  H    0.013097
   108  H    0.014476
   109  H   -0.007651
   110  H    0.011239
   111  H   -0.005850
   112  H    0.009418
   113  H   -0.004136
   114  H    0.003333
   115  H    0.017973
   116  H    0.008506
   117  H   -0.008627
   118  H   -0.001856
   119  H   -0.011896
   120  H    0.000850
   121  H   -0.005997
   122  H   -0.008165
   123  H   -0.019045
   124  H   -0.011469
   125  H    0.007117
   126  H   -0.000848
   127  H   -0.000957
   128  H   -0.014375
   129  H    0.005160
   130  H   -0.007799
   131  H   -0.011800
   132  H   -0.012920
   133  H   -0.002950
   134  H    0.002247
   135  H    0.006781
   136  H    0.004963
   137  H    0.007326
   138  H   -0.003046
   139  H    0.004015
   140  H    0.001121
 Sum of Mulliken charges =  -0.00000

 Dipole moment (field-independent basis, Debye):
    X=             -2.9512    Y=              3.8658    Z=              1.7021  Tot=              5.1527
 Quadrupole moment (field-independent basis, Debye-Ang):
   XX=           -370.7823   YY=           -428.1929   ZZ=           -403.9026
   XY=             16.4573   XZ=             13.0279   YZ=              7.9732

 Normal termination of Gaussian 16 at Wed May  4 14:53:27 2022.
