 Gaussian 16, Revision A.03,
 Gaussian 16:  ES64L-G16RevA.03 25-Dec-2016

 ---------------------------------
 #p PBE1PBE/Def2SVP td=(nstates=5)
 ---------------------------------

 -----------------------------------------------------
 step_1851_chromophore_4 TDDFT with PBE1PBE functional
 -----------------------------------------------------
 Symbolic Z-matrix:
 Charge =  0 Multiplicity = 1

                         Standard orientation:
 ---------------------------------------------------------------------
 Center     Atomic      Atomic             Coordinates (Angstroms)
 Number     Number       Type             X           Y           Z
 ---------------------------------------------------------------------
      1         12           0        5.724545    0.579764    0.397172
      2          6           0        3.542380   -2.175099    0.274361
      3          6           0        3.223001    2.569321   -0.604527
      4          6           0        7.939780    3.055246   -0.159956
      5          6           0        8.467650   -1.713954    0.469595
      6          7           0        3.713944    0.150139   -0.346442
      7          6           0        2.921459   -0.957864   -0.136806
      8          6           0        1.394253   -0.615628   -0.383467
      9          6           0        1.454222    0.790178   -0.949802
     10          6           0        2.890290    1.199704   -0.709005
     11          6           0        0.925376    0.990821   -2.417610
     12          6           0        0.514831   -0.689375    1.030726
     13          6           0       -0.672496   -1.687677    0.942517
     14          6           0       -1.652349   -1.523040   -0.234715
     15          8           0       -2.001383   -0.444184   -0.670271
     16          8           0       -2.251925   -2.762128   -0.631205
     17          7           0        5.547305    2.618427   -0.078251
     18          6           0        4.387860    3.282765   -0.353679
     19          6           0        4.686397    4.700826   -0.371034
     20          6           0        6.073963    4.853795   -0.224754
     21          6           0        6.611963    3.471430   -0.200060
     22          6           0        3.636896    5.780046   -0.537823
     23          6           0        6.976358    6.059774   -0.336581
     24          8           0        8.178186    6.038416   -0.471522
     25          6           0        6.266246    7.451876   -0.176847
     26          7           0        7.974251    0.641900    0.206075
     27          6           0        8.576888    1.771387    0.008905
     28          6           0       10.109334    1.652272   -0.103812
     29          6           0       10.312071    0.069705    0.132128
     30          6           0        8.872758   -0.364348    0.225213
     31          6           0       10.724791    2.361563   -1.329815
     32          6           0       11.138868   -0.290445    1.476163
     33          6           0       12.139401   -1.397332    1.410946
     34          7           0        5.965532   -1.478430    0.481569
     35          6           0        7.125720   -2.242527    0.626102
     36          6           0        6.779913   -3.626367    0.886743
     37          6           0        5.393822   -3.651719    0.847505
     38          6           0        4.968564   -2.380792    0.474476
     39          6           0        7.752936   -4.723260    1.125134
     40          6           0        4.183762   -4.484186    0.976420
     41          8           0        3.944365   -5.686484    1.166566
     42          6           0        2.952739   -3.537197    0.533526
     43          6           0        2.291748   -4.094136   -0.686425
     44          8           0        2.646275   -3.857985   -1.840298
     45          8           0        1.162252   -4.826793   -0.247330
     46          6           0        0.131075   -5.094941   -1.274285
     47          6           0       -3.405081   -2.713462   -1.523381
     48          6           0       -4.606662   -2.437283   -0.582332
     49          6           0       -5.690016   -3.138740   -0.175661
     50          6           0       -5.966938   -4.592086   -0.592189
     51          6           0       -6.930771   -2.458068    0.421690
     52          6           0       -7.838627   -1.553180   -0.417185
     53          6           0       -7.354753   -0.066502   -0.405924
     54          6           0       -8.510237    1.034958   -0.275516
     55          6           0       -9.037885    1.559538   -1.708036
     56          6           0       -8.276126    2.201093    0.767059
     57          6           0       -9.305733    2.275455    1.980358
     58          6           0      -10.546197    3.114443    1.668066
     59          6           0      -11.921823    2.482469    1.884929
     60          6           0      -12.890116    3.454865    2.473526
     61          6           0      -12.314919    1.782227    0.632791
     62          6           0      -13.557297    0.865821    0.920374
     63          6           0      -14.826782    1.215631    0.089450
     64          6           0      -15.497662    0.008980   -0.521448
     65          6           0      -15.217951   -0.168569   -2.027482
     66          6           0      -16.987926    0.006927   -0.248671
     67          1           0        2.407229    3.281961   -0.745054
     68          1           0        8.731307    3.806303   -0.221433
     69          1           0        9.264573   -2.447223    0.329399
     70          1           0        1.120196   -1.307412   -1.179729
     71          1           0        0.953950    1.527871   -0.322221
     72          1           0        1.781444    0.966724   -3.090745
     73          1           0        0.329857    1.893234   -2.561063
     74          1           0        0.313338    0.127225   -2.676907
     75          1           0        0.182105    0.277699    1.407690
     76          1           0        1.177280   -1.185098    1.740232
     77          1           0       -1.250262   -1.448790    1.835985
     78          1           0       -0.252502   -2.692765    0.888539
     79          1           0        3.600885    6.465109    0.310000
     80          1           0        2.624756    5.377804   -0.596333
     81          1           0        3.735217    6.366089   -1.451118
     82          1           0        5.699282    7.307409    0.743225
     83          1           0        5.644548    7.468450   -1.071960
     84          1           0        7.104610    8.139407   -0.064595
     85          1           0       10.653969    2.167314    0.687697
     86          1           0       10.784905   -0.532784   -0.643200
     87          1           0       11.517873    3.084212   -1.136536
     88          1           0        9.968078    3.010701   -1.772089
     89          1           0       11.145412    1.630257   -2.019387
     90          1           0       10.391674   -0.363034    2.266806
     91          1           0       11.655490    0.616834    1.791225
     92          1           0       12.524510   -1.496495    0.396327
     93          1           0       11.559058   -2.235777    1.796224
     94          1           0       12.948190   -1.128327    2.090609
     95          1           0        8.719125   -4.703601    0.620866
     96          1           0        7.236132   -5.660719    0.918599
     97          1           0        8.098564   -4.623402    2.153602
     98          1           0        2.255232   -3.613948    1.367527
     99          1           0        0.431057   -4.805453   -2.281440
    100          1           0       -0.883221   -4.769219   -1.043351
    101          1           0        0.087447   -6.183429   -1.260847
    102          1           0       -3.599735   -3.622675   -2.092470
    103          1           0       -3.284165   -1.846966   -2.174970
    104          1           0       -4.776994   -1.371020   -0.430131
    105          1           0       -6.748861   -4.624445   -1.351418
    106          1           0       -6.393391   -5.050790    0.299705
    107          1           0       -5.074504   -5.032660   -1.036493
    108          1           0       -6.405913   -1.884633    1.186070
    109          1           0       -7.639611   -3.112168    0.929602
    110          1           0       -8.905061   -1.736498   -0.289012
    111          1           0       -7.645247   -1.839938   -1.451141
    112          1           0       -6.721148    0.136704   -1.269228
    113          1           0       -6.716367    0.107795    0.460021
    114          1           0       -9.316688    0.426220    0.132294
    115          1           0      -10.113886    1.434784   -1.826347
    116          1           0       -8.392348    1.215441   -2.516427
    117          1           0       -8.901505    2.640749   -1.750902
    118          1           0       -8.297589    3.126886    0.192858
    119          1           0       -7.280515    2.048402    1.182495
    120          1           0       -8.743140    2.630740    2.842898
    121          1           0       -9.663819    1.273734    2.219522
    122          1           0      -10.479732    3.561452    0.676008
    123          1           0      -10.452877    3.951059    2.360521
    124          1           0      -11.820603    1.700774    2.637762
    125          1           0      -12.486356    4.464537    2.550774
    126          1           0      -13.175493    3.189586    3.492284
    127          1           0      -13.834219    3.433508    1.929003
    128          1           0      -11.486817    1.096661    0.451641
    129          1           0      -12.462763    2.425710   -0.234850
    130          1           0      -13.803229    0.874407    1.981965
    131          1           0      -13.374148   -0.198410    0.769433
    132          1           0      -14.438010    1.861468   -0.697034
    133          1           0      -15.575488    1.767053    0.657286
    134          1           0      -15.167760   -0.893195   -0.007103
    135          1           0      -14.517823    0.517723   -2.503429
    136          1           0      -16.197314   -0.056313   -2.493029
    137          1           0      -14.786113   -1.153782   -2.204711
    138          1           0      -17.658416    0.073285   -1.105483
    139          1           0      -17.257249    0.817727    0.429169
    140          1           0      -17.344123   -0.950233    0.132837
 ---------------------------------------------------------------------

 SCF Done:  E(RPBE1PBE) =  -3005.31891861     A.U. after   15 cycles

 Excitation energies and oscillator strengths:

 Excited State   1:      Singlet-A      1.8626 eV  665.65 nm  f=0.3544  <S**2>=0.000
     245 -> 248       -0.18737
     246 -> 247        0.68752
 This state for optimization and/or second-order correction.
 Total Energy, E(TD-HF/TD-DFT) =  -3005.25046891
 Copying the excited state density for this state as the 1-particle RhoCI density.

 Excited State   2:      Singlet-A      2.1775 eV  569.38 nm  f=0.1005  <S**2>=0.000
     245 -> 247        0.65327
     246 -> 248        0.26025

 Excited State   3:      Singlet-A      3.0465 eV  406.97 nm  f=0.0000  <S**2>=0.000
     242 -> 247        0.16450
     243 -> 247       -0.11193
     244 -> 247        0.64586

 Excited State   4:      Singlet-A      3.0836 eV  402.08 nm  f=0.0008  <S**2>=0.000
     240 -> 247       -0.15708
     242 -> 247        0.37775
     242 -> 249       -0.11416
     243 -> 247        0.53556

 Excited State   5:      Singlet-A      3.2012 eV  387.30 nm  f=0.0003  <S**2>=0.000
     242 -> 247        0.53244
     243 -> 247       -0.34964
     244 -> 247       -0.23820

 The electronic state is 1-A.
 Alpha  occ. eigenvalues --  -46.92957 -19.25668 -19.24956 -19.21555 -19.20263
 Alpha  occ. eigenvalues --  -19.19615 -19.19143 -14.41537 -14.41234 -14.38867
 Alpha  occ. eigenvalues --  -14.38622 -10.37621 -10.36211 -10.32569 -10.32389
 Alpha  occ. eigenvalues --  -10.30452 -10.29106 -10.28845 -10.28377 -10.27989
 Alpha  occ. eigenvalues --  -10.27812 -10.27609 -10.27602 -10.27162 -10.26855
 Alpha  occ. eigenvalues --  -10.26788 -10.26265 -10.26239 -10.26007 -10.25956
 Alpha  occ. eigenvalues --  -10.25757 -10.25557 -10.25538 -10.25191 -10.25161
 Alpha  occ. eigenvalues --  -10.25133 -10.25064 -10.24834 -10.24720 -10.24219
 Alpha  occ. eigenvalues --  -10.23988 -10.23830 -10.23608 -10.23482 -10.23411
 Alpha  occ. eigenvalues --  -10.23370 -10.23357 -10.23331 -10.23208 -10.23188
 Alpha  occ. eigenvalues --  -10.23067 -10.23007 -10.22919 -10.22903 -10.22758
 Alpha  occ. eigenvalues --  -10.22690 -10.22687 -10.22277 -10.22216 -10.22208
 Alpha  occ. eigenvalues --  -10.22184 -10.21746 -10.21668 -10.21626 -10.21332
 Alpha  occ. eigenvalues --  -10.21301  -3.14933  -1.87751  -1.87318  -1.87144
 Alpha  occ. eigenvalues --   -1.10500  -1.08745  -1.05768  -1.03327  -1.03234
 Alpha  occ. eigenvalues --   -1.01836  -0.99963  -0.98179  -0.97888  -0.96897
 Alpha  occ. eigenvalues --   -0.85627  -0.84835  -0.84244  -0.83111  -0.82896
 Alpha  occ. eigenvalues --   -0.82836  -0.82320  -0.81741  -0.81240  -0.81095
 Alpha  occ. eigenvalues --   -0.80818  -0.79783  -0.78297  -0.77969  -0.76963
 Alpha  occ. eigenvalues --   -0.76347  -0.75921  -0.75044  -0.74768  -0.73946
 Alpha  occ. eigenvalues --   -0.73821  -0.72541  -0.71832  -0.71635  -0.69953
 Alpha  occ. eigenvalues --   -0.69764  -0.69611  -0.69503  -0.69196  -0.68496
 Alpha  occ. eigenvalues --   -0.68033  -0.66827  -0.65895  -0.65013  -0.63109
 Alpha  occ. eigenvalues --   -0.62918  -0.62863  -0.61493  -0.61344  -0.60197
 Alpha  occ. eigenvalues --   -0.59782  -0.59613  -0.58918  -0.58602  -0.57950
 Alpha  occ. eigenvalues --   -0.57476  -0.57330  -0.56897  -0.55596  -0.54439
 Alpha  occ. eigenvalues --   -0.53962  -0.53719  -0.53160  -0.52691  -0.52354
 Alpha  occ. eigenvalues --   -0.51726  -0.51465  -0.50949  -0.50701  -0.49837
 Alpha  occ. eigenvalues --   -0.48997  -0.48746  -0.48425  -0.48347  -0.48005
 Alpha  occ. eigenvalues --   -0.47852  -0.47827  -0.47784  -0.47412  -0.47261
 Alpha  occ. eigenvalues --   -0.47098  -0.46947  -0.46656  -0.46587  -0.46530
 Alpha  occ. eigenvalues --   -0.45921  -0.45724  -0.45587  -0.45410  -0.45189
 Alpha  occ. eigenvalues --   -0.45006  -0.44846  -0.44563  -0.44526  -0.44009
 Alpha  occ. eigenvalues --   -0.43763  -0.43713  -0.43561  -0.43290  -0.43218
 Alpha  occ. eigenvalues --   -0.43116  -0.42865  -0.42771  -0.42615  -0.42339
 Alpha  occ. eigenvalues --   -0.42127  -0.41821  -0.41375  -0.41274  -0.41182
 Alpha  occ. eigenvalues --   -0.41075  -0.40881  -0.40778  -0.40397  -0.40316
 Alpha  occ. eigenvalues --   -0.40118  -0.39933  -0.39661  -0.39549  -0.39527
 Alpha  occ. eigenvalues --   -0.39406  -0.39252  -0.38892  -0.38863  -0.38738
 Alpha  occ. eigenvalues --   -0.38692  -0.38389  -0.38147  -0.37923  -0.37739
 Alpha  occ. eigenvalues --   -0.37579  -0.37272  -0.37232  -0.37185  -0.37014
 Alpha  occ. eigenvalues --   -0.36724  -0.36585  -0.36455  -0.36291  -0.36090
 Alpha  occ. eigenvalues --   -0.35998  -0.35548  -0.35126  -0.34948  -0.34738
 Alpha  occ. eigenvalues --   -0.34259  -0.34165  -0.34135  -0.33859  -0.33692
 Alpha  occ. eigenvalues --   -0.33508  -0.33016  -0.32823  -0.32193  -0.32015
 Alpha  occ. eigenvalues --   -0.31843  -0.31744  -0.31294  -0.31129  -0.31114
 Alpha  occ. eigenvalues --   -0.30767  -0.30482  -0.29960  -0.29857  -0.29623
 Alpha  occ. eigenvalues --   -0.29416  -0.29001  -0.28365  -0.26831  -0.25855
 Alpha  occ. eigenvalues --   -0.25800  -0.25556  -0.25333  -0.24926  -0.20370
 Alpha  occ. eigenvalues --   -0.18480
 Alpha virt. eigenvalues --   -0.10709  -0.05178  -0.03827  -0.01948  -0.01406
 Alpha virt. eigenvalues --   -0.01041  -0.00053   0.00312   0.01414   0.03272
 Alpha virt. eigenvalues --    0.04107   0.04935   0.05415   0.05665   0.05960

 Mulliken charges:
               1
     1  Mg   0.976239
     2  C   -0.002112
     3  C   -0.086352
     4  C   -0.066706
     5  C   -0.061163
     6  N   -0.399440
     7  C    0.019865
     8  C   -0.058503
     9  C   -0.150600
    10  C    0.136308
    11  C    0.038082
    12  C    0.030835
    13  C   -0.057647
    14  C    0.251605
    15  O   -0.251595
    16  O   -0.398544
    17  N   -0.497968
    18  C    0.138429
    19  C   -0.139518
    20  C   -0.069593
    21  C    0.166392
    22  C    0.040972
    23  C    0.034265
    24  O   -0.222462
    25  C   -0.035458
    26  N   -0.313826
    27  C    0.036246
    28  C   -0.098888
    29  C   -0.096131
    30  C    0.022597
    31  C   -0.007929
    32  C   -0.054447
    33  C   -0.038193
    34  N   -0.461690
    35  C    0.141074
    36  C   -0.209679
    37  C   -0.013168
    38  C    0.107449
    39  C    0.070186
    40  C    0.156146
    41  O   -0.225621
    42  C   -0.160971
    43  C    0.323786
    44  O   -0.247043
    45  O   -0.394341
    46  C    0.102505
    47  C    0.266929
    48  C   -0.158815
    49  C   -0.208306
    50  C    0.009662
    51  C   -0.028084
    52  C   -0.018884
    53  C   -0.029458
    54  C   -0.228644
    55  C   -0.019742
    56  C   -0.004903
    57  C   -0.048289
    58  C    0.010965
    59  C   -0.247511
    60  C    0.015992
    61  C    0.007333
    62  C   -0.052653
    63  C    0.014712
    64  C   -0.255180
    65  C   -0.001182
    66  C   -0.024692
    67  H   -0.010853
    68  H    0.029918
    69  H    0.005308
    70  H    0.058318
    71  H    0.049060
    72  H    0.045990
    73  H    0.049271
    74  H    0.042245
    75  H    0.058548
    76  H    0.054286
    77  H    0.080844
    78  H    0.075342
    79  H    0.057371
    80  H    0.032770
    81  H    0.061074
    82  H    0.060548
    83  H    0.065254
    84  H    0.064066
    85  H    0.058361
    86  H    0.044444
    87  H    0.036172
    88  H    0.055236
    89  H    0.043176
    90  H    0.037128
    91  H    0.026013
    92  H    0.048021
    93  H    0.052493
    94  H    0.046952
    95  H    0.037562
    96  H    0.070884
    97  H    0.049935
    98  H    0.075235
    99  H    0.063528
   100  H    0.069509
   101  H    0.048782
   102  H    0.050590
   103  H    0.055416
   104  H    0.038429
   105  H    0.050531
   106  H    0.047478
   107  H    0.040721
   108  H    0.047985
   109  H    0.024230
   110  H    0.040062
   111  H    0.029653
   112  H    0.040310
   113  H    0.027048
   114  H    0.045047
   115  H    0.045403
   116  H    0.035504
   117  H    0.018304
   118  H    0.030295
   119  H    0.020487
   120  H    0.033207
   121  H    0.026708
   122  H    0.024519
   123  H    0.015316
   124  H    0.027486
   125  H    0.033934
   126  H    0.026726
   127  H    0.029289
   128  H    0.029502
   129  H    0.035062
   130  H    0.024666
   131  H    0.019856
   132  H    0.020884
   133  H    0.027829
   134  H    0.040076
   135  H    0.032999
   136  H    0.031583
   137  H    0.034667
   138  H    0.023485
   139  H    0.030771
   140  H    0.028511
 Sum of Mulliken charges =  -0.00000

 Dipole moment (field-independent basis, Debye):
    X=             -2.8814    Y=              3.1533    Z=              1.8119  Tot=              4.6399
 Quadrupole moment (field-independent basis, Debye-Ang):
   XX=           -363.4279   YY=           -426.7996   ZZ=           -401.4853
   XY=             12.0618   XZ=             13.9255   YZ=              7.8874

 Normal termination of Gaussian 16 at Wed May  4 15:21:44 2022.
