 Gaussian 16, Revision A.03,
 Gaussian 16:  ES64L-G16RevA.03 25-Dec-2016

 --------------------------------
 #p wB97XD/Def2SVP td=(nstates=5)
 --------------------------------

 ----------------------------------------------------
 step_1851_chromophore_4 TDDFT with wB97XD functional
 ----------------------------------------------------
 Symbolic Z-matrix:
 Charge =  0 Multiplicity = 1

                         Standard orientation:
 ---------------------------------------------------------------------
 Center     Atomic      Atomic             Coordinates (Angstroms)
 Number     Number       Type             X           Y           Z
 ---------------------------------------------------------------------
      1         12           0        5.724545    0.579764    0.397172
      2          6           0        3.542380   -2.175099    0.274361
      3          6           0        3.223001    2.569321   -0.604527
      4          6           0        7.939780    3.055246   -0.159956
      5          6           0        8.467650   -1.713954    0.469595
      6          7           0        3.713944    0.150139   -0.346442
      7          6           0        2.921459   -0.957864   -0.136806
      8          6           0        1.394253   -0.615628   -0.383467
      9          6           0        1.454222    0.790178   -0.949802
     10          6           0        2.890290    1.199704   -0.709005
     11          6           0        0.925376    0.990821   -2.417610
     12          6           0        0.514831   -0.689375    1.030726
     13          6           0       -0.672496   -1.687677    0.942517
     14          6           0       -1.652349   -1.523040   -0.234715
     15          8           0       -2.001383   -0.444184   -0.670271
     16          8           0       -2.251925   -2.762128   -0.631205
     17          7           0        5.547305    2.618427   -0.078251
     18          6           0        4.387860    3.282765   -0.353679
     19          6           0        4.686397    4.700826   -0.371034
     20          6           0        6.073963    4.853795   -0.224754
     21          6           0        6.611963    3.471430   -0.200060
     22          6           0        3.636896    5.780046   -0.537823
     23          6           0        6.976358    6.059774   -0.336581
     24          8           0        8.178186    6.038416   -0.471522
     25          6           0        6.266246    7.451876   -0.176847
     26          7           0        7.974251    0.641900    0.206075
     27          6           0        8.576888    1.771387    0.008905
     28          6           0       10.109334    1.652272   -0.103812
     29          6           0       10.312071    0.069705    0.132128
     30          6           0        8.872758   -0.364348    0.225213
     31          6           0       10.724791    2.361563   -1.329815
     32          6           0       11.138868   -0.290445    1.476163
     33          6           0       12.139401   -1.397332    1.410946
     34          7           0        5.965532   -1.478430    0.481569
     35          6           0        7.125720   -2.242527    0.626102
     36          6           0        6.779913   -3.626367    0.886743
     37          6           0        5.393822   -3.651719    0.847505
     38          6           0        4.968564   -2.380792    0.474476
     39          6           0        7.752936   -4.723260    1.125134
     40          6           0        4.183762   -4.484186    0.976420
     41          8           0        3.944365   -5.686484    1.166566
     42          6           0        2.952739   -3.537197    0.533526
     43          6           0        2.291748   -4.094136   -0.686425
     44          8           0        2.646275   -3.857985   -1.840298
     45          8           0        1.162252   -4.826793   -0.247330
     46          6           0        0.131075   -5.094941   -1.274285
     47          6           0       -3.405081   -2.713462   -1.523381
     48          6           0       -4.606662   -2.437283   -0.582332
     49          6           0       -5.690016   -3.138740   -0.175661
     50          6           0       -5.966938   -4.592086   -0.592189
     51          6           0       -6.930771   -2.458068    0.421690
     52          6           0       -7.838627   -1.553180   -0.417185
     53          6           0       -7.354753   -0.066502   -0.405924
     54          6           0       -8.510237    1.034958   -0.275516
     55          6           0       -9.037885    1.559538   -1.708036
     56          6           0       -8.276126    2.201093    0.767059
     57          6           0       -9.305733    2.275455    1.980358
     58          6           0      -10.546197    3.114443    1.668066
     59          6           0      -11.921823    2.482469    1.884929
     60          6           0      -12.890116    3.454865    2.473526
     61          6           0      -12.314919    1.782227    0.632791
     62          6           0      -13.557297    0.865821    0.920374
     63          6           0      -14.826782    1.215631    0.089450
     64          6           0      -15.497662    0.008980   -0.521448
     65          6           0      -15.217951   -0.168569   -2.027482
     66          6           0      -16.987926    0.006927   -0.248671
     67          1           0        2.407229    3.281961   -0.745054
     68          1           0        8.731307    3.806303   -0.221433
     69          1           0        9.264573   -2.447223    0.329399
     70          1           0        1.120196   -1.307412   -1.179729
     71          1           0        0.953950    1.527871   -0.322221
     72          1           0        1.781444    0.966724   -3.090745
     73          1           0        0.329857    1.893234   -2.561063
     74          1           0        0.313338    0.127225   -2.676907
     75          1           0        0.182105    0.277699    1.407690
     76          1           0        1.177280   -1.185098    1.740232
     77          1           0       -1.250262   -1.448790    1.835985
     78          1           0       -0.252502   -2.692765    0.888539
     79          1           0        3.600885    6.465109    0.310000
     80          1           0        2.624756    5.377804   -0.596333
     81          1           0        3.735217    6.366089   -1.451118
     82          1           0        5.699282    7.307409    0.743225
     83          1           0        5.644548    7.468450   -1.071960
     84          1           0        7.104610    8.139407   -0.064595
     85          1           0       10.653969    2.167314    0.687697
     86          1           0       10.784905   -0.532784   -0.643200
     87          1           0       11.517873    3.084212   -1.136536
     88          1           0        9.968078    3.010701   -1.772089
     89          1           0       11.145412    1.630257   -2.019387
     90          1           0       10.391674   -0.363034    2.266806
     91          1           0       11.655490    0.616834    1.791225
     92          1           0       12.524510   -1.496495    0.396327
     93          1           0       11.559058   -2.235777    1.796224
     94          1           0       12.948190   -1.128327    2.090609
     95          1           0        8.719125   -4.703601    0.620866
     96          1           0        7.236132   -5.660719    0.918599
     97          1           0        8.098564   -4.623402    2.153602
     98          1           0        2.255232   -3.613948    1.367527
     99          1           0        0.431057   -4.805453   -2.281440
    100          1           0       -0.883221   -4.769219   -1.043351
    101          1           0        0.087447   -6.183429   -1.260847
    102          1           0       -3.599735   -3.622675   -2.092470
    103          1           0       -3.284165   -1.846966   -2.174970
    104          1           0       -4.776994   -1.371020   -0.430131
    105          1           0       -6.748861   -4.624445   -1.351418
    106          1           0       -6.393391   -5.050790    0.299705
    107          1           0       -5.074504   -5.032660   -1.036493
    108          1           0       -6.405913   -1.884633    1.186070
    109          1           0       -7.639611   -3.112168    0.929602
    110          1           0       -8.905061   -1.736498   -0.289012
    111          1           0       -7.645247   -1.839938   -1.451141
    112          1           0       -6.721148    0.136704   -1.269228
    113          1           0       -6.716367    0.107795    0.460021
    114          1           0       -9.316688    0.426220    0.132294
    115          1           0      -10.113886    1.434784   -1.826347
    116          1           0       -8.392348    1.215441   -2.516427
    117          1           0       -8.901505    2.640749   -1.750902
    118          1           0       -8.297589    3.126886    0.192858
    119          1           0       -7.280515    2.048402    1.182495
    120          1           0       -8.743140    2.630740    2.842898
    121          1           0       -9.663819    1.273734    2.219522
    122          1           0      -10.479732    3.561452    0.676008
    123          1           0      -10.452877    3.951059    2.360521
    124          1           0      -11.820603    1.700774    2.637762
    125          1           0      -12.486356    4.464537    2.550774
    126          1           0      -13.175493    3.189586    3.492284
    127          1           0      -13.834219    3.433508    1.929003
    128          1           0      -11.486817    1.096661    0.451641
    129          1           0      -12.462763    2.425710   -0.234850
    130          1           0      -13.803229    0.874407    1.981965
    131          1           0      -13.374148   -0.198410    0.769433
    132          1           0      -14.438010    1.861468   -0.697034
    133          1           0      -15.575488    1.767053    0.657286
    134          1           0      -15.167760   -0.893195   -0.007103
    135          1           0      -14.517823    0.517723   -2.503429
    136          1           0      -16.197314   -0.056313   -2.493029
    137          1           0      -14.786113   -1.153782   -2.204711
    138          1           0      -17.658416    0.073285   -1.105483
    139          1           0      -17.257249    0.817727    0.429169
    140          1           0      -17.344123   -0.950233    0.132837
 ---------------------------------------------------------------------

 SCF Done:  E(RwB97XD) =  -3007.82892004     A.U. after   19 cycles

 Excitation energies and oscillator strengths:

 Excited State   1:      Singlet-A      1.7041 eV  727.55 nm  f=0.3625  <S**2>=0.000
     245 -> 248       -0.19526
     246 -> 247        0.67915
     245 <- 248       -0.11490
 This state for optimization and/or second-order correction.
 Total Energy, E(TD-HF/TD-DFT) =  -3007.76629390
 Copying the excited state density for this state as the 1-particle RhoCI density.

 Excited State   2:      Singlet-A      2.1367 eV  580.27 nm  f=0.1003  <S**2>=0.000
     245 -> 247        0.63637
     246 -> 248        0.29165

 Excited State   3:      Singlet-A      3.4392 eV  360.51 nm  f=0.4298  <S**2>=0.000
     239 -> 247       -0.16944
     240 -> 247        0.11215
     242 -> 247        0.13506
     243 -> 247       -0.29002
     244 -> 247        0.15256
     245 -> 247       -0.20829
     246 -> 248        0.52334

 Excited State   4:      Singlet-A      3.5315 eV  351.08 nm  f=0.1246  <S**2>=0.000
     243 -> 247       -0.13638
     244 -> 247        0.57128
     244 -> 249       -0.11871
     245 -> 247        0.12787
     246 -> 248       -0.27137

 Excited State   5:      Singlet-A      3.5900 eV  345.36 nm  f=0.0704  <S**2>=0.000
     240 -> 247        0.50591
     240 -> 249        0.26754
     240 -> 250        0.19447
     243 -> 247       -0.12054
     244 -> 247       -0.19301
     246 -> 248       -0.12942

 The electronic state is 1-A.
 Alpha  occ. eigenvalues --  -46.95872 -19.30168 -19.29398 -19.26223 -19.24855
 Alpha  occ. eigenvalues --  -19.24763 -19.23645 -14.46536 -14.46410 -14.43946
 Alpha  occ. eigenvalues --  -14.43337 -10.44399 -10.42939 -10.39539 -10.39156
 Alpha  occ. eigenvalues --  -10.36934 -10.35461 -10.35173 -10.34893 -10.34507
 Alpha  occ. eigenvalues --  -10.34429 -10.34037 -10.33945 -10.33803 -10.33001
 Alpha  occ. eigenvalues --  -10.32953 -10.32539 -10.32400 -10.32217 -10.32053
 Alpha  occ. eigenvalues --  -10.32015 -10.31905 -10.31844 -10.31655 -10.31646
 Alpha  occ. eigenvalues --  -10.31480 -10.31355 -10.31186 -10.31032 -10.30667
 Alpha  occ. eigenvalues --  -10.30246 -10.30200 -10.30189 -10.30006 -10.29818
 Alpha  occ. eigenvalues --  -10.29796 -10.29750 -10.29696 -10.29666 -10.29367
 Alpha  occ. eigenvalues --  -10.29353 -10.29350 -10.29333 -10.29105 -10.29049
 Alpha  occ. eigenvalues --  -10.28957 -10.28823 -10.28610 -10.28602 -10.28569
 Alpha  occ. eigenvalues --  -10.28566 -10.28099 -10.28040 -10.28031 -10.27750
 Alpha  occ. eigenvalues --  -10.27736  -3.21735  -1.95297  -1.94863  -1.94688
 Alpha  occ. eigenvalues --   -1.17862  -1.16052  -1.13567  -1.10649  -1.10447
 Alpha  occ. eigenvalues --   -1.09096  -1.07331  -1.05692  -1.05136  -1.04215
 Alpha  occ. eigenvalues --   -0.93047  -0.92490  -0.91897  -0.90740  -0.90535
 Alpha  occ. eigenvalues --   -0.90473  -0.89997  -0.89636  -0.88897  -0.88730
 Alpha  occ. eigenvalues --   -0.88192  -0.87438  -0.85954  -0.85494  -0.84605
 Alpha  occ. eigenvalues --   -0.83990  -0.83662  -0.82828  -0.82428  -0.81578
 Alpha  occ. eigenvalues --   -0.81445  -0.80413  -0.79385  -0.79206  -0.77540
 Alpha  occ. eigenvalues --   -0.77452  -0.77256  -0.77187  -0.76728  -0.76162
 Alpha  occ. eigenvalues --   -0.75652  -0.74263  -0.73450  -0.72614  -0.70796
 Alpha  occ. eigenvalues --   -0.70568  -0.70325  -0.69023  -0.68957  -0.67659
 Alpha  occ. eigenvalues --   -0.67312  -0.67201  -0.66342  -0.65984  -0.65624
 Alpha  occ. eigenvalues --   -0.65019  -0.64864  -0.64528  -0.62908  -0.62097
 Alpha  occ. eigenvalues --   -0.61409  -0.61065  -0.60588  -0.60035  -0.59729
 Alpha  occ. eigenvalues --   -0.59166  -0.58845  -0.58359  -0.58180  -0.57252
 Alpha  occ. eigenvalues --   -0.56306  -0.56135  -0.55833  -0.55722  -0.55434
 Alpha  occ. eigenvalues --   -0.55346  -0.55249  -0.55127  -0.55022  -0.54724
 Alpha  occ. eigenvalues --   -0.54476  -0.54280  -0.53992  -0.53951  -0.53874
 Alpha  occ. eigenvalues --   -0.53223  -0.53085  -0.52948  -0.52671  -0.52522
 Alpha  occ. eigenvalues --   -0.52349  -0.52215  -0.51947  -0.51877  -0.51300
 Alpha  occ. eigenvalues --   -0.51191  -0.51006  -0.50978  -0.50853  -0.50508
 Alpha  occ. eigenvalues --   -0.50381  -0.50118  -0.50009  -0.49886  -0.49660
 Alpha  occ. eigenvalues --   -0.49462  -0.49046  -0.48595  -0.48492  -0.48434
 Alpha  occ. eigenvalues --   -0.48221  -0.48140  -0.47903  -0.47593  -0.47431
 Alpha  occ. eigenvalues --   -0.47268  -0.47061  -0.46811  -0.46773  -0.46674
 Alpha  occ. eigenvalues --   -0.46559  -0.46299  -0.46269  -0.46017  -0.45894
 Alpha  occ. eigenvalues --   -0.45766  -0.45513  -0.45294  -0.45136  -0.44913
 Alpha  occ. eigenvalues --   -0.44651  -0.44369  -0.44318  -0.44285  -0.44094
 Alpha  occ. eigenvalues --   -0.43692  -0.43685  -0.43481  -0.43347  -0.43157
 Alpha  occ. eigenvalues --   -0.43035  -0.42487  -0.42199  -0.41885  -0.41815
 Alpha  occ. eigenvalues --   -0.41261  -0.41202  -0.41104  -0.40918  -0.40645
 Alpha  occ. eigenvalues --   -0.40556  -0.40071  -0.39777  -0.39282  -0.39085
 Alpha  occ. eigenvalues --   -0.38768  -0.38682  -0.38262  -0.38159  -0.38152
 Alpha  occ. eigenvalues --   -0.37713  -0.37494  -0.36850  -0.36627  -0.36535
 Alpha  occ. eigenvalues --   -0.36342  -0.35981  -0.34956  -0.33650  -0.32932
 Alpha  occ. eigenvalues --   -0.32507  -0.32335  -0.32103  -0.31331  -0.25388
 Alpha  occ. eigenvalues --   -0.22688
 Alpha virt. eigenvalues --   -0.06495   0.00230   0.02428   0.04568   0.04578
 Alpha virt. eigenvalues --    0.05758   0.06717   0.07209   0.08227   0.09910
 Alpha virt. eigenvalues --    0.10873   0.11216   0.12096   0.12357   0.12639

 Mulliken charges:
               1
     1  Mg   0.968917
     2  C    0.003108
     3  C   -0.100636
     4  C   -0.081552
     5  C   -0.071570
     6  N   -0.369767
     7  C   -0.010026
     8  C   -0.035858
     9  C   -0.125159
    10  C    0.122814
    11  C    0.048000
    12  C    0.043219
    13  C   -0.028783
    14  C    0.234154
    15  O   -0.247980
    16  O   -0.397963
    17  N   -0.470335
    18  C    0.136504
    19  C   -0.125656
    20  C   -0.063394
    21  C    0.159578
    22  C    0.048954
    23  C    0.028771
    24  O   -0.214472
    25  C   -0.015413
    26  N   -0.275516
    27  C    0.023989
    28  C   -0.078592
    29  C   -0.070758
    30  C    0.004294
    31  C    0.003390
    32  C   -0.040925
    33  C   -0.020621
    34  N   -0.427105
    35  C    0.128420
    36  C   -0.203679
    37  C   -0.014103
    38  C    0.089827
    39  C    0.078657
    40  C    0.137691
    41  O   -0.219216
    42  C   -0.124665
    43  C    0.300115
    44  O   -0.242040
    45  O   -0.393309
    46  C    0.121056
    47  C    0.286532
    48  C   -0.165683
    49  C   -0.198275
    50  C    0.025374
    51  C   -0.006960
    52  C   -0.002625
    53  C   -0.014960
    54  C   -0.197058
    55  C   -0.004158
    56  C    0.011801
    57  C   -0.029078
    58  C    0.024700
    59  C   -0.211132
    60  C    0.024770
    61  C    0.032755
    62  C   -0.038206
    63  C    0.032305
    64  C   -0.225562
    65  C    0.010747
    66  C   -0.011499
    67  H   -0.021720
    68  H    0.023341
    69  H   -0.003192
    70  H    0.043948
    71  H    0.037477
    72  H    0.040535
    73  H    0.045197
    74  H    0.036978
    75  H    0.052998
    76  H    0.044350
    77  H    0.076013
    78  H    0.060448
    79  H    0.053638
    80  H    0.031049
    81  H    0.058176
    82  H    0.053484
    83  H    0.057810
    84  H    0.064139
    85  H    0.048127
    86  H    0.033186
    87  H    0.031640
    88  H    0.047143
    89  H    0.038685
    90  H    0.028252
    91  H    0.015598
    92  H    0.041832
    93  H    0.045992
    94  H    0.041518
    95  H    0.031167
    96  H    0.066501
    97  H    0.042966
    98  H    0.067581
    99  H    0.059507
   100  H    0.061688
   101  H    0.044669
   102  H    0.046130
   103  H    0.051077
   104  H    0.028942
   105  H    0.043912
   106  H    0.041097
   107  H    0.034445
   108  H    0.037014
   109  H    0.018451
   110  H    0.035430
   111  H    0.018636
   112  H    0.032190
   113  H    0.014065
   114  H    0.022251
   115  H    0.039080
   116  H    0.030018
   117  H    0.010629
   118  H    0.019654
   119  H    0.013124
   120  H    0.027430
   121  H    0.015271
   122  H    0.012947
   123  H    0.006523
   124  H    0.013547
   125  H    0.028363
   126  H    0.021904
   127  H    0.020500
   128  H    0.008577
   129  H    0.026414
   130  H    0.015443
   131  H    0.011321
   132  H    0.007940
   133  H    0.018481
   134  H    0.027833
   135  H    0.027314
   136  H    0.024197
   137  H    0.029411
   138  H    0.016559
   139  H    0.023997
   140  H    0.023007
 Sum of Mulliken charges =  -0.00000

 Dipole moment (field-independent basis, Debye):
    X=             -2.9918    Y=              4.1156    Z=              1.7043  Tot=              5.3660
 Quadrupole moment (field-independent basis, Debye-Ang):
   XX=           -365.5980   YY=           -423.6290   ZZ=           -401.0786
   XY=             17.8264   XZ=             13.5224   YZ=              8.0588

 Normal termination of Gaussian 16 at Wed May  4 16:00:59 2022.
