 Gaussian 16, Revision A.03,
 Gaussian 16:  ES64L-G16RevA.03 25-Dec-2016

 --------------------
 #p ZINDO=(nstates=5)
 --------------------

 -----------------------------
 step_1851_chromophore_4 ZINDO
 -----------------------------
 Symbolic Z-matrix:
 Charge =  0 Multiplicity = 1

                         Standard orientation:
 ---------------------------------------------------------------------
 Center     Atomic      Atomic             Coordinates (Angstroms)
 Number     Number       Type             X           Y           Z
 ---------------------------------------------------------------------
      1         12           0        5.724545    0.579764    0.397172
      2          6           0        3.542380   -2.175099    0.274361
      3          6           0        3.223001    2.569321   -0.604527
      4          6           0        7.939780    3.055246   -0.159956
      5          6           0        8.467650   -1.713954    0.469595
      6          7           0        3.713944    0.150139   -0.346442
      7          6           0        2.921459   -0.957864   -0.136806
      8          6           0        1.394253   -0.615628   -0.383467
      9          6           0        1.454222    0.790178   -0.949802
     10          6           0        2.890290    1.199704   -0.709005
     11          6           0        0.925376    0.990821   -2.417610
     12          6           0        0.514831   -0.689375    1.030726
     13          6           0       -0.672496   -1.687677    0.942517
     14          6           0       -1.652349   -1.523040   -0.234715
     15          8           0       -2.001383   -0.444184   -0.670271
     16          8           0       -2.251925   -2.762128   -0.631205
     17          7           0        5.547305    2.618427   -0.078251
     18          6           0        4.387860    3.282765   -0.353679
     19          6           0        4.686397    4.700826   -0.371034
     20          6           0        6.073963    4.853795   -0.224754
     21          6           0        6.611963    3.471430   -0.200060
     22          6           0        3.636896    5.780046   -0.537823
     23          6           0        6.976358    6.059774   -0.336581
     24          8           0        8.178186    6.038416   -0.471522
     25          6           0        6.266246    7.451876   -0.176847
     26          7           0        7.974251    0.641900    0.206075
     27          6           0        8.576888    1.771387    0.008905
     28          6           0       10.109334    1.652272   -0.103812
     29          6           0       10.312071    0.069705    0.132128
     30          6           0        8.872758   -0.364348    0.225213
     31          6           0       10.724791    2.361563   -1.329815
     32          6           0       11.138868   -0.290445    1.476163
     33          6           0       12.139401   -1.397332    1.410946
     34          7           0        5.965532   -1.478430    0.481569
     35          6           0        7.125720   -2.242527    0.626102
     36          6           0        6.779913   -3.626367    0.886743
     37          6           0        5.393822   -3.651719    0.847505
     38          6           0        4.968564   -2.380792    0.474476
     39          6           0        7.752936   -4.723260    1.125134
     40          6           0        4.183762   -4.484186    0.976420
     41          8           0        3.944365   -5.686484    1.166566
     42          6           0        2.952739   -3.537197    0.533526
     43          6           0        2.291748   -4.094136   -0.686425
     44          8           0        2.646275   -3.857985   -1.840298
     45          8           0        1.162252   -4.826793   -0.247330
     46          6           0        0.131075   -5.094941   -1.274285
     47          6           0       -3.405081   -2.713462   -1.523381
     48          6           0       -4.606662   -2.437283   -0.582332
     49          6           0       -5.690016   -3.138740   -0.175661
     50          6           0       -5.966938   -4.592086   -0.592189
     51          6           0       -6.930771   -2.458068    0.421690
     52          6           0       -7.838627   -1.553180   -0.417185
     53          6           0       -7.354753   -0.066502   -0.405924
     54          6           0       -8.510237    1.034958   -0.275516
     55          6           0       -9.037885    1.559538   -1.708036
     56          6           0       -8.276126    2.201093    0.767059
     57          6           0       -9.305733    2.275455    1.980358
     58          6           0      -10.546197    3.114443    1.668066
     59          6           0      -11.921823    2.482469    1.884929
     60          6           0      -12.890116    3.454865    2.473526
     61          6           0      -12.314919    1.782227    0.632791
     62          6           0      -13.557297    0.865821    0.920374
     63          6           0      -14.826782    1.215631    0.089450
     64          6           0      -15.497662    0.008980   -0.521448
     65          6           0      -15.217951   -0.168569   -2.027482
     66          6           0      -16.987926    0.006927   -0.248671
     67          1           0        2.407229    3.281961   -0.745054
     68          1           0        8.731307    3.806303   -0.221433
     69          1           0        9.264573   -2.447223    0.329399
     70          1           0        1.120196   -1.307412   -1.179729
     71          1           0        0.953950    1.527871   -0.322221
     72          1           0        1.781444    0.966724   -3.090745
     73          1           0        0.329857    1.893234   -2.561063
     74          1           0        0.313338    0.127225   -2.676907
     75          1           0        0.182105    0.277699    1.407690
     76          1           0        1.177280   -1.185098    1.740232
     77          1           0       -1.250262   -1.448790    1.835985
     78          1           0       -0.252502   -2.692765    0.888539
     79          1           0        3.600885    6.465109    0.310000
     80          1           0        2.624756    5.377804   -0.596333
     81          1           0        3.735217    6.366089   -1.451118
     82          1           0        5.699282    7.307409    0.743225
     83          1           0        5.644548    7.468450   -1.071960
     84          1           0        7.104610    8.139407   -0.064595
     85          1           0       10.653969    2.167314    0.687697
     86          1           0       10.784905   -0.532784   -0.643200
     87          1           0       11.517873    3.084212   -1.136536
     88          1           0        9.968078    3.010701   -1.772089
     89          1           0       11.145412    1.630257   -2.019387
     90          1           0       10.391674   -0.363034    2.266806
     91          1           0       11.655490    0.616834    1.791225
     92          1           0       12.524510   -1.496495    0.396327
     93          1           0       11.559058   -2.235777    1.796224
     94          1           0       12.948190   -1.128327    2.090609
     95          1           0        8.719125   -4.703601    0.620866
     96          1           0        7.236132   -5.660719    0.918599
     97          1           0        8.098564   -4.623402    2.153602
     98          1           0        2.255232   -3.613948    1.367527
     99          1           0        0.431057   -4.805453   -2.281440
    100          1           0       -0.883221   -4.769219   -1.043351
    101          1           0        0.087447   -6.183429   -1.260847
    102          1           0       -3.599735   -3.622675   -2.092470
    103          1           0       -3.284165   -1.846966   -2.174970
    104          1           0       -4.776994   -1.371020   -0.430131
    105          1           0       -6.748861   -4.624445   -1.351418
    106          1           0       -6.393391   -5.050790    0.299705
    107          1           0       -5.074504   -5.032660   -1.036493
    108          1           0       -6.405913   -1.884633    1.186070
    109          1           0       -7.639611   -3.112168    0.929602
    110          1           0       -8.905061   -1.736498   -0.289012
    111          1           0       -7.645247   -1.839938   -1.451141
    112          1           0       -6.721148    0.136704   -1.269228
    113          1           0       -6.716367    0.107795    0.460021
    114          1           0       -9.316688    0.426220    0.132294
    115          1           0      -10.113886    1.434784   -1.826347
    116          1           0       -8.392348    1.215441   -2.516427
    117          1           0       -8.901505    2.640749   -1.750902
    118          1           0       -8.297589    3.126886    0.192858
    119          1           0       -7.280515    2.048402    1.182495
    120          1           0       -8.743140    2.630740    2.842898
    121          1           0       -9.663819    1.273734    2.219522
    122          1           0      -10.479732    3.561452    0.676008
    123          1           0      -10.452877    3.951059    2.360521
    124          1           0      -11.820603    1.700774    2.637762
    125          1           0      -12.486356    4.464537    2.550774
    126          1           0      -13.175493    3.189586    3.492284
    127          1           0      -13.834219    3.433508    1.929003
    128          1           0      -11.486817    1.096661    0.451641
    129          1           0      -12.462763    2.425710   -0.234850
    130          1           0      -13.803229    0.874407    1.981965
    131          1           0      -13.374148   -0.198410    0.769433
    132          1           0      -14.438010    1.861468   -0.697034
    133          1           0      -15.575488    1.767053    0.657286
    134          1           0      -15.167760   -0.893195   -0.007103
    135          1           0      -14.517823    0.517723   -2.503429
    136          1           0      -16.197314   -0.056313   -2.493029
    137          1           0      -14.786113   -1.153782   -2.204711
    138          1           0      -17.658416    0.073285   -1.105483
    139          1           0      -17.257249    0.817727    0.429169
    140          1           0      -17.344123   -0.950233    0.132837
 ---------------------------------------------------------------------

 SCF Done:  E(RZINDO/S) =  -473.966742044     A.U. after   19 cycles

 Excitation energies and oscillator strengths:

 Excited State   1:      Singlet-A      1.3314 eV  931.27 nm  f=0.5201  <S**2>=0.000
     175 ->178         0.17616
     176 ->177         0.66695
 This state for optimization and/or second-order correction.
 Total Energy, E(CIS/TDA) =  -473.917815763
 Copying the excited state density for this state as the 1-particle RhoCI density.

 Excited State   2:      Singlet-A      1.8961 eV  653.89 nm  f=0.0361  <S**2>=0.000
     175 ->177         0.53767
     176 ->178        -0.42613

 Excited State   3:      Singlet-A      2.9418 eV  421.46 nm  f=0.9163  <S**2>=0.000
     168 ->179         0.10131
     175 ->177         0.37498
     176 ->178         0.49276
     176 ->182        -0.11940

 Excited State   4:      Singlet-A      2.9644 eV  418.24 nm  f=0.1378  <S**2>=0.000
     176 ->179         0.51034
     176 ->180         0.39140
     176 ->181        -0.11961

 Excited State   5:      Singlet-A      2.9809 eV  415.93 nm  f=0.1596  <S**2>=0.000
     168 ->177        -0.32343
     168 ->179         0.36119
     168 ->180        -0.15005
     168 ->182        -0.17000
     168 ->184         0.13964
     168 ->186         0.20964
     175 ->177        -0.13378
     176 ->178        -0.16358

 The electronic state is 1-A.
 Alpha  occ. eigenvalues --   -1.82623  -1.81601  -1.79345  -1.71703  -1.70276
 Alpha  occ. eigenvalues --   -1.68564  -1.67092  -1.60075  -1.59448  -1.56858
 Alpha  occ. eigenvalues --   -1.55225  -1.50868  -1.47913  -1.47526  -1.47029
 Alpha  occ. eigenvalues --   -1.42528  -1.41353  -1.40555  -1.38951  -1.37827
 Alpha  occ. eigenvalues --   -1.36089  -1.33630  -1.32890  -1.31534  -1.28030
 Alpha  occ. eigenvalues --   -1.26032  -1.24218  -1.21973  -1.19562  -1.17562
 Alpha  occ. eigenvalues --   -1.16435  -1.16188  -1.14910  -1.14544  -1.12463
 Alpha  occ. eigenvalues --   -1.12357  -1.11527  -1.10653  -1.04904  -1.04244
 Alpha  occ. eigenvalues --   -1.03049  -1.00484  -0.99301  -0.97869  -0.97086
 Alpha  occ. eigenvalues --   -0.95488  -0.94893  -0.93344  -0.92312  -0.92153
 Alpha  occ. eigenvalues --   -0.90804  -0.90337  -0.89179  -0.87930  -0.87046
 Alpha  occ. eigenvalues --   -0.85549  -0.83148  -0.82758  -0.81490  -0.80315
 Alpha  occ. eigenvalues --   -0.78687  -0.77454  -0.76855  -0.76689  -0.76100
 Alpha  occ. eigenvalues --   -0.75497  -0.75246  -0.74252  -0.73978  -0.73181
 Alpha  occ. eigenvalues --   -0.72729  -0.72498  -0.72258  -0.71156  -0.70594
 Alpha  occ. eigenvalues --   -0.69806  -0.69038  -0.68727  -0.68409  -0.68072
 Alpha  occ. eigenvalues --   -0.67803  -0.67409  -0.66974  -0.66424  -0.65663
 Alpha  occ. eigenvalues --   -0.65210  -0.64679  -0.64125  -0.63931  -0.63239
 Alpha  occ. eigenvalues --   -0.62634  -0.62313  -0.61971  -0.61764  -0.61243
 Alpha  occ. eigenvalues --   -0.60845  -0.60637  -0.60596  -0.60331  -0.59681
 Alpha  occ. eigenvalues --   -0.59454  -0.59168  -0.58501  -0.58367  -0.57939
 Alpha  occ. eigenvalues --   -0.57803  -0.57553  -0.57465  -0.57003  -0.56595
 Alpha  occ. eigenvalues --   -0.55801  -0.55626  -0.55505  -0.55041  -0.54624
 Alpha  occ. eigenvalues --   -0.54528  -0.53956  -0.53205  -0.52862  -0.52726
 Alpha  occ. eigenvalues --   -0.52330  -0.52168  -0.52018  -0.51682  -0.51410
 Alpha  occ. eigenvalues --   -0.51089  -0.50966  -0.50603  -0.50278  -0.50159
 Alpha  occ. eigenvalues --   -0.49592  -0.49170  -0.48914  -0.48828  -0.48543
 Alpha  occ. eigenvalues --   -0.48191  -0.48147  -0.47791  -0.47677  -0.47400
 Alpha  occ. eigenvalues --   -0.47360  -0.46765  -0.46727  -0.46675  -0.46217
 Alpha  occ. eigenvalues --   -0.46197  -0.45790  -0.45671  -0.45248  -0.45005
 Alpha  occ. eigenvalues --   -0.44895  -0.44845  -0.44328  -0.44096  -0.43805
 Alpha  occ. eigenvalues --   -0.43534  -0.43115  -0.42900  -0.42779  -0.42423
 Alpha  occ. eigenvalues --   -0.41837  -0.41510  -0.41143  -0.39574  -0.38239
 Alpha  occ. eigenvalues --   -0.38066  -0.37430  -0.35886  -0.34330  -0.34303
 Alpha  occ. eigenvalues --   -0.33831  -0.32371  -0.31680  -0.31541  -0.26163
 Alpha  occ. eigenvalues --   -0.21514
 Alpha virt. eigenvalues --   -0.07790  -0.01915  -0.00464   0.01136   0.01172
 Alpha virt. eigenvalues --    0.01285   0.02948   0.03210   0.03834   0.04817
 Alpha virt. eigenvalues --    0.06255   0.06553   0.07496   0.08072   0.08263

 Mulliken charges:
               1
     1  Mg   0.433847
     2  C   -0.050253
     3  C   -0.096696
     4  C   -0.075057
     5  C   -0.067229
     6  N   -0.292171
     7  C    0.091215
     8  C    0.005398
     9  C    0.012055
    10  C    0.179078
    11  C   -0.046933
    12  C   -0.027432
    13  C    0.007427
    14  C    0.463799
    15  O   -0.504811
    16  O   -0.282903
    17  N   -0.343051
    18  C    0.149536
    19  C    0.034136
    20  C   -0.028732
    21  C    0.138977
    22  C   -0.043053
    23  C    0.320771
    24  O   -0.506374
    25  C   -0.045295
    26  N   -0.234891
    27  C    0.172814
    28  C    0.001484
    29  C   -0.005702
    30  C    0.078648
    31  C   -0.052932
    32  C   -0.034246
    33  C   -0.052119
    34  N   -0.317960
    35  C    0.048326
    36  C    0.019358
    37  C   -0.054851
    38  C    0.110833
    39  C   -0.039838
    40  C    0.322546
    41  O   -0.530444
    42  C    0.052478
    43  C    0.490162
    44  O   -0.515000
    45  O   -0.275760
    46  C    0.064576
    47  C    0.111511
    48  C   -0.087231
    49  C   -0.008679
    50  C   -0.050408
    51  C   -0.022049
    52  C   -0.028919
    53  C   -0.034352
    54  C   -0.029961
    55  C   -0.066739
    56  C   -0.037509
    57  C   -0.035449
    58  C   -0.035314
    59  C    0.003643
    60  C   -0.053318
    61  C   -0.027209
    62  C   -0.048918
    63  C   -0.034441
    64  C   -0.003229
    65  C   -0.059915
    66  C   -0.060810
    67  H    0.011143
    68  H    0.040489
    69  H    0.026002
    70  H    0.049155
    71  H    0.029024
    72  H    0.024443
    73  H    0.028562
    74  H    0.026785
    75  H    0.041804
    76  H    0.022538
    77  H    0.050610
    78  H    0.044750
    79  H    0.030482
    80  H    0.019574
    81  H    0.033233
    82  H    0.038091
    83  H    0.050257
    84  H    0.051352
    85  H    0.035816
    86  H    0.037230
    87  H    0.020680
    88  H    0.028337
    89  H    0.021981
    90  H    0.021980
    91  H    0.006337
    92  H    0.028890
    93  H    0.028190
    94  H    0.020218
    95  H    0.025311
    96  H    0.033389
    97  H    0.027072
    98  H    0.049643
    99  H    0.052147
   100  H    0.044192
   101  H    0.029734
   102  H    0.046581
   103  H    0.053019
   104  H    0.024561
   105  H    0.026639
   106  H    0.029150
   107  H    0.025540
   108  H    0.020081
   109  H    0.016226
   110  H    0.032722
   111  H    0.009680
   112  H    0.023931
   113  H    0.016790
   114  H    0.013376
   115  H    0.027348
   116  H    0.026506
   117  H    0.010220
   118  H    0.023838
   119  H    0.016446
   120  H    0.020161
   121  H    0.018455
   122  H    0.020738
   123  H    0.004639
   124  H    0.015787
   125  H    0.020301
   126  H    0.011933
   127  H    0.016021
   128  H    0.014162
   129  H    0.030694
   130  H    0.015605
   131  H    0.016382
   132  H    0.016161
   133  H    0.022853
   134  H    0.018965
   135  H    0.019571
   136  H    0.022170
   137  H    0.015334
   138  H    0.014418
   139  H    0.017794
   140  H    0.011321
 Sum of Mulliken charges =  -0.00000

 Dipole moment (field-independent basis, Debye):
    X=             -4.4326    Y=              8.1282    Z=              1.7568  Tot=              9.4234
 N-N= 4.279727852223D+03 E-N= 0.000000000000D+00  KE=-9.234013087668D+03
 Leave Link  601 at Wed May  4 16:20:37 2022, MaxMem=  6710886400 cpu:               0.7 elap:               0.0
 (Enter /sw/apps/gaussian-16.0/g16/l9999.exe)
 1\1\GINC-BP1-COMPUTE167\SP\RZINDO CIS\STO-3G\C55H74Mg1N4O6\OF15641\04-
 May-2022\0\\#p ZINDO=(nstates=5)\\step_1851_chromophore_4 ZINDO\\0,1\M
 g,0,9.206,3.705,27.868\C,0,10.562,1.95,30.597\C,0,7.299,5.466,29.985\C
 ,0,7.422,4.874,25.261\C,0,10.487,1.156,25.711\N,0,8.802,3.491,30.006\C
 ,0,9.567,2.896,30.986\C,0,9.175,3.444,32.42\C,0,7.949,4.289,32.131\C,0
 ,7.937,4.377,30.621\C,0,6.598,3.837,32.798\C,0,10.412,4.336,33.093\C,0
 ,10.866,3.78,34.471\C,0,9.78,3.564,35.542\O,0,8.838,4.314,35.702\O,0,1

 Normal termination of Gaussian 16 at Wed May  4 16:20:37 2022.
