 Gaussian 16, Revision A.03,
 Gaussian 16:  ES64L-G16RevA.03 25-Dec-2016

 ------------------------------
 #p blyp/Def2SVP td=(nstates=5)
 ------------------------------

 ---------------------------------------------------
 step_1601_chromophore_17 TDDFT with blyp functional
 ---------------------------------------------------
 Symbolic Z-matrix:
 Charge =  0 Multiplicity = 1

                         Standard orientation:
 ---------------------------------------------------------------------
 Center     Atomic      Atomic             Coordinates (Angstroms)
 Number     Number       Type             X           Y           Z
 ---------------------------------------------------------------------
      1         12           0        3.813671    1.494323   -0.431820
      2          6           0        4.293073   -1.946269   -0.665373
      3          6           0        1.847239    1.407739   -3.111220
      4          6           0        3.144355    4.677803    0.183680
      5          6           0        6.052254    1.461793    2.349074
      6          7           0        3.084269   -0.113555   -1.601558
      7          6           0        3.299656   -1.459781   -1.503478
      8          6           0        2.344696   -2.169758   -2.431940
      9          6           0        1.994907   -1.077177   -3.459528
     10          6           0        2.360987    0.203671   -2.729329
     11          6           0        2.675602   -1.129289   -4.878631
     12          6           0        1.189191   -2.904559   -1.676259
     13          6           0        1.170338   -4.447771   -1.671140
     14          6           0        0.348527   -5.178361   -0.583850
     15          8           0        0.769193   -6.207330   -0.026060
     16          8           0       -0.901864   -4.592225   -0.339128
     17          7           0        2.559256    2.867372   -1.381723
     18          6           0        1.846831    2.630766   -2.482152
     19          6           0        1.073613    3.877954   -2.835392
     20          6           0        1.451860    4.823119   -1.877335
     21          6           0        2.417994    4.157955   -0.931848
     22          6           0       -0.053730    3.928267   -3.899483
     23          6           0        0.821934    6.233162   -1.828342
     24          8           0        0.037046    6.571153   -2.751850
     25          6           0        1.168367    7.087291   -0.740285
     26          7           0        4.407080    2.884417    1.128693
     27          6           0        4.025548    4.159147    1.091363
     28          6           0        4.578042    4.928790    2.319852
     29          6           0        5.528565    3.886012    2.948886
     30          6           0        5.333695    2.627277    2.126318
     31          6           0        5.317684    6.335510    1.920608
     32          6           0        5.605358    3.665842    4.473119
     33          6           0        6.930450    3.783340    5.173783
     34          7           0        5.158985    0.124866    0.549750
     35          6           0        6.001433    0.260312    1.632666
     36          6           0        6.738288   -1.012908    1.893531
     37          6           0        6.068361   -1.878532    1.020810
     38          6           0        5.117798   -1.190365    0.282133
     39          6           0        7.825777   -1.257092    2.871907
     40          6           0        5.983633   -3.260938    0.614497
     41          8           0        6.623507   -4.243410    0.926434
     42          6           0        4.830820   -3.363826   -0.450911
     43          6           0        5.416896   -4.050429   -1.586278
     44          8           0        6.300068   -3.598516   -2.290353
     45          8           0        4.810344   -5.238465   -1.806258
     46          6           0        4.726692   -5.730734   -3.171878
     47          6           0       -1.795851   -5.297683    0.565268
     48          6           0       -2.231376   -4.304363    1.608867
     49          6           0       -3.235818   -4.357450    2.425554
     50          6           0       -4.187016   -5.574089    2.472262
     51          6           0       -3.749581   -3.155524    3.250613
     52          6           0       -3.979311   -1.829523    2.640617
     53          6           0       -5.330851   -1.264917    2.963354
     54          6           0       -6.532078   -1.709545    2.068120
     55          6           0       -7.464096   -2.667183    2.743045
     56          6           0       -7.405955   -0.480316    1.658673
     57          6           0       -7.028488    0.159571    0.296849
     58          6           0       -8.068757    1.390324    0.103531
     59          6           0       -8.664554    1.345824   -1.312211
     60          6           0       -7.651966    1.606460   -2.393237
     61          6           0       -9.791056    2.323317   -1.460693
     62          6           0      -11.197783    1.671353   -1.729215
     63          6           0      -12.319962    1.968322   -0.680358
     64          6           0      -12.407136    0.995743    0.471145
     65          6           0      -13.579617    0.078606    0.616742
     66          6           0      -12.286645    1.808676    1.721752
     67          1           0        1.132473    1.298775   -3.929316
     68          1           0        3.046030    5.712940    0.518119
     69          1           0        6.711557    1.424856    3.218656
     70          1           0        2.841838   -2.899328   -3.071040
     71          1           0        0.912275   -0.968891   -3.510795
     72          1           0        2.767825   -2.118979   -5.324120
     73          1           0        3.573779   -0.524526   -4.751985
     74          1           0        2.035936   -0.586584   -5.575290
     75          1           0        0.286485   -2.628739   -2.219632
     76          1           0        1.074009   -2.633538   -0.625955
     77          1           0        2.205621   -4.786402   -1.683536
     78          1           0        0.756504   -4.748630   -2.633740
     79          1           0       -0.921592    4.490423   -3.554742
     80          1           0       -0.282167    2.908650   -4.210265
     81          1           0        0.312233    4.347645   -4.836712
     82          1           0        1.026694    6.545982    0.194847
     83          1           0        0.441849    7.897819   -0.800975
     84          1           0        2.157743    7.486466   -0.964811
     85          1           0        3.684732    5.096973    2.922872
     86          1           0        6.504889    4.226633    2.604347
     87          1           0        4.892646    6.575212    0.945011
     88          1           0        6.405740    6.298490    1.969477
     89          1           0        4.934579    7.115902    2.577420
     90          1           0        5.138132    2.684751    4.560891
     91          1           0        4.916206    4.342552    4.977659
     92          1           0        7.721812    4.230658    4.573375
     93          1           0        7.203184    2.736208    5.308254
     94          1           0        6.818759    4.326324    6.111731
     95          1           0        8.539489   -0.435828    2.935806
     96          1           0        8.271972   -2.251741    2.866243
     97          1           0        7.378457   -1.037463    3.840894
     98          1           0        4.096701   -4.072487   -0.067600
     99          1           0        5.098817   -4.975371   -3.863947
    100          1           0        3.725205   -6.017806   -3.492393
    101          1           0        5.470962   -6.524190   -3.232227
    102          1           0       -1.356767   -6.119677    1.130660
    103          1           0       -2.593317   -5.696156   -0.063329
    104          1           0       -1.696970   -3.355645    1.657571
    105          1           0       -5.039363   -5.363332    1.826420
    106          1           0       -4.513929   -5.700051    3.504320
    107          1           0       -3.694734   -6.486000    2.135957
    108          1           0       -2.971605   -3.022349    4.002502
    109          1           0       -4.719133   -3.444784    3.657330
    110          1           0       -3.864475   -1.862330    1.556368
    111          1           0       -3.196452   -1.134805    2.944235
    112          1           0       -5.265430   -0.180679    2.877052
    113          1           0       -5.648912   -1.247972    4.005208
    114          1           0       -6.200186   -2.171339    1.137839
    115          1           0       -7.802973   -3.374229    1.986220
    116          1           0       -8.382072   -2.220341    3.124617
    117          1           0       -6.973838   -3.255091    3.519886
    118          1           0       -7.307966    0.314923    2.397416
    119          1           0       -8.438781   -0.778101    1.478970
    120          1           0       -7.177845   -0.597580   -0.472039
    121          1           0       -6.000782    0.515454    0.365446
    122          1           0       -7.518984    2.317077    0.266552
    123          1           0       -8.723167    1.407755    0.974907
    124          1           0       -9.008520    0.316932   -1.418408
    125          1           0       -7.276707    0.627435   -2.692686
    126          1           0       -6.853482    2.269575   -2.061034
    127          1           0       -8.178214    2.023535   -3.251746
    128          1           0       -9.561589    3.008513   -2.277179
    129          1           0       -9.791053    3.017835   -0.619940
    130          1           0      -11.173016    0.582507   -1.783575
    131          1           0      -11.503025    1.888578   -2.753235
    132          1           0      -13.273650    1.865136   -1.199003
    133          1           0      -12.242630    2.993177   -0.318411
    134          1           0      -11.505176    0.383491    0.451680
    135          1           0      -14.321153    0.437918    1.329149
    136          1           0      -13.215046   -0.843779    1.068845
    137          1           0      -14.022885   -0.114973   -0.360119
    138          1           0      -12.229098    1.123296    2.568516
    139          1           0      -13.081853    2.550254    1.794429
    140          1           0      -11.307161    2.272451    1.836010
 ---------------------------------------------------------------------

 SCF Done:  E(RB-LYP) =  -3007.36128974     A.U. after   21 cycles

 Excitation energies and oscillator strengths:

 Excited State   1:      Singlet-A      1.8248 eV  679.44 nm  f=0.3081  <S**2>=0.000
     245 -> 248       -0.17451
     246 -> 247        0.68826
     246 <- 247       -0.15345
 This state for optimization and/or second-order correction.
 Total Energy, E(TD-HF/TD-DFT) =  -3007.29422929
 Copying the excited state density for this state as the 1-particle RhoCI density.

 Excited State   2:      Singlet-A      1.8833 eV  658.32 nm  f=0.0100  <S**2>=0.000
     244 -> 247        0.68003
     245 -> 247       -0.17084

 Excited State   3:      Singlet-A      2.0042 eV  618.62 nm  f=0.0002  <S**2>=0.000
     243 -> 247        0.70638

 Excited State   4:      Singlet-A      2.0701 eV  598.94 nm  f=0.0611  <S**2>=0.000
     244 -> 247        0.17184
     245 -> 247        0.61628
     246 -> 248        0.25021
     246 -> 249       -0.11260

 Excited State   5:      Singlet-A      2.3586 eV  525.67 nm  f=0.0000  <S**2>=0.000
     242 -> 247        0.70666

 The electronic state is 1-A.
 Alpha  occ. eigenvalues --  -46.27342 -18.82674 -18.81330 -18.77165 -18.75745
 Alpha  occ. eigenvalues --  -18.75648 -18.75306 -14.03322 -14.03131 -14.01670
 Alpha  occ. eigenvalues --  -14.00740 -10.04933 -10.02956  -9.99998  -9.98979
 Alpha  occ. eigenvalues --   -9.98173  -9.97633  -9.97261  -9.96879  -9.96501
 Alpha  occ. eigenvalues --   -9.96400  -9.96394  -9.95818  -9.95630  -9.94875
 Alpha  occ. eigenvalues --   -9.94626  -9.94525  -9.94215  -9.94192  -9.94181
 Alpha  occ. eigenvalues --   -9.94137  -9.94056  -9.93673  -9.93569  -9.93559
 Alpha  occ. eigenvalues --   -9.93253  -9.93010  -9.92985  -9.92956  -9.92912
 Alpha  occ. eigenvalues --   -9.92755  -9.92744  -9.92514  -9.92419  -9.92366
 Alpha  occ. eigenvalues --   -9.92261  -9.92138  -9.91955  -9.91811  -9.91579
 Alpha  occ. eigenvalues --   -9.91299  -9.91285  -9.91259  -9.91199  -9.91191
 Alpha  occ. eigenvalues --   -9.91158  -9.91105  -9.90848  -9.90836  -9.90762
 Alpha  occ. eigenvalues --   -9.90676  -9.90649  -9.90616  -9.90542  -9.90495
 Alpha  occ. eigenvalues --   -9.90239  -2.91910  -1.72360  -1.71746  -1.71653
 Alpha  occ. eigenvalues --   -0.97858  -0.97023  -0.91477  -0.90134  -0.89491
 Alpha  occ. eigenvalues --   -0.89336  -0.86966  -0.86341  -0.86117  -0.85414
 Alpha  occ. eigenvalues --   -0.75142  -0.74190  -0.73489  -0.73148  -0.73000
 Alpha  occ. eigenvalues --   -0.72573  -0.72273  -0.71897  -0.71523  -0.70373
 Alpha  occ. eigenvalues --   -0.69794  -0.69488  -0.68870  -0.68191  -0.68017
 Alpha  occ. eigenvalues --   -0.67307  -0.66568  -0.66043  -0.65678  -0.64978
 Alpha  occ. eigenvalues --   -0.64530  -0.63104  -0.62518  -0.61836  -0.61020
 Alpha  occ. eigenvalues --   -0.60732  -0.60281  -0.60272  -0.59437  -0.59046
 Alpha  occ. eigenvalues --   -0.58534  -0.58282  -0.57377  -0.56147  -0.55266
 Alpha  occ. eigenvalues --   -0.54211  -0.53838  -0.52780  -0.52723  -0.51955
 Alpha  occ. eigenvalues --   -0.51428  -0.51279  -0.51069  -0.50916  -0.50307
 Alpha  occ. eigenvalues --   -0.50089  -0.49361  -0.48690  -0.48573  -0.46950
 Alpha  occ. eigenvalues --   -0.46370  -0.46075  -0.45844  -0.45338  -0.44499
 Alpha  occ. eigenvalues --   -0.43898  -0.43690  -0.43508  -0.42781  -0.42603
 Alpha  occ. eigenvalues --   -0.42488  -0.42097  -0.41976  -0.41781  -0.41582
 Alpha  occ. eigenvalues --   -0.41167  -0.40996  -0.40840  -0.40799  -0.40549
 Alpha  occ. eigenvalues --   -0.40348  -0.40330  -0.39928  -0.39836  -0.39714
 Alpha  occ. eigenvalues --   -0.39257  -0.38915  -0.38609  -0.38558  -0.38543
 Alpha  occ. eigenvalues --   -0.38442  -0.38051  -0.37767  -0.37513  -0.37406
 Alpha  occ. eigenvalues --   -0.37105  -0.37051  -0.36848  -0.36805  -0.36486
 Alpha  occ. eigenvalues --   -0.36402  -0.36384  -0.36102  -0.36069  -0.35890
 Alpha  occ. eigenvalues --   -0.35855  -0.35591  -0.35196  -0.35023  -0.34763
 Alpha  occ. eigenvalues --   -0.34402  -0.34206  -0.34140  -0.34031  -0.33958
 Alpha  occ. eigenvalues --   -0.33844  -0.33821  -0.33675  -0.33464  -0.33417
 Alpha  occ. eigenvalues --   -0.33128  -0.32880  -0.32781  -0.32629  -0.32290
 Alpha  occ. eigenvalues --   -0.32189  -0.32031  -0.31991  -0.31828  -0.31557
 Alpha  occ. eigenvalues --   -0.31410  -0.31226  -0.30908  -0.30756  -0.30647
 Alpha  occ. eigenvalues --   -0.30527  -0.30292  -0.30126  -0.29866  -0.29740
 Alpha  occ. eigenvalues --   -0.29682  -0.29641  -0.29557  -0.29231  -0.29047
 Alpha  occ. eigenvalues --   -0.28878  -0.28542  -0.28399  -0.28013  -0.27847
 Alpha  occ. eigenvalues --   -0.27648  -0.27510  -0.27203  -0.26764  -0.26735
 Alpha  occ. eigenvalues --   -0.26623  -0.26542  -0.25862  -0.25804  -0.25365
 Alpha  occ. eigenvalues --   -0.25099  -0.24683  -0.24409  -0.24112  -0.23670
 Alpha  occ. eigenvalues --   -0.23491  -0.22498  -0.22014  -0.21217  -0.20944
 Alpha  occ. eigenvalues --   -0.20452  -0.20330  -0.18957  -0.18517  -0.17705
 Alpha  occ. eigenvalues --   -0.15924
 Alpha virt. eigenvalues --   -0.11663  -0.07143  -0.06008  -0.04736  -0.03626
 Alpha virt. eigenvalues --   -0.02479  -0.01801  -0.01329  -0.00627  -0.00321
 Alpha virt. eigenvalues --    0.00864   0.01330   0.01931   0.01980   0.02491

 Mulliken charges:
               1
     1  Mg   0.677754
     2  C    0.104528
     3  C   -0.063539
     4  C    0.000112
     5  C   -0.079807
     6  N   -0.251374
     7  C   -0.068827
     8  C    0.046852
     9  C   -0.033099
    10  C    0.026206
    11  C    0.148251
    12  C    0.151036
    13  C    0.079770
    14  C    0.094927
    15  O   -0.188683
    16  O   -0.287113
    17  N   -0.272741
    18  C    0.116652
    19  C   -0.132583
    20  C    0.010061
    21  C    0.149550
    22  C    0.203125
    23  C   -0.104435
    24  O   -0.194449
    25  C    0.190507
    26  N   -0.207451
    27  C   -0.106340
    28  C    0.015513
    29  C    0.064136
    30  C    0.023748
    31  C    0.117087
    32  C    0.099855
    33  C    0.083232
    34  N   -0.226941
    35  C    0.081270
    36  C   -0.176399
    37  C    0.118179
    38  C    0.016802
    39  C    0.217699
    40  C   -0.083014
    41  O   -0.115095
    42  C    0.063120
    43  C    0.059420
    44  O   -0.173353
    45  O   -0.257852
    46  C    0.214957
    47  C    0.331019
    48  C   -0.101422
    49  C   -0.184657
    50  C    0.119678
    51  C    0.161908
    52  C    0.128402
    53  C    0.099951
    54  C   -0.027435
    55  C    0.120369
    56  C    0.024267
    57  C    0.050791
    58  C    0.083139
    59  C   -0.098854
    60  C    0.141008
    61  C    0.158879
    62  C    0.054295
    63  C    0.140917
    64  C   -0.090919
    65  C    0.137665
    66  C    0.082575
    67  H   -0.063151
    68  H   -0.079328
    69  H   -0.082713
    70  H   -0.046399
    71  H   -0.034081
    72  H    0.003113
    73  H    0.010686
    74  H   -0.010102
    75  H   -0.027213
    76  H   -0.005180
    77  H    0.010761
    78  H   -0.001038
    79  H    0.022722
    80  H   -0.034457
    81  H   -0.006141
    82  H    0.020101
    83  H   -0.012716
    84  H    0.025483
    85  H   -0.016831
    86  H   -0.031624
    87  H   -0.007581
    88  H    0.009020
    89  H   -0.009227
    90  H   -0.022143
    91  H   -0.033572
    92  H   -0.006929
    93  H   -0.001166
    94  H   -0.002524
    95  H   -0.021315
    96  H    0.024730
    97  H   -0.017459
    98  H   -0.005233
    99  H    0.005166
   100  H    0.021336
   101  H    0.018290
   102  H    0.019195
   103  H    0.001337
   104  H   -0.045257
   105  H    0.007471
   106  H   -0.002065
   107  H   -0.012821
   108  H   -0.013990
   109  H   -0.037453
   110  H   -0.034330
   111  H   -0.046485
   112  H   -0.059150
   113  H   -0.047292
   114  H   -0.045901
   115  H   -0.027607
   116  H   -0.017230
   117  H   -0.022867
   118  H   -0.019898
   119  H   -0.024822
   120  H   -0.024254
   121  H   -0.027675
   122  H   -0.045021
   123  H   -0.025901
   124  H   -0.035976
   125  H   -0.023677
   126  H   -0.012078
   127  H   -0.018709
   128  H   -0.049915
   129  H   -0.042918
   130  H   -0.037954
   131  H   -0.040758
   132  H   -0.057437
   133  H   -0.033288
   134  H   -0.038749
   135  H   -0.019635
   136  H   -0.021127
   137  H   -0.021018
   138  H   -0.038940
   139  H   -0.005599
   140  H   -0.026324
 Sum of Mulliken charges =  -0.00000

 Dipole moment (field-independent basis, Debye):
    X=             -2.9598    Y=              3.7135    Z=              1.3773  Tot=              4.9444
 Quadrupole moment (field-independent basis, Debye-Ang):
   XX=           -425.5065   YY=           -428.7069   ZZ=           -386.2300
   XY=             55.9351   XZ=             11.6193   YZ=             37.1188

 Normal termination of Gaussian 16 at Thu Apr 28 15:17:47 2022.
