 Gaussian 16, Revision A.03,
 Gaussian 16:  ES64L-G16RevA.03 25-Dec-2016

 -----------------------------------
 #p cam-b3lyp/Def2SVP td=(nstates=5)
 -----------------------------------

 --------------------------------------------------------
 step_1601_chromophore_17 TDDFT with cam-b3lyp functional
 --------------------------------------------------------
 Symbolic Z-matrix:
 Charge =  0 Multiplicity = 1

                         Standard orientation:
 ---------------------------------------------------------------------
 Center     Atomic      Atomic             Coordinates (Angstroms)
 Number     Number       Type             X           Y           Z
 ---------------------------------------------------------------------
      1         12           0        3.813671    1.494323   -0.431820
      2          6           0        4.293073   -1.946269   -0.665373
      3          6           0        1.847239    1.407739   -3.111220
      4          6           0        3.144355    4.677803    0.183680
      5          6           0        6.052254    1.461793    2.349074
      6          7           0        3.084269   -0.113555   -1.601558
      7          6           0        3.299656   -1.459781   -1.503478
      8          6           0        2.344696   -2.169758   -2.431940
      9          6           0        1.994907   -1.077177   -3.459528
     10          6           0        2.360987    0.203671   -2.729329
     11          6           0        2.675602   -1.129289   -4.878631
     12          6           0        1.189191   -2.904559   -1.676259
     13          6           0        1.170338   -4.447771   -1.671140
     14          6           0        0.348527   -5.178361   -0.583850
     15          8           0        0.769193   -6.207330   -0.026060
     16          8           0       -0.901864   -4.592225   -0.339128
     17          7           0        2.559256    2.867372   -1.381723
     18          6           0        1.846831    2.630766   -2.482152
     19          6           0        1.073613    3.877954   -2.835392
     20          6           0        1.451860    4.823119   -1.877335
     21          6           0        2.417994    4.157955   -0.931848
     22          6           0       -0.053730    3.928267   -3.899483
     23          6           0        0.821934    6.233162   -1.828342
     24          8           0        0.037046    6.571153   -2.751850
     25          6           0        1.168367    7.087291   -0.740285
     26          7           0        4.407080    2.884417    1.128693
     27          6           0        4.025548    4.159147    1.091363
     28          6           0        4.578042    4.928790    2.319852
     29          6           0        5.528565    3.886012    2.948886
     30          6           0        5.333695    2.627277    2.126318
     31          6           0        5.317684    6.335510    1.920608
     32          6           0        5.605358    3.665842    4.473119
     33          6           0        6.930450    3.783340    5.173783
     34          7           0        5.158985    0.124866    0.549750
     35          6           0        6.001433    0.260312    1.632666
     36          6           0        6.738288   -1.012908    1.893531
     37          6           0        6.068361   -1.878532    1.020810
     38          6           0        5.117798   -1.190365    0.282133
     39          6           0        7.825777   -1.257092    2.871907
     40          6           0        5.983633   -3.260938    0.614497
     41          8           0        6.623507   -4.243410    0.926434
     42          6           0        4.830820   -3.363826   -0.450911
     43          6           0        5.416896   -4.050429   -1.586278
     44          8           0        6.300068   -3.598516   -2.290353
     45          8           0        4.810344   -5.238465   -1.806258
     46          6           0        4.726692   -5.730734   -3.171878
     47          6           0       -1.795851   -5.297683    0.565268
     48          6           0       -2.231376   -4.304363    1.608867
     49          6           0       -3.235818   -4.357450    2.425554
     50          6           0       -4.187016   -5.574089    2.472262
     51          6           0       -3.749581   -3.155524    3.250613
     52          6           0       -3.979311   -1.829523    2.640617
     53          6           0       -5.330851   -1.264917    2.963354
     54          6           0       -6.532078   -1.709545    2.068120
     55          6           0       -7.464096   -2.667183    2.743045
     56          6           0       -7.405955   -0.480316    1.658673
     57          6           0       -7.028488    0.159571    0.296849
     58          6           0       -8.068757    1.390324    0.103531
     59          6           0       -8.664554    1.345824   -1.312211
     60          6           0       -7.651966    1.606460   -2.393237
     61          6           0       -9.791056    2.323317   -1.460693
     62          6           0      -11.197783    1.671353   -1.729215
     63          6           0      -12.319962    1.968322   -0.680358
     64          6           0      -12.407136    0.995743    0.471145
     65          6           0      -13.579617    0.078606    0.616742
     66          6           0      -12.286645    1.808676    1.721752
     67          1           0        1.132473    1.298775   -3.929316
     68          1           0        3.046030    5.712940    0.518119
     69          1           0        6.711557    1.424856    3.218656
     70          1           0        2.841838   -2.899328   -3.071040
     71          1           0        0.912275   -0.968891   -3.510795
     72          1           0        2.767825   -2.118979   -5.324120
     73          1           0        3.573779   -0.524526   -4.751985
     74          1           0        2.035936   -0.586584   -5.575290
     75          1           0        0.286485   -2.628739   -2.219632
     76          1           0        1.074009   -2.633538   -0.625955
     77          1           0        2.205621   -4.786402   -1.683536
     78          1           0        0.756504   -4.748630   -2.633740
     79          1           0       -0.921592    4.490423   -3.554742
     80          1           0       -0.282167    2.908650   -4.210265
     81          1           0        0.312233    4.347645   -4.836712
     82          1           0        1.026694    6.545982    0.194847
     83          1           0        0.441849    7.897819   -0.800975
     84          1           0        2.157743    7.486466   -0.964811
     85          1           0        3.684732    5.096973    2.922872
     86          1           0        6.504889    4.226633    2.604347
     87          1           0        4.892646    6.575212    0.945011
     88          1           0        6.405740    6.298490    1.969477
     89          1           0        4.934579    7.115902    2.577420
     90          1           0        5.138132    2.684751    4.560891
     91          1           0        4.916206    4.342552    4.977659
     92          1           0        7.721812    4.230658    4.573375
     93          1           0        7.203184    2.736208    5.308254
     94          1           0        6.818759    4.326324    6.111731
     95          1           0        8.539489   -0.435828    2.935806
     96          1           0        8.271972   -2.251741    2.866243
     97          1           0        7.378457   -1.037463    3.840894
     98          1           0        4.096701   -4.072487   -0.067600
     99          1           0        5.098817   -4.975371   -3.863947
    100          1           0        3.725205   -6.017806   -3.492393
    101          1           0        5.470962   -6.524190   -3.232227
    102          1           0       -1.356767   -6.119677    1.130660
    103          1           0       -2.593317   -5.696156   -0.063329
    104          1           0       -1.696970   -3.355645    1.657571
    105          1           0       -5.039363   -5.363332    1.826420
    106          1           0       -4.513929   -5.700051    3.504320
    107          1           0       -3.694734   -6.486000    2.135957
    108          1           0       -2.971605   -3.022349    4.002502
    109          1           0       -4.719133   -3.444784    3.657330
    110          1           0       -3.864475   -1.862330    1.556368
    111          1           0       -3.196452   -1.134805    2.944235
    112          1           0       -5.265430   -0.180679    2.877052
    113          1           0       -5.648912   -1.247972    4.005208
    114          1           0       -6.200186   -2.171339    1.137839
    115          1           0       -7.802973   -3.374229    1.986220
    116          1           0       -8.382072   -2.220341    3.124617
    117          1           0       -6.973838   -3.255091    3.519886
    118          1           0       -7.307966    0.314923    2.397416
    119          1           0       -8.438781   -0.778101    1.478970
    120          1           0       -7.177845   -0.597580   -0.472039
    121          1           0       -6.000782    0.515454    0.365446
    122          1           0       -7.518984    2.317077    0.266552
    123          1           0       -8.723167    1.407755    0.974907
    124          1           0       -9.008520    0.316932   -1.418408
    125          1           0       -7.276707    0.627435   -2.692686
    126          1           0       -6.853482    2.269575   -2.061034
    127          1           0       -8.178214    2.023535   -3.251746
    128          1           0       -9.561589    3.008513   -2.277179
    129          1           0       -9.791053    3.017835   -0.619940
    130          1           0      -11.173016    0.582507   -1.783575
    131          1           0      -11.503025    1.888578   -2.753235
    132          1           0      -13.273650    1.865136   -1.199003
    133          1           0      -12.242630    2.993177   -0.318411
    134          1           0      -11.505176    0.383491    0.451680
    135          1           0      -14.321153    0.437918    1.329149
    136          1           0      -13.215046   -0.843779    1.068845
    137          1           0      -14.022885   -0.114973   -0.360119
    138          1           0      -12.229098    1.123296    2.568516
    139          1           0      -13.081853    2.550254    1.794429
    140          1           0      -11.307161    2.272451    1.836010
 ---------------------------------------------------------------------

 SCF Done:  E(RCAM-B3LYP) =  -3007.16698377     A.U. after   19 cycles

 Excitation energies and oscillator strengths:

 Excited State   1:      Singlet-A      1.7281 eV  717.46 nm  f=0.3888  <S**2>=0.000
     245 -> 248       -0.16731
     246 -> 247        0.68864
     245 <- 248       -0.10303
 This state for optimization and/or second-order correction.
 Total Energy, E(TD-HF/TD-DFT) =  -3007.10347717
 Copying the excited state density for this state as the 1-particle RhoCI density.

 Excited State   2:      Singlet-A      2.3005 eV  538.93 nm  f=0.0761  <S**2>=0.000
     245 -> 247        0.62270
     246 -> 248        0.32022

 Excited State   3:      Singlet-A      3.4265 eV  361.84 nm  f=0.0303  <S**2>=0.000
     244 -> 247        0.64170
     246 -> 248        0.22604

 Excited State   4:      Singlet-A      3.5276 eV  351.47 nm  f=0.4962  <S**2>=0.000
     241 -> 247        0.32462
     242 -> 247        0.12651
     244 -> 247       -0.16944
     245 -> 247       -0.25956
     246 -> 248        0.51910

 Excited State   5:      Singlet-A      3.5904 eV  345.32 nm  f=0.0217  <S**2>=0.000
     241 -> 247       -0.12260
     242 -> 247        0.57696
     242 -> 249       -0.21734
     242 -> 250        0.26544
     246 -> 248       -0.10157

 The electronic state is 1-A.
 Alpha  occ. eigenvalues --  -46.88943 -19.25521 -19.24182 -19.20139 -19.19237
 Alpha  occ. eigenvalues --  -19.18614 -19.18249 -14.42175 -14.42065 -14.40433
 Alpha  occ. eigenvalues --  -14.39018 -10.40345 -10.38163 -10.35493 -10.34052
 Alpha  occ. eigenvalues --  -10.32215 -10.32136 -10.31612 -10.31188 -10.31148
 Alpha  occ. eigenvalues --  -10.31037 -10.30650 -10.30626 -10.29499 -10.29239
 Alpha  occ. eigenvalues --  -10.28966 -10.28638 -10.28556 -10.28395 -10.28349
 Alpha  occ. eigenvalues --  -10.28225 -10.28063 -10.27812 -10.27568 -10.27439
 Alpha  occ. eigenvalues --  -10.27382 -10.27320 -10.27086 -10.26975 -10.26913
 Alpha  occ. eigenvalues --  -10.26654 -10.26612 -10.26384 -10.26358 -10.26357
 Alpha  occ. eigenvalues --  -10.26022 -10.25918 -10.25790 -10.25516 -10.25219
 Alpha  occ. eigenvalues --  -10.25032 -10.24986 -10.24943 -10.24837 -10.24826
 Alpha  occ. eigenvalues --  -10.24814 -10.24806 -10.24629 -10.24602 -10.24449
 Alpha  occ. eigenvalues --  -10.24265 -10.24243 -10.24223 -10.24198 -10.24081
 Alpha  occ. eigenvalues --  -10.23837  -3.17414  -1.92342  -1.91832  -1.91743
 Alpha  occ. eigenvalues --   -1.16333  -1.15378  -1.09681  -1.08741  -1.07332
 Alpha  occ. eigenvalues --   -1.07203  -1.04820  -1.04070  -1.03800  -1.02917
 Alpha  occ. eigenvalues --   -0.92133  -0.91084  -0.90341  -0.89897  -0.89769
 Alpha  occ. eigenvalues --   -0.89320  -0.89030  -0.88560  -0.88159  -0.86782
 Alpha  occ. eigenvalues --   -0.86562  -0.86033  -0.85249  -0.84675  -0.84192
 Alpha  occ. eigenvalues --   -0.83573  -0.82659  -0.81981  -0.81483  -0.80795
 Alpha  occ. eigenvalues --   -0.80312  -0.78698  -0.78095  -0.77527  -0.76504
 Alpha  occ. eigenvalues --   -0.76098  -0.75662  -0.75648  -0.74750  -0.74222
 Alpha  occ. eigenvalues --   -0.73609  -0.73274  -0.72341  -0.71024  -0.69852
 Alpha  occ. eigenvalues --   -0.68722  -0.68419  -0.67549  -0.67124  -0.66020
 Alpha  occ. eigenvalues --   -0.65576  -0.65309  -0.65261  -0.65094  -0.64147
 Alpha  occ. eigenvalues --   -0.64047  -0.63328  -0.62485  -0.62320  -0.60599
 Alpha  occ. eigenvalues --   -0.60010  -0.59685  -0.59318  -0.58704  -0.57928
 Alpha  occ. eigenvalues --   -0.57408  -0.56945  -0.56877  -0.56036  -0.55972
 Alpha  occ. eigenvalues --   -0.55271  -0.55192  -0.54840  -0.54637  -0.54328
 Alpha  occ. eigenvalues --   -0.54103  -0.53869  -0.53653  -0.53494  -0.53389
 Alpha  occ. eigenvalues --   -0.53108  -0.52979  -0.52686  -0.52510  -0.52211
 Alpha  occ. eigenvalues --   -0.52062  -0.51505  -0.51198  -0.50980  -0.50867
 Alpha  occ. eigenvalues --   -0.50810  -0.50478  -0.50283  -0.50042  -0.49683
 Alpha  occ. eigenvalues --   -0.49541  -0.49333  -0.49229  -0.49145  -0.48925
 Alpha  occ. eigenvalues --   -0.48682  -0.48499  -0.48435  -0.48366  -0.47997
 Alpha  occ. eigenvalues --   -0.47852  -0.47712  -0.47544  -0.47127  -0.46814
 Alpha  occ. eigenvalues --   -0.46534  -0.46206  -0.45907  -0.45864  -0.45731
 Alpha  occ. eigenvalues --   -0.45655  -0.45508  -0.45337  -0.45254  -0.45012
 Alpha  occ. eigenvalues --   -0.44852  -0.44599  -0.44444  -0.44315  -0.43970
 Alpha  occ. eigenvalues --   -0.43791  -0.43676  -0.43498  -0.43402  -0.43058
 Alpha  occ. eigenvalues --   -0.42807  -0.42725  -0.42601  -0.42425  -0.42269
 Alpha  occ. eigenvalues --   -0.42043  -0.41820  -0.41571  -0.41238  -0.41132
 Alpha  occ. eigenvalues --   -0.40924  -0.40770  -0.40714  -0.40647  -0.40369
 Alpha  occ. eigenvalues --   -0.40110  -0.39881  -0.39458  -0.38924  -0.38859
 Alpha  occ. eigenvalues --   -0.38495  -0.38343  -0.38033  -0.37986  -0.37609
 Alpha  occ. eigenvalues --   -0.37424  -0.37379  -0.36923  -0.36791  -0.36077
 Alpha  occ. eigenvalues --   -0.35928  -0.35882  -0.35239  -0.34679  -0.34144
 Alpha  occ. eigenvalues --   -0.33829  -0.33746  -0.33378  -0.31703  -0.31531
 Alpha  occ. eigenvalues --   -0.30920  -0.30323  -0.30158  -0.29481  -0.24702
 Alpha  occ. eigenvalues --   -0.21178
 Alpha virt. eigenvalues --   -0.08744  -0.01960   0.00488   0.02334   0.03329
 Alpha virt. eigenvalues --    0.04305   0.04578   0.05614   0.06077   0.06925
 Alpha virt. eigenvalues --    0.07730   0.07974   0.08209   0.08596   0.08624

 Mulliken charges:
               1
     1  Mg   0.812588
     2  C    0.074359
     3  C   -0.078074
     4  C   -0.032389
     5  C   -0.080385
     6  N   -0.325748
     7  C   -0.031823
     8  C    0.000193
     9  C   -0.090681
    10  C    0.048527
    11  C    0.091948
    12  C    0.099942
    13  C    0.018253
    14  C    0.179065
    15  O   -0.230796
    16  O   -0.352128
    17  N   -0.362956
    18  C    0.127882
    19  C   -0.131568
    20  C   -0.055820
    21  C    0.181744
    22  C    0.149793
    23  C   -0.015424
    24  O   -0.234114
    25  C    0.092100
    26  N   -0.281785
    27  C   -0.068971
    28  C   -0.039082
    29  C    0.006821
    30  C    0.041702
    31  C    0.063433
    32  C    0.034783
    33  C    0.021341
    34  N   -0.312276
    35  C    0.079807
    36  C   -0.163655
    37  C    0.030423
    38  C    0.051155
    39  C    0.156070
    40  C    0.020538
    41  O   -0.155992
    42  C   -0.015130
    43  C    0.152375
    44  O   -0.211318
    45  O   -0.322729
    46  C    0.175968
    47  C    0.295495
    48  C   -0.123652
    49  C   -0.204717
    50  C    0.061106
    51  C    0.107043
    52  C    0.065667
    53  C    0.039379
    54  C   -0.085186
    55  C    0.060774
    56  C   -0.024698
    57  C    0.004335
    58  C    0.035236
    59  C   -0.153664
    60  C    0.080143
    61  C    0.096118
    62  C    0.002162
    63  C    0.079659
    64  C   -0.147425
    65  C    0.074277
    66  C    0.023238
    67  H   -0.030053
    68  H   -0.045412
    69  H   -0.047731
    70  H   -0.012389
    71  H    0.002214
    72  H    0.027636
    73  H    0.036156
    74  H    0.014349
    75  H    0.003915
    76  H    0.024818
    77  H    0.037188
    78  H    0.028710
    79  H    0.051194
    80  H   -0.007780
    81  H    0.023574
    82  H    0.048409
    83  H    0.026220
    84  H    0.054412
    85  H    0.016916
    86  H    0.002344
    87  H    0.014228
    88  H    0.033775
    89  H    0.015637
    90  H    0.009529
    91  H   -0.004081
    92  H    0.016337
    93  H    0.019233
    94  H    0.022292
    95  H    0.005418
    96  H    0.052375
    97  H    0.007668
    98  H    0.038289
    99  H    0.030585
   100  H    0.039954
   101  H    0.043033
   102  H    0.051698
   103  H    0.028198
   104  H   -0.011050
   105  H    0.029511
   106  H    0.021974
   107  H    0.010796
   108  H    0.016745
   109  H   -0.011261
   110  H   -0.003951
   111  H   -0.013895
   112  H   -0.026881
   113  H   -0.015281
   114  H   -0.013507
   115  H   -0.002402
   116  H    0.008591
   117  H   -0.000335
   118  H    0.005799
   119  H    0.001743
   120  H    0.000890
   121  H   -0.001289
   122  H   -0.016191
   123  H   -0.000091
   124  H   -0.005706
   125  H    0.000791
   126  H    0.011831
   127  H    0.006353
   128  H   -0.017419
   129  H   -0.013991
   130  H   -0.010455
   131  H   -0.010194
   132  H   -0.025447
   133  H   -0.003422
   134  H   -0.009717
   135  H    0.005647
   136  H    0.004046
   137  H    0.003524
   138  H   -0.012265
   139  H    0.017824
   140  H   -0.003424
 Sum of Mulliken charges =  -0.00000

 Dipole moment (field-independent basis, Debye):
    X=             -3.6260    Y=              4.5831    Z=              0.9897  Tot=              5.9273
 Quadrupole moment (field-independent basis, Debye-Ang):
   XX=           -430.0483   YY=           -424.7106   ZZ=           -383.9359
   XY=             58.8580   XZ=             10.9657   YZ=             38.6897

 Normal termination of Gaussian 16 at Thu Apr 28 13:59:51 2022.
