 Gaussian 16, Revision A.03,
 Gaussian 16:  ES64L-G16RevA.03 25-Dec-2016

 ---------------------------------
 #p PBE1PBE/Def2SVP td=(nstates=5)
 ---------------------------------

 ------------------------------------------------------
 step_1601_chromophore_17 TDDFT with PBE1PBE functional
 ------------------------------------------------------
 Symbolic Z-matrix:
 Charge =  0 Multiplicity = 1

                         Standard orientation:
 ---------------------------------------------------------------------
 Center     Atomic      Atomic             Coordinates (Angstroms)
 Number     Number       Type             X           Y           Z
 ---------------------------------------------------------------------
      1         12           0        3.813671    1.494323   -0.431820
      2          6           0        4.293073   -1.946269   -0.665373
      3          6           0        1.847239    1.407739   -3.111220
      4          6           0        3.144355    4.677803    0.183680
      5          6           0        6.052254    1.461793    2.349074
      6          7           0        3.084269   -0.113555   -1.601558
      7          6           0        3.299656   -1.459781   -1.503478
      8          6           0        2.344696   -2.169758   -2.431940
      9          6           0        1.994907   -1.077177   -3.459528
     10          6           0        2.360987    0.203671   -2.729329
     11          6           0        2.675602   -1.129289   -4.878631
     12          6           0        1.189191   -2.904559   -1.676259
     13          6           0        1.170338   -4.447771   -1.671140
     14          6           0        0.348527   -5.178361   -0.583850
     15          8           0        0.769193   -6.207330   -0.026060
     16          8           0       -0.901864   -4.592225   -0.339128
     17          7           0        2.559256    2.867372   -1.381723
     18          6           0        1.846831    2.630766   -2.482152
     19          6           0        1.073613    3.877954   -2.835392
     20          6           0        1.451860    4.823119   -1.877335
     21          6           0        2.417994    4.157955   -0.931848
     22          6           0       -0.053730    3.928267   -3.899483
     23          6           0        0.821934    6.233162   -1.828342
     24          8           0        0.037046    6.571153   -2.751850
     25          6           0        1.168367    7.087291   -0.740285
     26          7           0        4.407080    2.884417    1.128693
     27          6           0        4.025548    4.159147    1.091363
     28          6           0        4.578042    4.928790    2.319852
     29          6           0        5.528565    3.886012    2.948886
     30          6           0        5.333695    2.627277    2.126318
     31          6           0        5.317684    6.335510    1.920608
     32          6           0        5.605358    3.665842    4.473119
     33          6           0        6.930450    3.783340    5.173783
     34          7           0        5.158985    0.124866    0.549750
     35          6           0        6.001433    0.260312    1.632666
     36          6           0        6.738288   -1.012908    1.893531
     37          6           0        6.068361   -1.878532    1.020810
     38          6           0        5.117798   -1.190365    0.282133
     39          6           0        7.825777   -1.257092    2.871907
     40          6           0        5.983633   -3.260938    0.614497
     41          8           0        6.623507   -4.243410    0.926434
     42          6           0        4.830820   -3.363826   -0.450911
     43          6           0        5.416896   -4.050429   -1.586278
     44          8           0        6.300068   -3.598516   -2.290353
     45          8           0        4.810344   -5.238465   -1.806258
     46          6           0        4.726692   -5.730734   -3.171878
     47          6           0       -1.795851   -5.297683    0.565268
     48          6           0       -2.231376   -4.304363    1.608867
     49          6           0       -3.235818   -4.357450    2.425554
     50          6           0       -4.187016   -5.574089    2.472262
     51          6           0       -3.749581   -3.155524    3.250613
     52          6           0       -3.979311   -1.829523    2.640617
     53          6           0       -5.330851   -1.264917    2.963354
     54          6           0       -6.532078   -1.709545    2.068120
     55          6           0       -7.464096   -2.667183    2.743045
     56          6           0       -7.405955   -0.480316    1.658673
     57          6           0       -7.028488    0.159571    0.296849
     58          6           0       -8.068757    1.390324    0.103531
     59          6           0       -8.664554    1.345824   -1.312211
     60          6           0       -7.651966    1.606460   -2.393237
     61          6           0       -9.791056    2.323317   -1.460693
     62          6           0      -11.197783    1.671353   -1.729215
     63          6           0      -12.319962    1.968322   -0.680358
     64          6           0      -12.407136    0.995743    0.471145
     65          6           0      -13.579617    0.078606    0.616742
     66          6           0      -12.286645    1.808676    1.721752
     67          1           0        1.132473    1.298775   -3.929316
     68          1           0        3.046030    5.712940    0.518119
     69          1           0        6.711557    1.424856    3.218656
     70          1           0        2.841838   -2.899328   -3.071040
     71          1           0        0.912275   -0.968891   -3.510795
     72          1           0        2.767825   -2.118979   -5.324120
     73          1           0        3.573779   -0.524526   -4.751985
     74          1           0        2.035936   -0.586584   -5.575290
     75          1           0        0.286485   -2.628739   -2.219632
     76          1           0        1.074009   -2.633538   -0.625955
     77          1           0        2.205621   -4.786402   -1.683536
     78          1           0        0.756504   -4.748630   -2.633740
     79          1           0       -0.921592    4.490423   -3.554742
     80          1           0       -0.282167    2.908650   -4.210265
     81          1           0        0.312233    4.347645   -4.836712
     82          1           0        1.026694    6.545982    0.194847
     83          1           0        0.441849    7.897819   -0.800975
     84          1           0        2.157743    7.486466   -0.964811
     85          1           0        3.684732    5.096973    2.922872
     86          1           0        6.504889    4.226633    2.604347
     87          1           0        4.892646    6.575212    0.945011
     88          1           0        6.405740    6.298490    1.969477
     89          1           0        4.934579    7.115902    2.577420
     90          1           0        5.138132    2.684751    4.560891
     91          1           0        4.916206    4.342552    4.977659
     92          1           0        7.721812    4.230658    4.573375
     93          1           0        7.203184    2.736208    5.308254
     94          1           0        6.818759    4.326324    6.111731
     95          1           0        8.539489   -0.435828    2.935806
     96          1           0        8.271972   -2.251741    2.866243
     97          1           0        7.378457   -1.037463    3.840894
     98          1           0        4.096701   -4.072487   -0.067600
     99          1           0        5.098817   -4.975371   -3.863947
    100          1           0        3.725205   -6.017806   -3.492393
    101          1           0        5.470962   -6.524190   -3.232227
    102          1           0       -1.356767   -6.119677    1.130660
    103          1           0       -2.593317   -5.696156   -0.063329
    104          1           0       -1.696970   -3.355645    1.657571
    105          1           0       -5.039363   -5.363332    1.826420
    106          1           0       -4.513929   -5.700051    3.504320
    107          1           0       -3.694734   -6.486000    2.135957
    108          1           0       -2.971605   -3.022349    4.002502
    109          1           0       -4.719133   -3.444784    3.657330
    110          1           0       -3.864475   -1.862330    1.556368
    111          1           0       -3.196452   -1.134805    2.944235
    112          1           0       -5.265430   -0.180679    2.877052
    113          1           0       -5.648912   -1.247972    4.005208
    114          1           0       -6.200186   -2.171339    1.137839
    115          1           0       -7.802973   -3.374229    1.986220
    116          1           0       -8.382072   -2.220341    3.124617
    117          1           0       -6.973838   -3.255091    3.519886
    118          1           0       -7.307966    0.314923    2.397416
    119          1           0       -8.438781   -0.778101    1.478970
    120          1           0       -7.177845   -0.597580   -0.472039
    121          1           0       -6.000782    0.515454    0.365446
    122          1           0       -7.518984    2.317077    0.266552
    123          1           0       -8.723167    1.407755    0.974907
    124          1           0       -9.008520    0.316932   -1.418408
    125          1           0       -7.276707    0.627435   -2.692686
    126          1           0       -6.853482    2.269575   -2.061034
    127          1           0       -8.178214    2.023535   -3.251746
    128          1           0       -9.561589    3.008513   -2.277179
    129          1           0       -9.791053    3.017835   -0.619940
    130          1           0      -11.173016    0.582507   -1.783575
    131          1           0      -11.503025    1.888578   -2.753235
    132          1           0      -13.273650    1.865136   -1.199003
    133          1           0      -12.242630    2.993177   -0.318411
    134          1           0      -11.505176    0.383491    0.451680
    135          1           0      -14.321153    0.437918    1.329149
    136          1           0      -13.215046   -0.843779    1.068845
    137          1           0      -14.022885   -0.114973   -0.360119
    138          1           0      -12.229098    1.123296    2.568516
    139          1           0      -13.081853    2.550254    1.794429
    140          1           0      -11.307161    2.272451    1.836010
 ---------------------------------------------------------------------

 SCF Done:  E(RPBE1PBE) =  -3005.35439288     A.U. after   15 cycles

 Excitation energies and oscillator strengths:

 Excited State   1:      Singlet-A      1.8717 eV  662.42 nm  f=0.3769  <S**2>=0.000
     245 -> 248        0.16195
     246 -> 247        0.69559
     246 <- 247       -0.11270
 This state for optimization and/or second-order correction.
 Total Energy, E(TD-HF/TD-DFT) =  -3005.28561001
 Copying the excited state density for this state as the 1-particle RhoCI density.

 Excited State   2:      Singlet-A      2.2996 eV  539.16 nm  f=0.0782  <S**2>=0.000
     245 -> 247        0.63671
     246 -> 248       -0.29010

 Excited State   3:      Singlet-A      2.9783 eV  416.29 nm  f=0.0003  <S**2>=0.000
     242 -> 247        0.44563
     244 -> 247        0.51771

 Excited State   4:      Singlet-A      3.0717 eV  403.64 nm  f=0.0009  <S**2>=0.000
     242 -> 247        0.51467
     244 -> 247       -0.45273
     246 -> 248       -0.10168

 Excited State   5:      Singlet-A      3.1797 eV  389.92 nm  f=0.0010  <S**2>=0.000
     240 -> 247        0.19395
     241 -> 247        0.62790
     241 -> 248       -0.10412
     241 -> 249       -0.16466

 The electronic state is 1-A.
 Alpha  occ. eigenvalues --  -46.92302 -19.26256 -19.24878 -19.20479 -19.19302
 Alpha  occ. eigenvalues --  -19.18912 -19.18650 -14.41735 -14.41523 -14.39913
 Alpha  occ. eigenvalues --  -14.38783 -10.37441 -10.35235 -10.32448 -10.31367
 Alpha  occ. eigenvalues --  -10.29651 -10.29551 -10.29032 -10.28873 -10.28663
 Alpha  occ. eigenvalues --  -10.28584 -10.28582 -10.27977 -10.27538 -10.26771
 Alpha  occ. eigenvalues --  -10.26671 -10.26560 -10.26371 -10.26315 -10.26303
 Alpha  occ. eigenvalues --  -10.25981 -10.25583 -10.25278 -10.25270 -10.25208
 Alpha  occ. eigenvalues --  -10.24928 -10.24852 -10.24643 -10.24635 -10.24517
 Alpha  occ. eigenvalues --  -10.24210 -10.24057 -10.23979 -10.23767 -10.23660
 Alpha  occ. eigenvalues --  -10.23635 -10.23391 -10.23192 -10.23170 -10.22738
 Alpha  occ. eigenvalues --  -10.22585 -10.22535 -10.22527 -10.22521 -10.22453
 Alpha  occ. eigenvalues --  -10.22402 -10.22389 -10.22326 -10.22136 -10.22037
 Alpha  occ. eigenvalues --  -10.21788 -10.21740 -10.21597 -10.21588 -10.21438
 Alpha  occ. eigenvalues --  -10.21199  -3.14357  -1.87227  -1.86694  -1.86608
 Alpha  occ. eigenvalues --   -1.11173  -1.10219  -1.04591  -1.03266  -1.02230
 Alpha  occ. eigenvalues --   -1.02088  -0.99373  -0.98656  -0.98458  -0.97651
 Alpha  occ. eigenvalues --   -0.86578  -0.85197  -0.84428  -0.84213  -0.83992
 Alpha  occ. eigenvalues --   -0.83449  -0.83330  -0.82698  -0.82463  -0.81191
 Alpha  occ. eigenvalues --   -0.80727  -0.80259  -0.79423  -0.78793  -0.78526
 Alpha  occ. eigenvalues --   -0.77798  -0.76802  -0.76326  -0.75864  -0.75024
 Alpha  occ. eigenvalues --   -0.74505  -0.73053  -0.72409  -0.71735  -0.70825
 Alpha  occ. eigenvalues --   -0.70231  -0.69960  -0.69743  -0.68857  -0.68447
 Alpha  occ. eigenvalues --   -0.67996  -0.67667  -0.66753  -0.65349  -0.64249
 Alpha  occ. eigenvalues --   -0.63294  -0.62630  -0.61813  -0.61339  -0.60488
 Alpha  occ. eigenvalues --   -0.60043  -0.59875  -0.59582  -0.59501  -0.58577
 Alpha  occ. eigenvalues --   -0.58231  -0.57451  -0.56954  -0.56641  -0.55130
 Alpha  occ. eigenvalues --   -0.54501  -0.54277  -0.53747  -0.53332  -0.52572
 Alpha  occ. eigenvalues --   -0.51856  -0.51493  -0.51388  -0.50530  -0.50499
 Alpha  occ. eigenvalues --   -0.49750  -0.49656  -0.49381  -0.49163  -0.48688
 Alpha  occ. eigenvalues --   -0.48526  -0.48342  -0.48196  -0.48138  -0.47890
 Alpha  occ. eigenvalues --   -0.47720  -0.47490  -0.47169  -0.47069  -0.46661
 Alpha  occ. eigenvalues --   -0.46593  -0.46068  -0.45900  -0.45464  -0.45425
 Alpha  occ. eigenvalues --   -0.45355  -0.45047  -0.44820  -0.44527  -0.44220
 Alpha  occ. eigenvalues --   -0.44076  -0.44023  -0.43809  -0.43750  -0.43496
 Alpha  occ. eigenvalues --   -0.43376  -0.43160  -0.43008  -0.42942  -0.42621
 Alpha  occ. eigenvalues --   -0.42560  -0.42380  -0.42080  -0.41783  -0.41544
 Alpha  occ. eigenvalues --   -0.41252  -0.40846  -0.40742  -0.40627  -0.40409
 Alpha  occ. eigenvalues --   -0.40336  -0.40114  -0.40076  -0.39959  -0.39781
 Alpha  occ. eigenvalues --   -0.39679  -0.39381  -0.39208  -0.38990  -0.38737
 Alpha  occ. eigenvalues --   -0.38641  -0.38351  -0.38302  -0.38166  -0.37844
 Alpha  occ. eigenvalues --   -0.37663  -0.37527  -0.37336  -0.37232  -0.37115
 Alpha  occ. eigenvalues --   -0.36746  -0.36600  -0.36332  -0.36063  -0.36036
 Alpha  occ. eigenvalues --   -0.35734  -0.35639  -0.35542  -0.35406  -0.35338
 Alpha  occ. eigenvalues --   -0.34860  -0.34777  -0.34167  -0.33828  -0.33698
 Alpha  occ. eigenvalues --   -0.33230  -0.33166  -0.32969  -0.32826  -0.32432
 Alpha  occ. eigenvalues --   -0.32368  -0.32190  -0.31942  -0.31762  -0.30958
 Alpha  occ. eigenvalues --   -0.30868  -0.30795  -0.30084  -0.29886  -0.29248
 Alpha  occ. eigenvalues --   -0.28983  -0.28819  -0.28382  -0.27118  -0.26357
 Alpha  occ. eigenvalues --   -0.26132  -0.25385  -0.25366  -0.25273  -0.21528
 Alpha  occ. eigenvalues --   -0.18840
 Alpha virt. eigenvalues --   -0.11250  -0.05469  -0.03734  -0.02145  -0.00389
 Alpha virt. eigenvalues --    0.00530   0.00733   0.01176   0.02234   0.02481
 Alpha virt. eigenvalues --    0.03730   0.04414   0.04790   0.04799   0.05300

 Mulliken charges:
               1
     1  Mg   0.962556
     2  C    0.054748
     3  C   -0.067079
     4  C   -0.046049
     5  C   -0.074010
     6  N   -0.429599
     7  C    0.032741
     8  C   -0.068303
     9  C   -0.170755
    10  C    0.081016
    11  C    0.032826
    12  C    0.052072
    13  C   -0.065816
    14  C    0.245678
    15  O   -0.263963
    16  O   -0.381122
    17  N   -0.479807
    18  C    0.151012
    19  C   -0.149916
    20  C   -0.102590
    21  C    0.214443
    22  C    0.089130
    23  C    0.035945
    24  O   -0.270160
    25  C    0.015013
    26  N   -0.392703
    27  C   -0.015967
    28  C   -0.119172
    29  C   -0.063792
    30  C    0.079449
    31  C    0.004513
    32  C   -0.033497
    33  C   -0.050739
    34  N   -0.434055
    35  C    0.101624
    36  C   -0.171008
    37  C   -0.031136
    38  C    0.110598
    39  C    0.101647
    40  C    0.120761
    41  O   -0.202118
    42  C   -0.121792
    43  C    0.252942
    44  O   -0.247348
    45  O   -0.358869
    46  C    0.121097
    47  C    0.255081
    48  C   -0.136610
    49  C   -0.243811
    50  C   -0.005814
    51  C    0.042107
    52  C    0.000397
    53  C   -0.018562
    54  C   -0.168627
    55  C    0.000901
    56  C   -0.086149
    57  C   -0.053681
    58  C   -0.015707
    59  C   -0.244412
    60  C    0.020805
    61  C    0.044298
    62  C   -0.062499
    63  C    0.023073
    64  C   -0.239452
    65  C    0.012401
    66  C   -0.044120
    67  H    0.001501
    68  H   -0.011876
    69  H   -0.012324
    70  H    0.031000
    71  H    0.039359
    72  H    0.053473
    73  H    0.064224
    74  H    0.042079
    75  H    0.037881
    76  H    0.056915
    77  H    0.076641
    78  H    0.061603
    79  H    0.076650
    80  H    0.019666
    81  H    0.051334
    82  H    0.073941
    83  H    0.053683
    84  H    0.081038
    85  H    0.054127
    86  H    0.043667
    87  H    0.042009
    88  H    0.058764
    89  H    0.043607
    90  H    0.043695
    91  H    0.030365
    92  H    0.043416
    93  H    0.045650
    94  H    0.050101
    95  H    0.034663
    96  H    0.079406
    97  H    0.037429
    98  H    0.076778
    99  H    0.051090
   100  H    0.060396
   101  H    0.065559
   102  H    0.077649
   103  H    0.054708
   104  H    0.019777
   105  H    0.058261
   106  H    0.049380
   107  H    0.038143
   108  H    0.050085
   109  H    0.024695
   110  H    0.028943
   111  H    0.019182
   112  H    0.007223
   113  H    0.017571
   114  H    0.023866
   115  H    0.026117
   116  H    0.035725
   117  H    0.027454
   118  H    0.038502
   119  H    0.036405
   120  H    0.032500
   121  H    0.032167
   122  H    0.017146
   123  H    0.033127
   124  H    0.032373
   125  H    0.028481
   126  H    0.039101
   127  H    0.034560
   128  H    0.015322
   129  H    0.017710
   130  H    0.021702
   131  H    0.022172
   132  H    0.008757
   133  H    0.028886
   134  H    0.031154
   135  H    0.032941
   136  H    0.031960
   137  H    0.030872
   138  H    0.017072
   139  H    0.045804
   140  H    0.026935
 Sum of Mulliken charges =  -0.00000

 Dipole moment (field-independent basis, Debye):
    X=             -3.3406    Y=              4.2991    Z=              1.2699  Tot=              5.5906
 Quadrupole moment (field-independent basis, Debye-Ang):
   XX=           -424.3157   YY=           -422.6769   ZZ=           -380.2317
   XY=             58.7236   XZ=             13.0590   YZ=             40.2260

 Normal termination of Gaussian 16 at Thu Apr 28 14:23:47 2022.
