 Gaussian 16, Revision A.03,
 Gaussian 16:  ES64L-G16RevA.03 25-Dec-2016

 --------------------------------
 #p wB97XD/Def2SVP td=(nstates=5)
 --------------------------------

 -----------------------------------------------------
 step_1601_chromophore_17 TDDFT with wB97XD functional
 -----------------------------------------------------
 Symbolic Z-matrix:
 Charge =  0 Multiplicity = 1

                         Standard orientation:
 ---------------------------------------------------------------------
 Center     Atomic      Atomic             Coordinates (Angstroms)
 Number     Number       Type             X           Y           Z
 ---------------------------------------------------------------------
      1         12           0        3.813671    1.494323   -0.431820
      2          6           0        4.293073   -1.946269   -0.665373
      3          6           0        1.847239    1.407739   -3.111220
      4          6           0        3.144355    4.677803    0.183680
      5          6           0        6.052254    1.461793    2.349074
      6          7           0        3.084269   -0.113555   -1.601558
      7          6           0        3.299656   -1.459781   -1.503478
      8          6           0        2.344696   -2.169758   -2.431940
      9          6           0        1.994907   -1.077177   -3.459528
     10          6           0        2.360987    0.203671   -2.729329
     11          6           0        2.675602   -1.129289   -4.878631
     12          6           0        1.189191   -2.904559   -1.676259
     13          6           0        1.170338   -4.447771   -1.671140
     14          6           0        0.348527   -5.178361   -0.583850
     15          8           0        0.769193   -6.207330   -0.026060
     16          8           0       -0.901864   -4.592225   -0.339128
     17          7           0        2.559256    2.867372   -1.381723
     18          6           0        1.846831    2.630766   -2.482152
     19          6           0        1.073613    3.877954   -2.835392
     20          6           0        1.451860    4.823119   -1.877335
     21          6           0        2.417994    4.157955   -0.931848
     22          6           0       -0.053730    3.928267   -3.899483
     23          6           0        0.821934    6.233162   -1.828342
     24          8           0        0.037046    6.571153   -2.751850
     25          6           0        1.168367    7.087291   -0.740285
     26          7           0        4.407080    2.884417    1.128693
     27          6           0        4.025548    4.159147    1.091363
     28          6           0        4.578042    4.928790    2.319852
     29          6           0        5.528565    3.886012    2.948886
     30          6           0        5.333695    2.627277    2.126318
     31          6           0        5.317684    6.335510    1.920608
     32          6           0        5.605358    3.665842    4.473119
     33          6           0        6.930450    3.783340    5.173783
     34          7           0        5.158985    0.124866    0.549750
     35          6           0        6.001433    0.260312    1.632666
     36          6           0        6.738288   -1.012908    1.893531
     37          6           0        6.068361   -1.878532    1.020810
     38          6           0        5.117798   -1.190365    0.282133
     39          6           0        7.825777   -1.257092    2.871907
     40          6           0        5.983633   -3.260938    0.614497
     41          8           0        6.623507   -4.243410    0.926434
     42          6           0        4.830820   -3.363826   -0.450911
     43          6           0        5.416896   -4.050429   -1.586278
     44          8           0        6.300068   -3.598516   -2.290353
     45          8           0        4.810344   -5.238465   -1.806258
     46          6           0        4.726692   -5.730734   -3.171878
     47          6           0       -1.795851   -5.297683    0.565268
     48          6           0       -2.231376   -4.304363    1.608867
     49          6           0       -3.235818   -4.357450    2.425554
     50          6           0       -4.187016   -5.574089    2.472262
     51          6           0       -3.749581   -3.155524    3.250613
     52          6           0       -3.979311   -1.829523    2.640617
     53          6           0       -5.330851   -1.264917    2.963354
     54          6           0       -6.532078   -1.709545    2.068120
     55          6           0       -7.464096   -2.667183    2.743045
     56          6           0       -7.405955   -0.480316    1.658673
     57          6           0       -7.028488    0.159571    0.296849
     58          6           0       -8.068757    1.390324    0.103531
     59          6           0       -8.664554    1.345824   -1.312211
     60          6           0       -7.651966    1.606460   -2.393237
     61          6           0       -9.791056    2.323317   -1.460693
     62          6           0      -11.197783    1.671353   -1.729215
     63          6           0      -12.319962    1.968322   -0.680358
     64          6           0      -12.407136    0.995743    0.471145
     65          6           0      -13.579617    0.078606    0.616742
     66          6           0      -12.286645    1.808676    1.721752
     67          1           0        1.132473    1.298775   -3.929316
     68          1           0        3.046030    5.712940    0.518119
     69          1           0        6.711557    1.424856    3.218656
     70          1           0        2.841838   -2.899328   -3.071040
     71          1           0        0.912275   -0.968891   -3.510795
     72          1           0        2.767825   -2.118979   -5.324120
     73          1           0        3.573779   -0.524526   -4.751985
     74          1           0        2.035936   -0.586584   -5.575290
     75          1           0        0.286485   -2.628739   -2.219632
     76          1           0        1.074009   -2.633538   -0.625955
     77          1           0        2.205621   -4.786402   -1.683536
     78          1           0        0.756504   -4.748630   -2.633740
     79          1           0       -0.921592    4.490423   -3.554742
     80          1           0       -0.282167    2.908650   -4.210265
     81          1           0        0.312233    4.347645   -4.836712
     82          1           0        1.026694    6.545982    0.194847
     83          1           0        0.441849    7.897819   -0.800975
     84          1           0        2.157743    7.486466   -0.964811
     85          1           0        3.684732    5.096973    2.922872
     86          1           0        6.504889    4.226633    2.604347
     87          1           0        4.892646    6.575212    0.945011
     88          1           0        6.405740    6.298490    1.969477
     89          1           0        4.934579    7.115902    2.577420
     90          1           0        5.138132    2.684751    4.560891
     91          1           0        4.916206    4.342552    4.977659
     92          1           0        7.721812    4.230658    4.573375
     93          1           0        7.203184    2.736208    5.308254
     94          1           0        6.818759    4.326324    6.111731
     95          1           0        8.539489   -0.435828    2.935806
     96          1           0        8.271972   -2.251741    2.866243
     97          1           0        7.378457   -1.037463    3.840894
     98          1           0        4.096701   -4.072487   -0.067600
     99          1           0        5.098817   -4.975371   -3.863947
    100          1           0        3.725205   -6.017806   -3.492393
    101          1           0        5.470962   -6.524190   -3.232227
    102          1           0       -1.356767   -6.119677    1.130660
    103          1           0       -2.593317   -5.696156   -0.063329
    104          1           0       -1.696970   -3.355645    1.657571
    105          1           0       -5.039363   -5.363332    1.826420
    106          1           0       -4.513929   -5.700051    3.504320
    107          1           0       -3.694734   -6.486000    2.135957
    108          1           0       -2.971605   -3.022349    4.002502
    109          1           0       -4.719133   -3.444784    3.657330
    110          1           0       -3.864475   -1.862330    1.556368
    111          1           0       -3.196452   -1.134805    2.944235
    112          1           0       -5.265430   -0.180679    2.877052
    113          1           0       -5.648912   -1.247972    4.005208
    114          1           0       -6.200186   -2.171339    1.137839
    115          1           0       -7.802973   -3.374229    1.986220
    116          1           0       -8.382072   -2.220341    3.124617
    117          1           0       -6.973838   -3.255091    3.519886
    118          1           0       -7.307966    0.314923    2.397416
    119          1           0       -8.438781   -0.778101    1.478970
    120          1           0       -7.177845   -0.597580   -0.472039
    121          1           0       -6.000782    0.515454    0.365446
    122          1           0       -7.518984    2.317077    0.266552
    123          1           0       -8.723167    1.407755    0.974907
    124          1           0       -9.008520    0.316932   -1.418408
    125          1           0       -7.276707    0.627435   -2.692686
    126          1           0       -6.853482    2.269575   -2.061034
    127          1           0       -8.178214    2.023535   -3.251746
    128          1           0       -9.561589    3.008513   -2.277179
    129          1           0       -9.791053    3.017835   -0.619940
    130          1           0      -11.173016    0.582507   -1.783575
    131          1           0      -11.503025    1.888578   -2.753235
    132          1           0      -13.273650    1.865136   -1.199003
    133          1           0      -12.242630    2.993177   -0.318411
    134          1           0      -11.505176    0.383491    0.451680
    135          1           0      -14.321153    0.437918    1.329149
    136          1           0      -13.215046   -0.843779    1.068845
    137          1           0      -14.022885   -0.114973   -0.360119
    138          1           0      -12.229098    1.123296    2.568516
    139          1           0      -13.081853    2.550254    1.794429
    140          1           0      -11.307161    2.272451    1.836010
 ---------------------------------------------------------------------

 SCF Done:  E(RwB97XD) =  -3007.86353982     A.U. after   19 cycles

 Excitation energies and oscillator strengths:

 Excited State   1:      Singlet-A      1.6783 eV  738.74 nm  f=0.3875  <S**2>=0.000
     245 -> 248        0.17178
     246 -> 247        0.68639
     245 <- 248        0.11126
 This state for optimization and/or second-order correction.
 Total Energy, E(TD-HF/TD-DFT) =  -3007.80186290
 Copying the excited state density for this state as the 1-particle RhoCI density.

 Excited State   2:      Singlet-A      2.2498 eV  551.09 nm  f=0.0749  <S**2>=0.000
     245 -> 247        0.62121
     246 -> 248       -0.32151

 Excited State   3:      Singlet-A      3.4640 eV  357.92 nm  f=0.0733  <S**2>=0.000
     244 -> 247        0.60348
     245 -> 247       -0.10861
     246 -> 248       -0.29186

 Excited State   4:      Singlet-A      3.5506 eV  349.19 nm  f=0.4727  <S**2>=0.000
     241 -> 247       -0.37051
     244 -> 247        0.22166
     245 -> 247        0.24566
     246 -> 248        0.48583

 Excited State   5:      Singlet-A      3.6422 eV  340.41 nm  f=0.0000  <S**2>=0.000
     240 -> 247       -0.22086
     240 -> 249       -0.18977
     241 -> 247       -0.12095
     242 -> 247        0.48497
     242 -> 249       -0.20854
     242 -> 250        0.25443

 The electronic state is 1-A.
 Alpha  occ. eigenvalues --  -46.95287 -19.30787 -19.29391 -19.25113 -19.24320
 Alpha  occ. eigenvalues --  -19.23553 -19.23253 -14.46800 -14.46665 -14.45054
 Alpha  occ. eigenvalues --  -14.43589 -10.44201 -10.41990 -10.39487 -10.38027
 Alpha  occ. eigenvalues --  -10.36365 -10.36023 -10.35349 -10.35221 -10.35196
 Alpha  occ. eigenvalues --  -10.35078 -10.34725 -10.34607 -10.33467 -10.33456
 Alpha  occ. eigenvalues --  -10.33032 -10.32625 -10.32590 -10.32533 -10.32417
 Alpha  occ. eigenvalues --  -10.32298 -10.31995 -10.31979 -10.31546 -10.31423
 Alpha  occ. eigenvalues --  -10.31403 -10.31346 -10.30983 -10.30973 -10.30929
 Alpha  occ. eigenvalues --  -10.30707 -10.30502 -10.30338 -10.30298 -10.30184
 Alpha  occ. eigenvalues --  -10.29989 -10.29721 -10.29611 -10.29486 -10.29131
 Alpha  occ. eigenvalues --  -10.28965 -10.28899 -10.28889 -10.28764 -10.28759
 Alpha  occ. eigenvalues --  -10.28754 -10.28722 -10.28586 -10.28523 -10.28345
 Alpha  occ. eigenvalues --  -10.28165 -10.28122 -10.28043 -10.28036 -10.27905
 Alpha  occ. eigenvalues --  -10.27652  -3.21194  -1.94813  -1.94283  -1.94193
 Alpha  occ. eigenvalues --   -1.18501  -1.17582  -1.11875  -1.10987  -1.09552
 Alpha  occ. eigenvalues --   -1.09385  -1.06850  -1.06076  -1.05849  -1.04943
 Alpha  occ. eigenvalues --   -0.94081  -0.92862  -0.92097  -0.91799  -0.91622
 Alpha  occ. eigenvalues --   -0.91103  -0.90978  -0.90350  -0.90076  -0.88743
 Alpha  occ. eigenvalues --   -0.88515  -0.87936  -0.87124  -0.86584  -0.86098
 Alpha  occ. eigenvalues --   -0.85496  -0.84471  -0.83907  -0.83444  -0.82655
 Alpha  occ. eigenvalues --   -0.82158  -0.80613  -0.80030  -0.79476  -0.78452
 Alpha  occ. eigenvalues --   -0.77914  -0.77606  -0.77443  -0.76559  -0.76085
 Alpha  occ. eigenvalues --   -0.75529  -0.75223  -0.74321  -0.72967  -0.71767
 Alpha  occ. eigenvalues --   -0.70714  -0.70278  -0.69585  -0.68979  -0.67944
 Alpha  occ. eigenvalues --   -0.67543  -0.67270  -0.67159  -0.67094  -0.66036
 Alpha  occ. eigenvalues --   -0.65935  -0.65130  -0.64294  -0.64293  -0.62541
 Alpha  occ. eigenvalues --   -0.62033  -0.61690  -0.61231  -0.60688  -0.59894
 Alpha  occ. eigenvalues --   -0.59372  -0.58912  -0.58813  -0.57969  -0.57938
 Alpha  occ. eigenvalues --   -0.57159  -0.57104  -0.56759  -0.56569  -0.56169
 Alpha  occ. eigenvalues --   -0.56065  -0.55801  -0.55557  -0.55445  -0.55296
 Alpha  occ. eigenvalues --   -0.55036  -0.54875  -0.54574  -0.54433  -0.54069
 Alpha  occ. eigenvalues --   -0.54010  -0.53404  -0.53127  -0.52829  -0.52762
 Alpha  occ. eigenvalues --   -0.52716  -0.52402  -0.52246  -0.51981  -0.51657
 Alpha  occ. eigenvalues --   -0.51412  -0.51250  -0.51106  -0.51057  -0.50800
 Alpha  occ. eigenvalues --   -0.50606  -0.50437  -0.50307  -0.50253  -0.49889
 Alpha  occ. eigenvalues --   -0.49770  -0.49624  -0.49526  -0.49035  -0.48756
 Alpha  occ. eigenvalues --   -0.48478  -0.48188  -0.47868  -0.47750  -0.47625
 Alpha  occ. eigenvalues --   -0.47557  -0.47351  -0.47230  -0.47168  -0.46882
 Alpha  occ. eigenvalues --   -0.46760  -0.46540  -0.46412  -0.46177  -0.45913
 Alpha  occ. eigenvalues --   -0.45715  -0.45526  -0.45409  -0.45313  -0.44960
 Alpha  occ. eigenvalues --   -0.44741  -0.44668  -0.44504  -0.44357  -0.44225
 Alpha  occ. eigenvalues --   -0.43893  -0.43841  -0.43543  -0.43154  -0.43087
 Alpha  occ. eigenvalues --   -0.42760  -0.42688  -0.42621  -0.42501  -0.42274
 Alpha  occ. eigenvalues --   -0.41955  -0.41814  -0.41276  -0.40791  -0.40743
 Alpha  occ. eigenvalues --   -0.40314  -0.40198  -0.39927  -0.39873  -0.39483
 Alpha  occ. eigenvalues --   -0.39434  -0.39257  -0.38886  -0.38760  -0.37927
 Alpha  occ. eigenvalues --   -0.37884  -0.37776  -0.37061  -0.36674  -0.36073
 Alpha  occ. eigenvalues --   -0.35907  -0.35663  -0.35398  -0.33800  -0.33605
 Alpha  occ. eigenvalues --   -0.33152  -0.32264  -0.32168  -0.31610  -0.26650
 Alpha  occ. eigenvalues --   -0.22991
 Alpha virt. eigenvalues --   -0.07082  -0.00042   0.02514   0.04436   0.06346
 Alpha virt. eigenvalues --    0.06640   0.07245   0.07876   0.08546   0.09232
 Alpha virt. eigenvalues --    0.10408   0.11266   0.11433   0.11603   0.12020

 Mulliken charges:
               1
     1  Mg   0.952829
     2  C    0.054928
     3  C   -0.088775
     4  C   -0.053750
     5  C   -0.086622
     6  N   -0.398091
     7  C    0.001673
     8  C   -0.039019
     9  C   -0.141121
    10  C    0.072776
    11  C    0.042822
    12  C    0.059277
    13  C   -0.036431
    14  C    0.235949
    15  O   -0.261939
    16  O   -0.380652
    17  N   -0.446821
    18  C    0.146753
    19  C   -0.145098
    20  C   -0.096995
    21  C    0.209123
    22  C    0.103260
    23  C    0.034406
    24  O   -0.263713
    25  C    0.024066
    26  N   -0.356962
    27  C   -0.030022
    28  C   -0.095841
    29  C   -0.037628
    30  C    0.068137
    31  C    0.018618
    32  C   -0.015814
    33  C   -0.035081
    34  N   -0.396929
    35  C    0.088809
    36  C   -0.169795
    37  C   -0.023473
    38  C    0.089767
    39  C    0.109541
    40  C    0.101234
    41  O   -0.194072
    42  C   -0.081966
    43  C    0.224451
    44  O   -0.241894
    45  O   -0.355136
    46  C    0.136455
    47  C    0.265831
    48  C   -0.144188
    49  C   -0.233419
    50  C    0.010864
    51  C    0.065856
    52  C    0.015755
    53  C   -0.001085
    54  C   -0.144573
    55  C    0.013290
    56  C   -0.059866
    57  C   -0.039814
    58  C   -0.000885
    59  C   -0.208359
    60  C    0.031858
    61  C    0.054361
    62  C   -0.041104
    63  C    0.034496
    64  C   -0.208069
    65  C    0.023283
    66  C   -0.026385
    67  H   -0.006692
    68  H   -0.025574
    69  H   -0.022637
    70  H    0.013363
    71  H    0.027916
    72  H    0.049854
    73  H    0.058052
    74  H    0.036435
    75  H    0.029377
    76  H    0.049643
    77  H    0.056835
    78  H    0.055215
    79  H    0.073719
    80  H    0.014492
    81  H    0.048226
    82  H    0.069157
    83  H    0.053208
    84  H    0.077422
    85  H    0.044356
    86  H    0.026034
    87  H    0.033310
    88  H    0.055246
    89  H    0.038191
    90  H    0.033704
    91  H    0.022059
    92  H    0.037375
    93  H    0.038987
    94  H    0.045627
    95  H    0.028239
    96  H    0.077425
    97  H    0.029709
    98  H    0.069333
    99  H    0.046537
   100  H    0.057073
   101  H    0.062316
   102  H    0.073410
   103  H    0.050788
   104  H    0.016150
   105  H    0.051544
   106  H    0.043953
   107  H    0.032910
   108  H    0.043532
   109  H    0.006287
   110  H    0.018240
   111  H    0.013648
   112  H   -0.002730
   113  H    0.009539
   114  H    0.011685
   115  H    0.020401
   116  H    0.029985
   117  H    0.020546
   118  H    0.027427
   119  H    0.023164
   120  H    0.022028
   121  H    0.023136
   122  H    0.008007
   123  H    0.019918
   124  H    0.016506
   125  H    0.022693
   126  H    0.033231
   127  H    0.027658
   128  H    0.007160
   129  H    0.008189
   130  H    0.010710
   131  H    0.016065
   132  H    0.000614
   133  H    0.020010
   134  H    0.014922
   135  H    0.026979
   136  H    0.026431
   137  H    0.025229
   138  H    0.010408
   139  H    0.038845
   140  H    0.018173
 Sum of Mulliken charges =  -0.00000

 Dipole moment (field-independent basis, Debye):
    X=             -3.7708    Y=              4.7617    Z=              0.9121  Tot=              6.1420
 Quadrupole moment (field-independent basis, Debye-Ang):
   XX=           -427.1939   YY=           -420.4393   ZZ=           -379.7870
   XY=             59.5673   XZ=             11.5775   YZ=             39.3916

 Normal termination of Gaussian 16 at Thu Apr 28 15:01:33 2022.
