 Gaussian 16, Revision A.03,
 Gaussian 16:  ES64L-G16RevA.03 25-Dec-2016

 --------------------
 #p ZINDO=(nstates=5)
 --------------------

 ------------------------------
 step_1601_chromophore_17 ZINDO
 ------------------------------
 Symbolic Z-matrix:
 Charge =  0 Multiplicity = 1

                         Standard orientation:
 ---------------------------------------------------------------------
 Center     Atomic      Atomic             Coordinates (Angstroms)
 Number     Number       Type             X           Y           Z
 ---------------------------------------------------------------------
      1         12           0        3.813671    1.494323   -0.431820
      2          6           0        4.293073   -1.946269   -0.665373
      3          6           0        1.847239    1.407739   -3.111220
      4          6           0        3.144355    4.677803    0.183680
      5          6           0        6.052254    1.461793    2.349074
      6          7           0        3.084269   -0.113555   -1.601558
      7          6           0        3.299656   -1.459781   -1.503478
      8          6           0        2.344696   -2.169758   -2.431940
      9          6           0        1.994907   -1.077177   -3.459528
     10          6           0        2.360987    0.203671   -2.729329
     11          6           0        2.675602   -1.129289   -4.878631
     12          6           0        1.189191   -2.904559   -1.676259
     13          6           0        1.170338   -4.447771   -1.671140
     14          6           0        0.348527   -5.178361   -0.583850
     15          8           0        0.769193   -6.207330   -0.026060
     16          8           0       -0.901864   -4.592225   -0.339128
     17          7           0        2.559256    2.867372   -1.381723
     18          6           0        1.846831    2.630766   -2.482152
     19          6           0        1.073613    3.877954   -2.835392
     20          6           0        1.451860    4.823119   -1.877335
     21          6           0        2.417994    4.157955   -0.931848
     22          6           0       -0.053730    3.928267   -3.899483
     23          6           0        0.821934    6.233162   -1.828342
     24          8           0        0.037046    6.571153   -2.751850
     25          6           0        1.168367    7.087291   -0.740285
     26          7           0        4.407080    2.884417    1.128693
     27          6           0        4.025548    4.159147    1.091363
     28          6           0        4.578042    4.928790    2.319852
     29          6           0        5.528565    3.886012    2.948886
     30          6           0        5.333695    2.627277    2.126318
     31          6           0        5.317684    6.335510    1.920608
     32          6           0        5.605358    3.665842    4.473119
     33          6           0        6.930450    3.783340    5.173783
     34          7           0        5.158985    0.124866    0.549750
     35          6           0        6.001433    0.260312    1.632666
     36          6           0        6.738288   -1.012908    1.893531
     37          6           0        6.068361   -1.878532    1.020810
     38          6           0        5.117798   -1.190365    0.282133
     39          6           0        7.825777   -1.257092    2.871907
     40          6           0        5.983633   -3.260938    0.614497
     41          8           0        6.623507   -4.243410    0.926434
     42          6           0        4.830820   -3.363826   -0.450911
     43          6           0        5.416896   -4.050429   -1.586278
     44          8           0        6.300068   -3.598516   -2.290353
     45          8           0        4.810344   -5.238465   -1.806258
     46          6           0        4.726692   -5.730734   -3.171878
     47          6           0       -1.795851   -5.297683    0.565268
     48          6           0       -2.231376   -4.304363    1.608867
     49          6           0       -3.235818   -4.357450    2.425554
     50          6           0       -4.187016   -5.574089    2.472262
     51          6           0       -3.749581   -3.155524    3.250613
     52          6           0       -3.979311   -1.829523    2.640617
     53          6           0       -5.330851   -1.264917    2.963354
     54          6           0       -6.532078   -1.709545    2.068120
     55          6           0       -7.464096   -2.667183    2.743045
     56          6           0       -7.405955   -0.480316    1.658673
     57          6           0       -7.028488    0.159571    0.296849
     58          6           0       -8.068757    1.390324    0.103531
     59          6           0       -8.664554    1.345824   -1.312211
     60          6           0       -7.651966    1.606460   -2.393237
     61          6           0       -9.791056    2.323317   -1.460693
     62          6           0      -11.197783    1.671353   -1.729215
     63          6           0      -12.319962    1.968322   -0.680358
     64          6           0      -12.407136    0.995743    0.471145
     65          6           0      -13.579617    0.078606    0.616742
     66          6           0      -12.286645    1.808676    1.721752
     67          1           0        1.132473    1.298775   -3.929316
     68          1           0        3.046030    5.712940    0.518119
     69          1           0        6.711557    1.424856    3.218656
     70          1           0        2.841838   -2.899328   -3.071040
     71          1           0        0.912275   -0.968891   -3.510795
     72          1           0        2.767825   -2.118979   -5.324120
     73          1           0        3.573779   -0.524526   -4.751985
     74          1           0        2.035936   -0.586584   -5.575290
     75          1           0        0.286485   -2.628739   -2.219632
     76          1           0        1.074009   -2.633538   -0.625955
     77          1           0        2.205621   -4.786402   -1.683536
     78          1           0        0.756504   -4.748630   -2.633740
     79          1           0       -0.921592    4.490423   -3.554742
     80          1           0       -0.282167    2.908650   -4.210265
     81          1           0        0.312233    4.347645   -4.836712
     82          1           0        1.026694    6.545982    0.194847
     83          1           0        0.441849    7.897819   -0.800975
     84          1           0        2.157743    7.486466   -0.964811
     85          1           0        3.684732    5.096973    2.922872
     86          1           0        6.504889    4.226633    2.604347
     87          1           0        4.892646    6.575212    0.945011
     88          1           0        6.405740    6.298490    1.969477
     89          1           0        4.934579    7.115902    2.577420
     90          1           0        5.138132    2.684751    4.560891
     91          1           0        4.916206    4.342552    4.977659
     92          1           0        7.721812    4.230658    4.573375
     93          1           0        7.203184    2.736208    5.308254
     94          1           0        6.818759    4.326324    6.111731
     95          1           0        8.539489   -0.435828    2.935806
     96          1           0        8.271972   -2.251741    2.866243
     97          1           0        7.378457   -1.037463    3.840894
     98          1           0        4.096701   -4.072487   -0.067600
     99          1           0        5.098817   -4.975371   -3.863947
    100          1           0        3.725205   -6.017806   -3.492393
    101          1           0        5.470962   -6.524190   -3.232227
    102          1           0       -1.356767   -6.119677    1.130660
    103          1           0       -2.593317   -5.696156   -0.063329
    104          1           0       -1.696970   -3.355645    1.657571
    105          1           0       -5.039363   -5.363332    1.826420
    106          1           0       -4.513929   -5.700051    3.504320
    107          1           0       -3.694734   -6.486000    2.135957
    108          1           0       -2.971605   -3.022349    4.002502
    109          1           0       -4.719133   -3.444784    3.657330
    110          1           0       -3.864475   -1.862330    1.556368
    111          1           0       -3.196452   -1.134805    2.944235
    112          1           0       -5.265430   -0.180679    2.877052
    113          1           0       -5.648912   -1.247972    4.005208
    114          1           0       -6.200186   -2.171339    1.137839
    115          1           0       -7.802973   -3.374229    1.986220
    116          1           0       -8.382072   -2.220341    3.124617
    117          1           0       -6.973838   -3.255091    3.519886
    118          1           0       -7.307966    0.314923    2.397416
    119          1           0       -8.438781   -0.778101    1.478970
    120          1           0       -7.177845   -0.597580   -0.472039
    121          1           0       -6.000782    0.515454    0.365446
    122          1           0       -7.518984    2.317077    0.266552
    123          1           0       -8.723167    1.407755    0.974907
    124          1           0       -9.008520    0.316932   -1.418408
    125          1           0       -7.276707    0.627435   -2.692686
    126          1           0       -6.853482    2.269575   -2.061034
    127          1           0       -8.178214    2.023535   -3.251746
    128          1           0       -9.561589    3.008513   -2.277179
    129          1           0       -9.791053    3.017835   -0.619940
    130          1           0      -11.173016    0.582507   -1.783575
    131          1           0      -11.503025    1.888578   -2.753235
    132          1           0      -13.273650    1.865136   -1.199003
    133          1           0      -12.242630    2.993177   -0.318411
    134          1           0      -11.505176    0.383491    0.451680
    135          1           0      -14.321153    0.437918    1.329149
    136          1           0      -13.215046   -0.843779    1.068845
    137          1           0      -14.022885   -0.114973   -0.360119
    138          1           0      -12.229098    1.123296    2.568516
    139          1           0      -13.081853    2.550254    1.794429
    140          1           0      -11.307161    2.272451    1.836010
 ---------------------------------------------------------------------

 SCF Done:  E(RZINDO/S) =  -474.653937628     A.U. after   19 cycles

 Excitation energies and oscillator strengths:

 Excited State   1:      Singlet-A      1.2856 eV  964.42 nm  f=0.6156  <S**2>=0.000
     175 ->178        -0.17201
     176 ->177         0.66825
 This state for optimization and/or second-order correction.
 Total Energy, E(CIS/TDA) =  -474.606693258
 Copying the excited state density for this state as the 1-particle RhoCI density.

 Excited State   2:      Singlet-A      1.9826 eV  625.38 nm  f=0.0060  <S**2>=0.000
     175 ->177         0.50376
     176 ->178         0.46696

 Excited State   3:      Singlet-A      3.0129 eV  411.51 nm  f=0.0513  <S**2>=0.000
     167 ->179         0.14707
     168 ->177         0.25469
     168 ->178        -0.18283
     168 ->179        -0.43543
     168 ->181        -0.22253
     168 ->185        -0.19572
     176 ->178        -0.11410

 Excited State   4:      Singlet-A      3.0356 eV  408.44 nm  f=0.9211  <S**2>=0.000
     168 ->179        -0.10924
     171 ->177         0.11109
     171 ->179         0.10687
     171 ->181        -0.16401
     175 ->177        -0.38633
     176 ->178         0.44775
     176 ->179         0.10950

 Excited State   5:      Singlet-A      3.0479 eV  406.78 nm  f=0.2230  <S**2>=0.000
     171 ->177         0.25423
     171 ->179         0.23594
     171 ->181        -0.37215
     171 ->185         0.17025
     171 ->187         0.10511
     171 ->189        -0.13888
     171 ->202         0.11968
     175 ->177         0.19801
     176 ->178        -0.20484
     176 ->179         0.14292
     176 ->181        -0.12382

 The electronic state is 1-A.
 Alpha  occ. eigenvalues --   -1.84350  -1.81940  -1.81339  -1.74224  -1.72131
 Alpha  occ. eigenvalues --   -1.70645  -1.66923  -1.63507  -1.59371  -1.58790
 Alpha  occ. eigenvalues --   -1.58189  -1.52745  -1.49282  -1.47843  -1.47018
 Alpha  occ. eigenvalues --   -1.44836  -1.43626  -1.39878  -1.39620  -1.38921
 Alpha  occ. eigenvalues --   -1.35734  -1.34427  -1.33517  -1.32547  -1.28824
 Alpha  occ. eigenvalues --   -1.28436  -1.28062  -1.25082  -1.20731  -1.18356
 Alpha  occ. eigenvalues --   -1.17852  -1.15880  -1.15523  -1.15481  -1.12779
 Alpha  occ. eigenvalues --   -1.12630  -1.10491  -1.10098  -1.05776  -1.04220
 Alpha  occ. eigenvalues --   -1.02101  -1.01840  -0.99201  -0.98174  -0.96930
 Alpha  occ. eigenvalues --   -0.96330  -0.94859  -0.94586  -0.93466  -0.93455
 Alpha  occ. eigenvalues --   -0.91854  -0.91608  -0.88751  -0.88115  -0.87401
 Alpha  occ. eigenvalues --   -0.86532  -0.85277  -0.83908  -0.82920  -0.79803
 Alpha  occ. eigenvalues --   -0.79464  -0.78501  -0.78323  -0.76907  -0.76751
 Alpha  occ. eigenvalues --   -0.76310  -0.74725  -0.73824  -0.73554  -0.73437
 Alpha  occ. eigenvalues --   -0.73263  -0.72710  -0.71924  -0.71353  -0.71216
 Alpha  occ. eigenvalues --   -0.70623  -0.70288  -0.69250  -0.69053  -0.68456
 Alpha  occ. eigenvalues --   -0.67915  -0.67567  -0.67093  -0.66711  -0.65914
 Alpha  occ. eigenvalues --   -0.65643  -0.65073  -0.64539  -0.64143  -0.63850
 Alpha  occ. eigenvalues --   -0.63598  -0.63389  -0.62839  -0.62342  -0.62011
 Alpha  occ. eigenvalues --   -0.61885  -0.61390  -0.61117  -0.60731  -0.59762
 Alpha  occ. eigenvalues --   -0.59645  -0.59546  -0.59263  -0.58523  -0.58361
 Alpha  occ. eigenvalues --   -0.58312  -0.57945  -0.57340  -0.56643  -0.56371
 Alpha  occ. eigenvalues --   -0.56202  -0.55590  -0.55441  -0.55111  -0.54880
 Alpha  occ. eigenvalues --   -0.54438  -0.54239  -0.53377  -0.53065  -0.52893
 Alpha  occ. eigenvalues --   -0.52457  -0.51969  -0.51959  -0.51890  -0.51441
 Alpha  occ. eigenvalues --   -0.51251  -0.51126  -0.50483  -0.50280  -0.49950
 Alpha  occ. eigenvalues --   -0.49731  -0.49638  -0.49098  -0.48721  -0.48667
 Alpha  occ. eigenvalues --   -0.48147  -0.47849  -0.47793  -0.47592  -0.47426
 Alpha  occ. eigenvalues --   -0.47070  -0.46949  -0.46845  -0.46410  -0.46234
 Alpha  occ. eigenvalues --   -0.46146  -0.45890  -0.45657  -0.45336  -0.45313
 Alpha  occ. eigenvalues --   -0.45063  -0.44962  -0.44679  -0.44361  -0.43663
 Alpha  occ. eigenvalues --   -0.43513  -0.43220  -0.42730  -0.42555  -0.42497
 Alpha  occ. eigenvalues --   -0.42004  -0.41326  -0.40491  -0.39330  -0.39263
 Alpha  occ. eigenvalues --   -0.37469  -0.37167  -0.36119  -0.35056  -0.34287
 Alpha  occ. eigenvalues --   -0.33965  -0.32992  -0.32876  -0.31841  -0.27327
 Alpha  occ. eigenvalues --   -0.21581
 Alpha virt. eigenvalues --   -0.08280  -0.02158  -0.00406   0.01124   0.01378
 Alpha virt. eigenvalues --    0.02568   0.02930   0.03690   0.04763   0.05404
 Alpha virt. eigenvalues --    0.05980   0.06323   0.06624   0.07268   0.07923

 Mulliken charges:
               1
     1  Mg   0.420348
     2  C   -0.048836
     3  C   -0.082174
     4  C   -0.086779
     5  C   -0.051414
     6  N   -0.299194
     7  C    0.116875
     8  C    0.013962
     9  C   -0.000619
    10  C    0.162139
    11  C   -0.048555
    12  C   -0.021893
    13  C    0.004585
    14  C    0.462695
    15  O   -0.509607
    16  O   -0.272816
    17  N   -0.309618
    18  C    0.144932
    19  C    0.035957
    20  C   -0.046037
    21  C    0.123686
    22  C   -0.033045
    23  C    0.337265
    24  O   -0.539391
    25  C   -0.024550
    26  N   -0.268794
    27  C    0.148441
    28  C   -0.002504
    29  C    0.000539
    30  C    0.088678
    31  C   -0.060389
    32  C   -0.026344
    33  C   -0.052508
    34  N   -0.320800
    35  C    0.069100
    36  C    0.025688
    37  C   -0.048402
    38  C    0.108450
    39  C   -0.034448
    40  C    0.335022
    41  O   -0.520357
    42  C    0.052275
    43  C    0.507369
    44  O   -0.535256
    45  O   -0.275876
    46  C    0.073549
    47  C    0.113281
    48  C   -0.071374
    49  C   -0.021232
    50  C   -0.050576
    51  C   -0.020928
    52  C   -0.014066
    53  C   -0.031347
    54  C   -0.010633
    55  C   -0.052933
    56  C   -0.042611
    57  C   -0.054585
    58  C   -0.044870
    59  C    0.001788
    60  C   -0.052360
    61  C   -0.030888
    62  C   -0.041271
    63  C   -0.028248
    64  C   -0.002109
    65  C   -0.047990
    66  C   -0.053272
    67  H    0.017994
    68  H    0.017773
    69  H    0.023897
    70  H    0.022927
    71  H    0.025113
    72  H    0.032695
    73  H    0.036613
    74  H    0.014419
    75  H    0.017972
    76  H    0.033802
    77  H    0.042800
    78  H    0.037919
    79  H    0.052258
    80  H    0.017509
    81  H    0.037289
    82  H    0.044370
    83  H    0.034474
    84  H    0.055436
    85  H    0.035161
    86  H    0.023205
    87  H    0.024562
    88  H    0.038869
    89  H    0.017493
    90  H    0.022327
    91  H    0.009760
    92  H    0.022831
    93  H    0.020712
    94  H    0.024910
    95  H    0.029369
    96  H    0.046769
    97  H    0.024614
    98  H    0.048664
    99  H    0.038916
   100  H    0.039872
   101  H    0.043889
   102  H    0.062356
   103  H    0.043973
   104  H    0.025399
   105  H    0.030012
   106  H    0.023279
   107  H    0.021088
   108  H    0.026882
   109  H    0.023092
   110  H    0.017052
   111  H    0.012612
   112  H    0.000098
   113  H    0.021658
   114  H    0.022100
   115  H    0.007927
   116  H    0.021579
   117  H    0.013402
   118  H    0.023677
   119  H    0.018549
   120  H    0.024919
   121  H    0.022102
   122  H    0.010544
   123  H    0.024760
   124  H    0.019185
   125  H    0.011538
   126  H    0.026034
   127  H    0.018445
   128  H    0.013524
   129  H    0.016636
   130  H    0.015030
   131  H    0.014393
   132  H    0.009800
   133  H    0.022215
   134  H    0.013832
   135  H    0.020675
   136  H    0.014731
   137  H    0.017907
   138  H    0.003894
   139  H    0.025562
   140  H    0.007233
 Sum of Mulliken charges =  -0.00000

 Dipole moment (field-independent basis, Debye):
    X=             -6.3649    Y=              6.5406    Z=              0.8702  Tot=              9.1678
 N-N= 4.444380072380D+03 E-N= 0.000000000000D+00  KE=-9.563007700312D+03
 Leave Link  601 at Thu Apr 28 15:17:55 2022, MaxMem=  6710886400 cpu:               1.1 elap:               0.1
 (Enter /sw/apps/gaussian-16.0/g16/l9999.exe)
 1\1\GINC-BP1-COMPUTE142\SP\RZINDO CIS\STO-3G\C55H74Mg1N4O6\OF15641\28-
 Apr-2022\0\\#p ZINDO=(nstates=5)\\step_1601_chromophore_17 ZINDO\\0,1\
 Mg,0,29.426,58.225,40.468\C,0,26.42,56.584,39.841\C,0,31.084,55.384,39
 .985\C,0,32.199,60.021,40.683\C,0,27.509,61.171,41.094\N,0,28.79,56.30
 2,39.849\C,0,27.545,55.828,39.543\C,0,27.689,54.459,38.924\C,0,29.061,
 53.993,39.446\C,0,29.73,55.296,39.849\C,0,29.106,52.95,40.625\C,0,27.4
 16,54.452,37.384\C,0,26.148,53.746,36.859\C,0,25.621,54.112,35.452\O,0

 Normal termination of Gaussian 16 at Thu Apr 28 15:17:55 2022.
