 Gaussian 16, Revision A.03,
 Gaussian 16:  ES64L-G16RevA.03 25-Dec-2016

 ------------------------------
 #p blyp/Def2SVP td=(nstates=5)
 ------------------------------

 ---------------------------------------------------
 step_1301_chromophore_25 TDDFT with blyp functional
 ---------------------------------------------------
 Symbolic Z-matrix:
 Charge =  0 Multiplicity = 1

                         Standard orientation:
 ---------------------------------------------------------------------
 Center     Atomic      Atomic             Coordinates (Angstroms)
 Number     Number       Type             X           Y           Z
 ---------------------------------------------------------------------
      1         12           0        5.765684    0.296233    0.383387
      2          6           0        3.318470   -1.955982    0.275140
      3          6           0        3.384329    2.889331   -0.316615
      4          6           0        8.352322    2.376628   -0.128459
      5          6           0        8.032857   -2.279121    0.826320
      6          7           0        3.624789    0.445967    0.109171
      7          6           0        2.849618   -0.668704    0.150455
      8          6           0        1.315980   -0.280432   -0.062798
      9          6           0        1.376985    1.294439   -0.300596
     10          6           0        2.856707    1.555340   -0.198233
     11          6           0        0.674501    1.635132   -1.647535
     12          6           0        0.531366   -0.731473    1.186685
     13          6           0       -0.757692   -1.578454    0.940673
     14          6           0       -2.056016   -1.119734    1.545291
     15          8           0       -2.140265   -0.433155    2.569580
     16          8           0       -3.032839   -1.616790    0.780056
     17          7           0        5.818681    2.417222   -0.051898
     18          6           0        4.753941    3.280630   -0.349116
     19          6           0        5.286328    4.500451   -0.837722
     20          6           0        6.748437    4.375153   -0.853742
     21          6           0        7.048774    3.079888   -0.324299
     22          6           0        4.459722    5.679806   -1.308255
     23          6           0        7.791539    5.407684   -1.295626
     24          8           0        8.991557    5.301356   -1.032758
     25          6           0        7.398249    6.593814   -2.104756
     26          7           0        7.905616    0.123256    0.326971
     27          6           0        8.715671    1.101721    0.038476
     28          6           0       10.251568    0.693415   -0.009475
     29          6           0       10.212885   -0.810106    0.560523
     30          6           0        8.618427   -1.030545    0.584491
     31          6           0       10.641721    0.713428   -1.516185
     32          6           0       10.966327   -0.887528    1.969485
     33          6           0       10.114682   -0.442529    3.238763
     34          7           0        5.737236   -1.697813    0.562000
     35          6           0        6.703582   -2.638260    0.741042
     36          6           0        6.104820   -3.948817    0.893259
     37          6           0        4.775260   -3.718501    0.600385
     38          6           0        4.614097   -2.341463    0.433043
     39          6           0        6.678902   -5.274220    1.087241
     40          6           0        3.506233   -4.375618    0.501249
     41          8           0        3.189739   -5.562475    0.612235
     42          6           0        2.487992   -3.216190    0.156147
     43          6           0        2.063533   -3.565218   -1.248856
     44          8           0        2.721363   -3.452062   -2.224782
     45          8           0        0.706530   -3.950580   -1.187601
     46          6           0        0.144172   -4.496589   -2.416129
     47          6           0       -4.353685   -1.319443    1.201152
     48          6           0       -5.332723   -1.393633    0.014238
     49          6           0       -6.475334   -0.681316   -0.179063
     50          6           0       -6.877024    0.532329    0.588014
     51          6           0       -7.496768   -1.189588   -1.194804
     52          6           0       -7.384141   -0.538126   -2.640434
     53          6           0       -8.644583    0.272864   -2.978141
     54          6           0       -9.909590   -0.687121   -3.328951
     55          6           0       -9.897042   -0.928154   -4.823973
     56          6           0      -11.227787   -0.147719   -2.785558
     57          6           0      -11.802959   -0.888490   -1.556478
     58          6           0      -13.245624   -0.295013   -1.140084
     59          6           0      -13.062688    0.188209    0.318325
     60          6           0      -14.378897    0.018387    1.185704
     61          6           0      -12.577878    1.680409    0.333438
     62          6           0      -11.275770    1.846765    1.118357
     63          6           0      -11.570631    1.709104    2.642629
     64          6           0      -10.962619    2.876713    3.469286
     65          6           0       -9.445989    2.572094    3.563833
     66          6           0      -11.623136    2.922516    4.880432
     67          1           0        2.723214    3.743013   -0.479084
     68          1           0        9.226548    2.986999   -0.366757
     69          1           0        8.826094   -2.977821    1.098686
     70          1           0        1.024189   -0.793742   -0.978658
     71          1           0        0.869875    1.857774    0.482210
     72          1           0        1.119251    1.195554   -2.540571
     73          1           0        0.672371    2.713203   -1.807163
     74          1           0       -0.371255    1.327289   -1.635969
     75          1           0        0.230083    0.178638    1.706806
     76          1           0        1.163608   -1.284755    1.881246
     77          1           0       -0.580729   -2.595148    1.291831
     78          1           0       -0.909817   -1.662522   -0.135916
     79          1           0        3.514140    5.846080   -0.793552
     80          1           0        4.206888    5.631486   -2.367504
     81          1           0        5.025161    6.559682   -1.002504
     82          1           0        8.346694    6.814864   -2.592984
     83          1           0        7.094781    7.473751   -1.536616
     84          1           0        6.699782    6.267805   -2.875045
     85          1           0       10.915712    1.342848    0.559744
     86          1           0       10.716068   -1.562285   -0.047636
     87          1           0        9.782164    0.877783   -2.165140
     88          1           0       11.020671   -0.263917   -1.811955
     89          1           0       11.348859    1.534916   -1.636920
     90          1           0       11.861756   -0.268752    1.909034
     91          1           0       11.271948   -1.917991    2.148055
     92          1           0       10.613767    0.396969    3.722315
     93          1           0       10.048448   -1.342113    3.851703
     94          1           0        9.087843   -0.191461    2.975931
     95          1           0        7.734022   -5.253241    1.358601
     96          1           0        6.488445   -5.805869    0.154763
     97          1           0        5.979233   -5.653177    1.832680
     98          1           0        1.692969   -3.121665    0.896722
     99          1           0       -0.490279   -5.352650   -2.183903
    100          1           0        0.865777   -4.708253   -3.204935
    101          1           0       -0.434826   -3.674037   -2.835248
    102          1           0       -4.441350   -0.372029    1.734003
    103          1           0       -4.550897   -2.133282    1.898581
    104          1           0       -5.214364   -2.287887   -0.597060
    105          1           0       -7.202890    1.289566   -0.125987
    106          1           0       -6.082159    0.951301    1.205125
    107          1           0       -7.778016    0.274134    1.144171
    108          1           0       -8.537897   -1.009181   -0.927138
    109          1           0       -7.421801   -2.276581   -1.182164
    110          1           0       -7.268036   -1.343708   -3.365738
    111          1           0       -6.467788    0.050809   -2.686406
    112          1           0       -8.535248    0.928355   -3.842257
    113          1           0       -8.927485    0.945393   -2.169018
    114          1           0       -9.738221   -1.659282   -2.866742
    115          1           0      -10.402137   -1.838690   -5.146204
    116          1           0       -8.846021   -1.129939   -5.033483
    117          1           0      -10.222661   -0.076278   -5.421328
    118          1           0      -11.898144   -0.356297   -3.619514
    119          1           0      -11.290590    0.936904   -2.701734
    120          1           0      -11.013267   -0.737617   -0.819348
    121          1           0      -11.945388   -1.926486   -1.855792
    122          1           0      -13.975372   -1.099821   -1.230207
    123          1           0      -13.469890    0.556658   -1.781355
    124          1           0      -12.288289   -0.345352    0.868746
    125          1           0      -15.214991    0.124824    0.494737
    126          1           0      -14.364632    0.918334    1.799888
    127          1           0      -14.453760   -0.843478    1.849484
    128          1           0      -13.349516    2.331353    0.745065
    129          1           0      -12.367060    2.090395   -0.654278
    130          1           0      -10.898803    2.852678    0.930364
    131          1           0      -10.491037    1.139405    0.847995
    132          1           0      -11.144323    0.735774    2.884915
    133          1           0      -12.626142    1.612265    2.898798
    134          1           0      -11.047323    3.891396    3.081286
    135          1           0       -9.214239    2.575209    4.628829
    136          1           0       -8.979203    3.436838    3.089984
    137          1           0       -9.105918    1.658608    3.074907
    138          1           0      -11.001759    2.438183    5.633756
    139          1           0      -12.541176    2.336827    4.932698
    140          1           0      -11.875310    3.966878    5.062811
 ---------------------------------------------------------------------

 SCF Done:  E(RB-LYP) =  -3007.39435281     A.U. after   21 cycles

 Excitation energies and oscillator strengths:

 Excited State   1:      Singlet-A      1.7973 eV  689.84 nm  f=0.0652  <S**2>=0.000
     244 -> 247        0.61451
     245 -> 247        0.10667
     246 -> 247        0.32413
 This state for optimization and/or second-order correction.
 Total Energy, E(TD-HF/TD-DFT) =  -3007.32830354
 Copying the excited state density for this state as the 1-particle RhoCI density.

 Excited State   2:      Singlet-A      1.8607 eV  666.33 nm  f=0.2188  <S**2>=0.000
     244 -> 247       -0.33970
     245 -> 248       -0.16456
     246 -> 247        0.59268
     246 <- 247       -0.13010

 Excited State   3:      Singlet-A      1.9693 eV  629.59 nm  f=0.1095  <S**2>=0.000
     242 -> 247        0.15337
     243 -> 247       -0.29461
     245 -> 247        0.57904
     246 -> 247       -0.14175
     246 -> 248        0.15511

 Excited State   4:      Singlet-A      2.0935 eV  592.24 nm  f=0.0207  <S**2>=0.000
     243 -> 247        0.63593
     245 -> 247        0.26710
     246 -> 248        0.10625

 Excited State   5:      Singlet-A      2.3159 eV  535.35 nm  f=0.0274  <S**2>=0.000
     242 -> 247        0.67001
     245 -> 247       -0.14943

 The electronic state is 1-A.
 Alpha  occ. eigenvalues --  -46.26791 -18.82874 -18.81722 -18.77932 -18.76712
 Alpha  occ. eigenvalues --  -18.76104 -18.75003 -14.03652 -14.02811 -14.00855
 Alpha  occ. eigenvalues --  -14.00341 -10.04278 -10.03972  -9.99772  -9.99323
 Alpha  occ. eigenvalues --   -9.98155  -9.97329  -9.96942  -9.96632  -9.96513
 Alpha  occ. eigenvalues --   -9.95889  -9.95552  -9.95258  -9.94847  -9.94429
 Alpha  occ. eigenvalues --   -9.94377  -9.94199  -9.93965  -9.93780  -9.93770
 Alpha  occ. eigenvalues --   -9.93709  -9.93512  -9.93458  -9.93233  -9.92921
 Alpha  occ. eigenvalues --   -9.92772  -9.92723  -9.92712  -9.92688  -9.92656
 Alpha  occ. eigenvalues --   -9.92652  -9.92518  -9.92514  -9.92473  -9.92419
 Alpha  occ. eigenvalues --   -9.92406  -9.92242  -9.92219  -9.92064  -9.92053
 Alpha  occ. eigenvalues --   -9.91957  -9.91777  -9.91732  -9.91630  -9.91613
 Alpha  occ. eigenvalues --   -9.91489  -9.91315  -9.91275  -9.91140  -9.91105
 Alpha  occ. eigenvalues --   -9.90992  -9.90807  -9.90793  -9.90701  -9.90688
 Alpha  occ. eigenvalues --   -9.90469  -2.91466  -1.71904  -1.71365  -1.71158
 Alpha  occ. eigenvalues --   -0.99703  -0.98123  -0.91251  -0.91080  -0.90638
 Alpha  occ. eigenvalues --   -0.90149  -0.88449  -0.86201  -0.85504  -0.82654
 Alpha  occ. eigenvalues --   -0.76466  -0.73861  -0.73139  -0.72486  -0.72236
 Alpha  occ. eigenvalues --   -0.72045  -0.71302  -0.70809  -0.70776  -0.70496
 Alpha  occ. eigenvalues --   -0.69415  -0.69022  -0.67891  -0.67385  -0.66900
 Alpha  occ. eigenvalues --   -0.66165  -0.65745  -0.65235  -0.64939  -0.64444
 Alpha  occ. eigenvalues --   -0.64218  -0.62740  -0.61996  -0.61190  -0.60868
 Alpha  occ. eigenvalues --   -0.60551  -0.60042  -0.59604  -0.59593  -0.58839
 Alpha  occ. eigenvalues --   -0.58514  -0.57829  -0.56546  -0.55201  -0.54719
 Alpha  occ. eigenvalues --   -0.54031  -0.53806  -0.52479  -0.52214  -0.51379
 Alpha  occ. eigenvalues --   -0.51346  -0.50985  -0.50580  -0.50284  -0.50079
 Alpha  occ. eigenvalues --   -0.49951  -0.49478  -0.48760  -0.48425  -0.46488
 Alpha  occ. eigenvalues --   -0.46227  -0.46004  -0.45649  -0.45302  -0.44863
 Alpha  occ. eigenvalues --   -0.43945  -0.43651  -0.43402  -0.43027  -0.42162
 Alpha  occ. eigenvalues --   -0.41922  -0.41616  -0.41504  -0.41222  -0.41100
 Alpha  occ. eigenvalues --   -0.40758  -0.40691  -0.40434  -0.40166  -0.40105
 Alpha  occ. eigenvalues --   -0.39854  -0.39724  -0.39467  -0.39460  -0.39345
 Alpha  occ. eigenvalues --   -0.39315  -0.39026  -0.38955  -0.38566  -0.38343
 Alpha  occ. eigenvalues --   -0.38117  -0.37797  -0.37752  -0.37634  -0.37282
 Alpha  occ. eigenvalues --   -0.37003  -0.36830  -0.36586  -0.36500  -0.36395
 Alpha  occ. eigenvalues --   -0.36204  -0.36034  -0.35760  -0.35653  -0.35609
 Alpha  occ. eigenvalues --   -0.35378  -0.35266  -0.34994  -0.34898  -0.34629
 Alpha  occ. eigenvalues --   -0.34573  -0.34368  -0.34287  -0.34051  -0.33979
 Alpha  occ. eigenvalues --   -0.33694  -0.33627  -0.33593  -0.33357  -0.33115
 Alpha  occ. eigenvalues --   -0.32866  -0.32759  -0.32697  -0.32402  -0.32187
 Alpha  occ. eigenvalues --   -0.31958  -0.31883  -0.31763  -0.31477  -0.31355
 Alpha  occ. eigenvalues --   -0.31206  -0.30995  -0.30837  -0.30731  -0.30513
 Alpha  occ. eigenvalues --   -0.30490  -0.30342  -0.30111  -0.30083  -0.29826
 Alpha  occ. eigenvalues --   -0.29735  -0.29460  -0.29358  -0.29227  -0.29207
 Alpha  occ. eigenvalues --   -0.28934  -0.28890  -0.28427  -0.28304  -0.27925
 Alpha  occ. eigenvalues --   -0.27750  -0.27517  -0.27397  -0.27367  -0.26701
 Alpha  occ. eigenvalues --   -0.26319  -0.26314  -0.26080  -0.25419  -0.25191
 Alpha  occ. eigenvalues --   -0.25138  -0.24943  -0.24137  -0.23635  -0.23519
 Alpha  occ. eigenvalues --   -0.23355  -0.23218  -0.22039  -0.21898  -0.21297
 Alpha  occ. eigenvalues --   -0.20650  -0.19519  -0.19085  -0.18200  -0.17127
 Alpha  occ. eigenvalues --   -0.16020
 Alpha virt. eigenvalues --   -0.11643  -0.06324  -0.06194  -0.04688  -0.02933
 Alpha virt. eigenvalues --   -0.02258  -0.02067  -0.01764  -0.01120   0.00747
 Alpha virt. eigenvalues --    0.01161   0.01611   0.02038   0.02410   0.02950

 Mulliken charges:
               1
     1  Mg   0.703824
     2  C   -0.027669
     3  C   -0.055158
     4  C    0.004706
     5  C   -0.099495
     6  N   -0.219442
     7  C   -0.124591
     8  C    0.024107
     9  C    0.035498
    10  C    0.049896
    11  C    0.102697
    12  C    0.127807
    13  C    0.098330
    14  C    0.058108
    15  O   -0.204306
    16  O   -0.228406
    17  N   -0.308028
    18  C    0.115403
    19  C   -0.143074
    20  C    0.054939
    21  C    0.065064
    22  C    0.155481
    23  C   -0.089111
    24  O   -0.177014
    25  C    0.124750
    26  N   -0.184005
    27  C    0.008939
    28  C   -0.025671
    29  C    0.047810
    30  C   -0.026650
    31  C    0.123328
    32  C    0.036404
    33  C    0.053224
    34  N   -0.248587
    35  C    0.189559
    36  C   -0.201817
    37  C    0.120217
    38  C    0.128342
    39  C    0.190261
    40  C   -0.097657
    41  O   -0.143517
    42  C    0.073563
    43  C    0.135178
    44  O   -0.125782
    45  O   -0.299772
    46  C    0.212599
    47  C    0.300061
    48  C   -0.075784
    49  C   -0.154728
    50  C    0.159326
    51  C    0.104272
    52  C    0.107403
    53  C    0.074393
    54  C   -0.082918
    55  C    0.119111
    56  C    0.092415
    57  C    0.033644
    58  C    0.161894
    59  C   -0.108977
    60  C    0.116281
    61  C    0.098401
    62  C    0.056698
    63  C    0.067592
    64  C   -0.115876
    65  C    0.108389
    66  C    0.111286
    67  H   -0.068613
    68  H   -0.052489
    69  H   -0.072984
    70  H   -0.010707
    71  H   -0.011641
    72  H   -0.003074
    73  H   -0.015959
    74  H   -0.006218
    75  H   -0.019069
    76  H   -0.009893
    77  H    0.018849
    78  H   -0.008738
    79  H   -0.016087
    80  H    0.014848
    81  H   -0.005923
    82  H   -0.010342
    83  H    0.027455
    84  H   -0.001236
    85  H   -0.010515
    86  H   -0.024681
    87  H    0.001940
    88  H   -0.015195
    89  H    0.007329
    90  H   -0.012592
    91  H   -0.020920
    92  H    0.003018
    93  H   -0.008185
    94  H    0.011244
    95  H   -0.007768
    96  H    0.018661
    97  H    0.016426
    98  H   -0.013770
    99  H    0.026358
   100  H    0.017599
   101  H   -0.001315
   102  H   -0.003065
   103  H   -0.007731
   104  H   -0.042054
   105  H   -0.007834
   106  H   -0.006175
   107  H    0.012997
   108  H   -0.037384
   109  H   -0.027591
   110  H   -0.026296
   111  H   -0.023140
   112  H   -0.036083
   113  H   -0.034988
   114  H   -0.042801
   115  H   -0.018538
   116  H   -0.031455
   117  H   -0.010001
   118  H   -0.056866
   119  H   -0.035464
   120  H    0.002134
   121  H   -0.024724
   122  H   -0.031308
   123  H   -0.021881
   124  H   -0.028712
   125  H   -0.023152
   126  H   -0.026301
   127  H   -0.005767
   128  H   -0.036132
   129  H   -0.042075
   130  H   -0.035163
   131  H   -0.022753
   132  H   -0.030840
   133  H   -0.031389
   134  H   -0.028800
   135  H   -0.020431
   136  H   -0.020062
   137  H   -0.001994
   138  H   -0.018163
   139  H   -0.026916
   140  H   -0.010081
 Sum of Mulliken charges =  -0.00000

 Dipole moment (field-independent basis, Debye):
    X=             -3.6661    Y=              0.8194    Z=             -1.5563  Tot=              4.0662
 Quadrupole moment (field-independent basis, Debye-Ang):
   XX=           -382.1697   YY=           -417.0701   ZZ=           -410.0994
   XY=            -17.3390   XZ=             15.7781   YZ=             -2.3492

 Normal termination of Gaussian 16 at Wed Apr 27 21:43:38 2022.
