 Gaussian 16, Revision A.03,
 Gaussian 16:  ES64L-G16RevA.03 25-Dec-2016

 -----------------------------------
 #p cam-b3lyp/Def2SVP td=(nstates=5)
 -----------------------------------

 --------------------------------------------------------
 step_1301_chromophore_25 TDDFT with cam-b3lyp functional
 --------------------------------------------------------
 Symbolic Z-matrix:
 Charge =  0 Multiplicity = 1

                         Standard orientation:
 ---------------------------------------------------------------------
 Center     Atomic      Atomic             Coordinates (Angstroms)
 Number     Number       Type             X           Y           Z
 ---------------------------------------------------------------------
      1         12           0        5.765684    0.296233    0.383387
      2          6           0        3.318470   -1.955982    0.275140
      3          6           0        3.384329    2.889331   -0.316615
      4          6           0        8.352322    2.376628   -0.128459
      5          6           0        8.032857   -2.279121    0.826320
      6          7           0        3.624789    0.445967    0.109171
      7          6           0        2.849618   -0.668704    0.150455
      8          6           0        1.315980   -0.280432   -0.062798
      9          6           0        1.376985    1.294439   -0.300596
     10          6           0        2.856707    1.555340   -0.198233
     11          6           0        0.674501    1.635132   -1.647535
     12          6           0        0.531366   -0.731473    1.186685
     13          6           0       -0.757692   -1.578454    0.940673
     14          6           0       -2.056016   -1.119734    1.545291
     15          8           0       -2.140265   -0.433155    2.569580
     16          8           0       -3.032839   -1.616790    0.780056
     17          7           0        5.818681    2.417222   -0.051898
     18          6           0        4.753941    3.280630   -0.349116
     19          6           0        5.286328    4.500451   -0.837722
     20          6           0        6.748437    4.375153   -0.853742
     21          6           0        7.048774    3.079888   -0.324299
     22          6           0        4.459722    5.679806   -1.308255
     23          6           0        7.791539    5.407684   -1.295626
     24          8           0        8.991557    5.301356   -1.032758
     25          6           0        7.398249    6.593814   -2.104756
     26          7           0        7.905616    0.123256    0.326971
     27          6           0        8.715671    1.101721    0.038476
     28          6           0       10.251568    0.693415   -0.009475
     29          6           0       10.212885   -0.810106    0.560523
     30          6           0        8.618427   -1.030545    0.584491
     31          6           0       10.641721    0.713428   -1.516185
     32          6           0       10.966327   -0.887528    1.969485
     33          6           0       10.114682   -0.442529    3.238763
     34          7           0        5.737236   -1.697813    0.562000
     35          6           0        6.703582   -2.638260    0.741042
     36          6           0        6.104820   -3.948817    0.893259
     37          6           0        4.775260   -3.718501    0.600385
     38          6           0        4.614097   -2.341463    0.433043
     39          6           0        6.678902   -5.274220    1.087241
     40          6           0        3.506233   -4.375618    0.501249
     41          8           0        3.189739   -5.562475    0.612235
     42          6           0        2.487992   -3.216190    0.156147
     43          6           0        2.063533   -3.565218   -1.248856
     44          8           0        2.721363   -3.452062   -2.224782
     45          8           0        0.706530   -3.950580   -1.187601
     46          6           0        0.144172   -4.496589   -2.416129
     47          6           0       -4.353685   -1.319443    1.201152
     48          6           0       -5.332723   -1.393633    0.014238
     49          6           0       -6.475334   -0.681316   -0.179063
     50          6           0       -6.877024    0.532329    0.588014
     51          6           0       -7.496768   -1.189588   -1.194804
     52          6           0       -7.384141   -0.538126   -2.640434
     53          6           0       -8.644583    0.272864   -2.978141
     54          6           0       -9.909590   -0.687121   -3.328951
     55          6           0       -9.897042   -0.928154   -4.823973
     56          6           0      -11.227787   -0.147719   -2.785558
     57          6           0      -11.802959   -0.888490   -1.556478
     58          6           0      -13.245624   -0.295013   -1.140084
     59          6           0      -13.062688    0.188209    0.318325
     60          6           0      -14.378897    0.018387    1.185704
     61          6           0      -12.577878    1.680409    0.333438
     62          6           0      -11.275770    1.846765    1.118357
     63          6           0      -11.570631    1.709104    2.642629
     64          6           0      -10.962619    2.876713    3.469286
     65          6           0       -9.445989    2.572094    3.563833
     66          6           0      -11.623136    2.922516    4.880432
     67          1           0        2.723214    3.743013   -0.479084
     68          1           0        9.226548    2.986999   -0.366757
     69          1           0        8.826094   -2.977821    1.098686
     70          1           0        1.024189   -0.793742   -0.978658
     71          1           0        0.869875    1.857774    0.482210
     72          1           0        1.119251    1.195554   -2.540571
     73          1           0        0.672371    2.713203   -1.807163
     74          1           0       -0.371255    1.327289   -1.635969
     75          1           0        0.230083    0.178638    1.706806
     76          1           0        1.163608   -1.284755    1.881246
     77          1           0       -0.580729   -2.595148    1.291831
     78          1           0       -0.909817   -1.662522   -0.135916
     79          1           0        3.514140    5.846080   -0.793552
     80          1           0        4.206888    5.631486   -2.367504
     81          1           0        5.025161    6.559682   -1.002504
     82          1           0        8.346694    6.814864   -2.592984
     83          1           0        7.094781    7.473751   -1.536616
     84          1           0        6.699782    6.267805   -2.875045
     85          1           0       10.915712    1.342848    0.559744
     86          1           0       10.716068   -1.562285   -0.047636
     87          1           0        9.782164    0.877783   -2.165140
     88          1           0       11.020671   -0.263917   -1.811955
     89          1           0       11.348859    1.534916   -1.636920
     90          1           0       11.861756   -0.268752    1.909034
     91          1           0       11.271948   -1.917991    2.148055
     92          1           0       10.613767    0.396969    3.722315
     93          1           0       10.048448   -1.342113    3.851703
     94          1           0        9.087843   -0.191461    2.975931
     95          1           0        7.734022   -5.253241    1.358601
     96          1           0        6.488445   -5.805869    0.154763
     97          1           0        5.979233   -5.653177    1.832680
     98          1           0        1.692969   -3.121665    0.896722
     99          1           0       -0.490279   -5.352650   -2.183903
    100          1           0        0.865777   -4.708253   -3.204935
    101          1           0       -0.434826   -3.674037   -2.835248
    102          1           0       -4.441350   -0.372029    1.734003
    103          1           0       -4.550897   -2.133282    1.898581
    104          1           0       -5.214364   -2.287887   -0.597060
    105          1           0       -7.202890    1.289566   -0.125987
    106          1           0       -6.082159    0.951301    1.205125
    107          1           0       -7.778016    0.274134    1.144171
    108          1           0       -8.537897   -1.009181   -0.927138
    109          1           0       -7.421801   -2.276581   -1.182164
    110          1           0       -7.268036   -1.343708   -3.365738
    111          1           0       -6.467788    0.050809   -2.686406
    112          1           0       -8.535248    0.928355   -3.842257
    113          1           0       -8.927485    0.945393   -2.169018
    114          1           0       -9.738221   -1.659282   -2.866742
    115          1           0      -10.402137   -1.838690   -5.146204
    116          1           0       -8.846021   -1.129939   -5.033483
    117          1           0      -10.222661   -0.076278   -5.421328
    118          1           0      -11.898144   -0.356297   -3.619514
    119          1           0      -11.290590    0.936904   -2.701734
    120          1           0      -11.013267   -0.737617   -0.819348
    121          1           0      -11.945388   -1.926486   -1.855792
    122          1           0      -13.975372   -1.099821   -1.230207
    123          1           0      -13.469890    0.556658   -1.781355
    124          1           0      -12.288289   -0.345352    0.868746
    125          1           0      -15.214991    0.124824    0.494737
    126          1           0      -14.364632    0.918334    1.799888
    127          1           0      -14.453760   -0.843478    1.849484
    128          1           0      -13.349516    2.331353    0.745065
    129          1           0      -12.367060    2.090395   -0.654278
    130          1           0      -10.898803    2.852678    0.930364
    131          1           0      -10.491037    1.139405    0.847995
    132          1           0      -11.144323    0.735774    2.884915
    133          1           0      -12.626142    1.612265    2.898798
    134          1           0      -11.047323    3.891396    3.081286
    135          1           0       -9.214239    2.575209    4.628829
    136          1           0       -8.979203    3.436838    3.089984
    137          1           0       -9.105918    1.658608    3.074907
    138          1           0      -11.001759    2.438183    5.633756
    139          1           0      -12.541176    2.336827    4.932698
    140          1           0      -11.875310    3.966878    5.062811
 ---------------------------------------------------------------------

 SCF Done:  E(RCAM-B3LYP) =  -3007.19116013     A.U. after   18 cycles

 Excitation energies and oscillator strengths:

 Excited State   1:      Singlet-A      1.7448 eV  710.59 nm  f=0.3939  <S**2>=0.000
     245 -> 248       -0.17972
     246 -> 247        0.68616
     245 <- 248       -0.10820
 This state for optimization and/or second-order correction.
 Total Energy, E(TD-HF/TD-DFT) =  -3007.12703925
 Copying the excited state density for this state as the 1-particle RhoCI density.

 Excited State   2:      Singlet-A      2.2081 eV  561.49 nm  f=0.1633  <S**2>=0.000
     245 -> 247        0.65631
     246 -> 248        0.24611

 Excited State   3:      Singlet-A      3.0501 eV  406.49 nm  f=0.0141  <S**2>=0.000
     244 -> 247        0.68600

 Excited State   4:      Singlet-A      3.4935 eV  354.90 nm  f=0.0087  <S**2>=0.000
     239 -> 247        0.36030
     239 -> 249       -0.25563
     239 -> 250        0.10103
     240 -> 247        0.27778
     240 -> 249       -0.16851
     241 -> 247       -0.33378
     241 -> 249        0.15926
     246 -> 248        0.13645

 Excited State   5:      Singlet-A      3.6132 eV  343.15 nm  f=0.0006  <S**2>=0.000
     242 -> 247        0.57076
     242 -> 249        0.23437
     242 -> 250        0.29519

 The electronic state is 1-A.
 Alpha  occ. eigenvalues --  -46.88264 -19.25814 -19.24757 -19.21277 -19.19690
 Alpha  occ. eigenvalues --  -19.19576 -19.18008 -14.42534 -14.41695 -14.39394
 Alpha  occ. eigenvalues --  -14.38573 -10.39924 -10.39292 -10.35393 -10.34329
 Alpha  occ. eigenvalues --  -10.32208 -10.31370 -10.31311 -10.31263 -10.31222
 Alpha  occ. eigenvalues --  -10.30092 -10.30058 -10.29409 -10.28775 -10.28504
 Alpha  occ. eigenvalues --  -10.28473 -10.28392 -10.28370 -10.28357 -10.28283
 Alpha  occ. eigenvalues --  -10.27884 -10.27732 -10.27709 -10.27303 -10.26937
 Alpha  occ. eigenvalues --  -10.26767 -10.26748 -10.26690 -10.26663 -10.26463
 Alpha  occ. eigenvalues --  -10.26446 -10.26392 -10.26318 -10.26308 -10.26291
 Alpha  occ. eigenvalues --  -10.26209 -10.26183 -10.26027 -10.25834 -10.25779
 Alpha  occ. eigenvalues --  -10.25697 -10.25497 -10.25452 -10.25443 -10.25262
 Alpha  occ. eigenvalues --  -10.25195 -10.25157 -10.25004 -10.24828 -10.24778
 Alpha  occ. eigenvalues --  -10.24709 -10.24695 -10.24472 -10.24422 -10.24304
 Alpha  occ. eigenvalues --  -10.24278  -3.16848  -1.91762  -1.91322  -1.91136
 Alpha  occ. eigenvalues --   -1.18220  -1.16935  -1.09752  -1.09294  -1.08837
 Alpha  occ. eigenvalues --   -1.08115  -1.06417  -1.03870  -1.03151  -0.99827
 Alpha  occ. eigenvalues --   -0.93845  -0.90759  -0.89968  -0.89280  -0.89079
 Alpha  occ. eigenvalues --   -0.88837  -0.88011  -0.87379  -0.87342  -0.87011
 Alpha  occ. eigenvalues --   -0.85735  -0.85374  -0.84148  -0.83609  -0.83009
 Alpha  occ. eigenvalues --   -0.82233  -0.81728  -0.81215  -0.80859  -0.80327
 Alpha  occ. eigenvalues --   -0.80044  -0.78471  -0.77528  -0.76713  -0.76279
 Alpha  occ. eigenvalues --   -0.75942  -0.75397  -0.74912  -0.74891  -0.74067
 Alpha  occ. eigenvalues --   -0.73599  -0.72884  -0.71399  -0.69966  -0.69449
 Alpha  occ. eigenvalues --   -0.68676  -0.68392  -0.66876  -0.66566  -0.65629
 Alpha  occ. eigenvalues --   -0.65539  -0.65055  -0.64629  -0.64351  -0.64056
 Alpha  occ. eigenvalues --   -0.63975  -0.63440  -0.62633  -0.62250  -0.60043
 Alpha  occ. eigenvalues --   -0.59990  -0.59603  -0.59354  -0.58828  -0.58308
 Alpha  occ. eigenvalues --   -0.57354  -0.56910  -0.56810  -0.56148  -0.55532
 Alpha  occ. eigenvalues --   -0.54881  -0.54797  -0.54724  -0.54494  -0.53926
 Alpha  occ. eigenvalues --   -0.53751  -0.53532  -0.53423  -0.53081  -0.52728
 Alpha  occ. eigenvalues --   -0.52573  -0.52282  -0.52225  -0.52064  -0.51979
 Alpha  occ. eigenvalues --   -0.51798  -0.51508  -0.51468  -0.51291  -0.50812
 Alpha  occ. eigenvalues --   -0.50611  -0.50377  -0.49987  -0.49815  -0.49440
 Alpha  occ. eigenvalues --   -0.49355  -0.49150  -0.48844  -0.48637  -0.48583
 Alpha  occ. eigenvalues --   -0.48425  -0.48366  -0.48092  -0.47954  -0.47635
 Alpha  occ. eigenvalues --   -0.47492  -0.47310  -0.47020  -0.46682  -0.46658
 Alpha  occ. eigenvalues --   -0.46541  -0.46361  -0.46275  -0.46069  -0.45952
 Alpha  occ. eigenvalues --   -0.45682  -0.45551  -0.45278  -0.45028  -0.44801
 Alpha  occ. eigenvalues --   -0.44779  -0.44441  -0.44414  -0.44268  -0.43906
 Alpha  occ. eigenvalues --   -0.43536  -0.43531  -0.43393  -0.43265  -0.42719
 Alpha  occ. eigenvalues --   -0.42682  -0.42478  -0.42272  -0.42185  -0.42067
 Alpha  occ. eigenvalues --   -0.41985  -0.41835  -0.41510  -0.41270  -0.41260
 Alpha  occ. eigenvalues --   -0.40927  -0.40667  -0.40555  -0.40502  -0.40290
 Alpha  occ. eigenvalues --   -0.40023  -0.39981  -0.39388  -0.39330  -0.38839
 Alpha  occ. eigenvalues --   -0.38778  -0.38351  -0.38304  -0.38185  -0.37444
 Alpha  occ. eigenvalues --   -0.37384  -0.36966  -0.36940  -0.36783  -0.36714
 Alpha  occ. eigenvalues --   -0.36026  -0.35701  -0.35655  -0.34566  -0.34181
 Alpha  occ. eigenvalues --   -0.33990  -0.33734  -0.32967  -0.31679  -0.30988
 Alpha  occ. eigenvalues --   -0.30868  -0.30375  -0.30241  -0.28387  -0.23859
 Alpha  occ. eigenvalues --   -0.21417
 Alpha virt. eigenvalues --   -0.08882  -0.01074   0.00283   0.02389   0.03476
 Alpha virt. eigenvalues --    0.04386   0.05426   0.05639   0.05814   0.06508
 Alpha virt. eigenvalues --    0.07241   0.08485   0.08782   0.09204   0.09377

 Mulliken charges:
               1
     1  Mg   0.836658
     2  C   -0.065832
     3  C   -0.061704
     4  C   -0.009088
     5  C   -0.101712
     6  N   -0.292696
     7  C   -0.072501
     8  C   -0.025343
     9  C   -0.019656
    10  C    0.065318
    11  C    0.049583
    12  C    0.069314
    13  C    0.027850
    14  C    0.145171
    15  O   -0.247416
    16  O   -0.291413
    17  N   -0.391359
    18  C    0.120717
    19  C   -0.152694
    20  C   -0.023447
    21  C    0.091172
    22  C    0.098088
    23  C   -0.004805
    24  O   -0.219254
    25  C    0.038819
    26  N   -0.255045
    27  C    0.018484
    28  C   -0.077066
    29  C    0.005325
    30  C   -0.018678
    31  C    0.067914
    32  C   -0.013813
    33  C   -0.006215
    34  N   -0.343376
    35  C    0.187164
    36  C   -0.188136
    37  C    0.040459
    38  C    0.174005
    39  C    0.135214
    40  C   -0.001197
    41  O   -0.180407
    42  C    0.003731
    43  C    0.221574
    44  O   -0.160742
    45  O   -0.363388
    46  C    0.173264
    47  C    0.263785
    48  C   -0.097755
    49  C   -0.174327
    50  C    0.099197
    51  C    0.050005
    52  C    0.050682
    53  C    0.022823
    54  C   -0.141868
    55  C    0.062780
    56  C    0.041184
    57  C   -0.010539
    58  C    0.103385
    59  C   -0.167025
    60  C    0.061853
    61  C    0.045972
    62  C    0.011601
    63  C    0.013542
    64  C   -0.173212
    65  C    0.053348
    66  C    0.052136
    67  H   -0.033207
    68  H   -0.014049
    69  H   -0.036334
    70  H    0.021008
    71  H    0.022911
    72  H    0.021445
    73  H    0.008606
    74  H    0.017214
    75  H    0.016733
    76  H    0.021160
    77  H    0.048879
    78  H    0.024517
    79  H    0.010932
    80  H    0.039846
    81  H    0.017802
    82  H    0.024498
    83  H    0.055025
    84  H    0.027274
    85  H    0.022972
    86  H    0.009929
    87  H    0.028005
    88  H    0.008252
    89  H    0.030374
    90  H    0.015263
    91  H    0.005907
    92  H    0.026583
    93  H    0.014824
    94  H    0.031845
    95  H    0.018264
    96  H    0.047000
    97  H    0.043361
    98  H    0.029105
    99  H    0.048404
   100  H    0.043185
   101  H    0.020226
   102  H    0.026997
   103  H    0.022087
   104  H   -0.007942
   105  H    0.014571
   106  H    0.018449
   107  H    0.032653
   108  H   -0.011629
   109  H    0.003466
   110  H    0.001230
   111  H    0.007134
   112  H   -0.005565
   113  H   -0.009487
   114  H   -0.010756
   115  H    0.007051
   116  H   -0.007902
   117  H    0.013928
   118  H   -0.025498
   119  H   -0.009397
   120  H    0.018879
   121  H    0.003455
   122  H   -0.000171
   123  H    0.006511
   124  H    0.002397
   125  H    0.001487
   126  H   -0.005245
   127  H    0.018822
   128  H   -0.005792
   129  H   -0.013848
   130  H   -0.006263
   131  H   -0.002906
   132  H   -0.002494
   133  H   -0.006615
   134  H    0.002780
   135  H    0.004414
   136  H    0.003404
   137  H    0.016194
   138  H    0.005746
   139  H   -0.002098
   140  H    0.013781
 Sum of Mulliken charges =  -0.00000

 Dipole moment (field-independent basis, Debye):
    X=             -3.7440    Y=              0.5642    Z=             -1.7371  Tot=              4.1658
 Quadrupole moment (field-independent basis, Debye-Ang):
   XX=           -380.1803   YY=           -413.5629   ZZ=           -409.7414
   XY=            -19.6963   XZ=             16.1638   YZ=             -3.4638

 Normal termination of Gaussian 16 at Wed Apr 27 20:43:57 2022.
