 Gaussian 16, Revision A.03,
 Gaussian 16:  ES64L-G16RevA.03 25-Dec-2016

 ---------------------------------
 #p PBE1PBE/Def2SVP td=(nstates=5)
 ---------------------------------

 ------------------------------------------------------
 step_1301_chromophore_25 TDDFT with PBE1PBE functional
 ------------------------------------------------------
 Symbolic Z-matrix:
 Charge =  0 Multiplicity = 1

                         Standard orientation:
 ---------------------------------------------------------------------
 Center     Atomic      Atomic             Coordinates (Angstroms)
 Number     Number       Type             X           Y           Z
 ---------------------------------------------------------------------
      1         12           0        5.765684    0.296233    0.383387
      2          6           0        3.318470   -1.955982    0.275140
      3          6           0        3.384329    2.889331   -0.316615
      4          6           0        8.352322    2.376628   -0.128459
      5          6           0        8.032857   -2.279121    0.826320
      6          7           0        3.624789    0.445967    0.109171
      7          6           0        2.849618   -0.668704    0.150455
      8          6           0        1.315980   -0.280432   -0.062798
      9          6           0        1.376985    1.294439   -0.300596
     10          6           0        2.856707    1.555340   -0.198233
     11          6           0        0.674501    1.635132   -1.647535
     12          6           0        0.531366   -0.731473    1.186685
     13          6           0       -0.757692   -1.578454    0.940673
     14          6           0       -2.056016   -1.119734    1.545291
     15          8           0       -2.140265   -0.433155    2.569580
     16          8           0       -3.032839   -1.616790    0.780056
     17          7           0        5.818681    2.417222   -0.051898
     18          6           0        4.753941    3.280630   -0.349116
     19          6           0        5.286328    4.500451   -0.837722
     20          6           0        6.748437    4.375153   -0.853742
     21          6           0        7.048774    3.079888   -0.324299
     22          6           0        4.459722    5.679806   -1.308255
     23          6           0        7.791539    5.407684   -1.295626
     24          8           0        8.991557    5.301356   -1.032758
     25          6           0        7.398249    6.593814   -2.104756
     26          7           0        7.905616    0.123256    0.326971
     27          6           0        8.715671    1.101721    0.038476
     28          6           0       10.251568    0.693415   -0.009475
     29          6           0       10.212885   -0.810106    0.560523
     30          6           0        8.618427   -1.030545    0.584491
     31          6           0       10.641721    0.713428   -1.516185
     32          6           0       10.966327   -0.887528    1.969485
     33          6           0       10.114682   -0.442529    3.238763
     34          7           0        5.737236   -1.697813    0.562000
     35          6           0        6.703582   -2.638260    0.741042
     36          6           0        6.104820   -3.948817    0.893259
     37          6           0        4.775260   -3.718501    0.600385
     38          6           0        4.614097   -2.341463    0.433043
     39          6           0        6.678902   -5.274220    1.087241
     40          6           0        3.506233   -4.375618    0.501249
     41          8           0        3.189739   -5.562475    0.612235
     42          6           0        2.487992   -3.216190    0.156147
     43          6           0        2.063533   -3.565218   -1.248856
     44          8           0        2.721363   -3.452062   -2.224782
     45          8           0        0.706530   -3.950580   -1.187601
     46          6           0        0.144172   -4.496589   -2.416129
     47          6           0       -4.353685   -1.319443    1.201152
     48          6           0       -5.332723   -1.393633    0.014238
     49          6           0       -6.475334   -0.681316   -0.179063
     50          6           0       -6.877024    0.532329    0.588014
     51          6           0       -7.496768   -1.189588   -1.194804
     52          6           0       -7.384141   -0.538126   -2.640434
     53          6           0       -8.644583    0.272864   -2.978141
     54          6           0       -9.909590   -0.687121   -3.328951
     55          6           0       -9.897042   -0.928154   -4.823973
     56          6           0      -11.227787   -0.147719   -2.785558
     57          6           0      -11.802959   -0.888490   -1.556478
     58          6           0      -13.245624   -0.295013   -1.140084
     59          6           0      -13.062688    0.188209    0.318325
     60          6           0      -14.378897    0.018387    1.185704
     61          6           0      -12.577878    1.680409    0.333438
     62          6           0      -11.275770    1.846765    1.118357
     63          6           0      -11.570631    1.709104    2.642629
     64          6           0      -10.962619    2.876713    3.469286
     65          6           0       -9.445989    2.572094    3.563833
     66          6           0      -11.623136    2.922516    4.880432
     67          1           0        2.723214    3.743013   -0.479084
     68          1           0        9.226548    2.986999   -0.366757
     69          1           0        8.826094   -2.977821    1.098686
     70          1           0        1.024189   -0.793742   -0.978658
     71          1           0        0.869875    1.857774    0.482210
     72          1           0        1.119251    1.195554   -2.540571
     73          1           0        0.672371    2.713203   -1.807163
     74          1           0       -0.371255    1.327289   -1.635969
     75          1           0        0.230083    0.178638    1.706806
     76          1           0        1.163608   -1.284755    1.881246
     77          1           0       -0.580729   -2.595148    1.291831
     78          1           0       -0.909817   -1.662522   -0.135916
     79          1           0        3.514140    5.846080   -0.793552
     80          1           0        4.206888    5.631486   -2.367504
     81          1           0        5.025161    6.559682   -1.002504
     82          1           0        8.346694    6.814864   -2.592984
     83          1           0        7.094781    7.473751   -1.536616
     84          1           0        6.699782    6.267805   -2.875045
     85          1           0       10.915712    1.342848    0.559744
     86          1           0       10.716068   -1.562285   -0.047636
     87          1           0        9.782164    0.877783   -2.165140
     88          1           0       11.020671   -0.263917   -1.811955
     89          1           0       11.348859    1.534916   -1.636920
     90          1           0       11.861756   -0.268752    1.909034
     91          1           0       11.271948   -1.917991    2.148055
     92          1           0       10.613767    0.396969    3.722315
     93          1           0       10.048448   -1.342113    3.851703
     94          1           0        9.087843   -0.191461    2.975931
     95          1           0        7.734022   -5.253241    1.358601
     96          1           0        6.488445   -5.805869    0.154763
     97          1           0        5.979233   -5.653177    1.832680
     98          1           0        1.692969   -3.121665    0.896722
     99          1           0       -0.490279   -5.352650   -2.183903
    100          1           0        0.865777   -4.708253   -3.204935
    101          1           0       -0.434826   -3.674037   -2.835248
    102          1           0       -4.441350   -0.372029    1.734003
    103          1           0       -4.550897   -2.133282    1.898581
    104          1           0       -5.214364   -2.287887   -0.597060
    105          1           0       -7.202890    1.289566   -0.125987
    106          1           0       -6.082159    0.951301    1.205125
    107          1           0       -7.778016    0.274134    1.144171
    108          1           0       -8.537897   -1.009181   -0.927138
    109          1           0       -7.421801   -2.276581   -1.182164
    110          1           0       -7.268036   -1.343708   -3.365738
    111          1           0       -6.467788    0.050809   -2.686406
    112          1           0       -8.535248    0.928355   -3.842257
    113          1           0       -8.927485    0.945393   -2.169018
    114          1           0       -9.738221   -1.659282   -2.866742
    115          1           0      -10.402137   -1.838690   -5.146204
    116          1           0       -8.846021   -1.129939   -5.033483
    117          1           0      -10.222661   -0.076278   -5.421328
    118          1           0      -11.898144   -0.356297   -3.619514
    119          1           0      -11.290590    0.936904   -2.701734
    120          1           0      -11.013267   -0.737617   -0.819348
    121          1           0      -11.945388   -1.926486   -1.855792
    122          1           0      -13.975372   -1.099821   -1.230207
    123          1           0      -13.469890    0.556658   -1.781355
    124          1           0      -12.288289   -0.345352    0.868746
    125          1           0      -15.214991    0.124824    0.494737
    126          1           0      -14.364632    0.918334    1.799888
    127          1           0      -14.453760   -0.843478    1.849484
    128          1           0      -13.349516    2.331353    0.745065
    129          1           0      -12.367060    2.090395   -0.654278
    130          1           0      -10.898803    2.852678    0.930364
    131          1           0      -10.491037    1.139405    0.847995
    132          1           0      -11.144323    0.735774    2.884915
    133          1           0      -12.626142    1.612265    2.898798
    134          1           0      -11.047323    3.891396    3.081286
    135          1           0       -9.214239    2.575209    4.628829
    136          1           0       -8.979203    3.436838    3.089984
    137          1           0       -9.105918    1.658608    3.074907
    138          1           0      -11.001759    2.438183    5.633756
    139          1           0      -12.541176    2.336827    4.932698
    140          1           0      -11.875310    3.966878    5.062811
 ---------------------------------------------------------------------

 SCF Done:  E(RPBE1PBE) =  -3005.37981096     A.U. after   15 cycles

 Excitation energies and oscillator strengths:

 Excited State   1:      Singlet-A      1.8996 eV  652.68 nm  f=0.3746  <S**2>=0.000
     245 -> 248       -0.17551
     246 -> 247        0.69282
     246 <- 247       -0.10847
 This state for optimization and/or second-order correction.
 Total Energy, E(TD-HF/TD-DFT) =  -3005.31000121
 Copying the excited state density for this state as the 1-particle RhoCI density.

 Excited State   2:      Singlet-A      2.2112 eV  560.70 nm  f=0.1508  <S**2>=0.000
     244 -> 247        0.11074
     245 -> 247        0.66197
     246 -> 248        0.22127

 Excited State   3:      Singlet-A      2.7423 eV  452.12 nm  f=0.0210  <S**2>=0.000
     244 -> 247        0.69004

 Excited State   4:      Singlet-A      2.9863 eV  415.18 nm  f=0.0001  <S**2>=0.000
     243 -> 247        0.68377
     243 -> 249        0.11602
     243 -> 250        0.11082

 Excited State   5:      Singlet-A      3.0604 eV  405.13 nm  f=0.0011  <S**2>=0.000
     239 -> 247        0.14120
     241 -> 247        0.64969
     241 -> 249       -0.18220

 The electronic state is 1-A.
 Alpha  occ. eigenvalues --  -46.91678 -19.26490 -19.25353 -19.21343 -19.19991
 Alpha  occ. eigenvalues --  -19.19653 -19.18359 -14.42077 -14.41126 -14.38922
 Alpha  occ. eigenvalues --  -14.38421 -10.36829 -10.36295 -10.32404 -10.31590
 Alpha  occ. eigenvalues --  -10.29591 -10.29132 -10.28967 -10.28860 -10.28534
 Alpha  occ. eigenvalues --  -10.28011 -10.27550 -10.27186 -10.26695 -10.26340
 Alpha  occ. eigenvalues --  -10.26206 -10.26199 -10.25919 -10.25892 -10.25682
 Alpha  occ. eigenvalues --  -10.25647 -10.25593 -10.25535 -10.25027 -10.24677
 Alpha  occ. eigenvalues --  -10.24392 -10.24385 -10.24312 -10.24239 -10.24151
 Alpha  occ. eigenvalues --  -10.24025 -10.23895 -10.23873 -10.23781 -10.23759
 Alpha  occ. eigenvalues --  -10.23738 -10.23677 -10.23581 -10.23566 -10.23477
 Alpha  occ. eigenvalues --  -10.23299 -10.23160 -10.23071 -10.23043 -10.22714
 Alpha  occ. eigenvalues --  -10.22647 -10.22555 -10.22535 -10.22412 -10.22318
 Alpha  occ. eigenvalues --  -10.22288 -10.22112 -10.22022 -10.21841 -10.21722
 Alpha  occ. eigenvalues --  -10.21689  -3.13842  -1.86698  -1.86236  -1.86052
 Alpha  occ. eigenvalues --   -1.13072  -1.11571  -1.04337  -1.04052  -1.03684
 Alpha  occ. eigenvalues --   -1.02958  -1.00994  -0.98466  -0.97753  -0.94644
 Alpha  occ. eigenvalues --   -0.88116  -0.84864  -0.84054  -0.83477  -0.83255
 Alpha  occ. eigenvalues --   -0.82995  -0.82292  -0.81591  -0.81506  -0.81323
 Alpha  occ. eigenvalues --   -0.80058  -0.79718  -0.78352  -0.77859  -0.77271
 Alpha  occ. eigenvalues --   -0.76433  -0.75928  -0.75455  -0.75126  -0.74666
 Alpha  occ. eigenvalues --   -0.74182  -0.72747  -0.71887  -0.70983  -0.70533
 Alpha  occ. eigenvalues --   -0.70206  -0.69496  -0.69167  -0.69045  -0.68235
 Alpha  occ. eigenvalues --   -0.67959  -0.67298  -0.65839  -0.64318  -0.63774
 Alpha  occ. eigenvalues --   -0.63042  -0.62645  -0.61154  -0.60923  -0.60060
 Alpha  occ. eigenvalues --   -0.59804  -0.59577  -0.59056  -0.58581  -0.58533
 Alpha  occ. eigenvalues --   -0.58397  -0.57617  -0.56819  -0.56744  -0.54478
 Alpha  occ. eigenvalues --   -0.54393  -0.54125  -0.53772  -0.53425  -0.52863
 Alpha  occ. eigenvalues --   -0.51745  -0.51540  -0.51238  -0.50742  -0.50005
 Alpha  occ. eigenvalues --   -0.49423  -0.49274  -0.49159  -0.49023  -0.48343
 Alpha  occ. eigenvalues --   -0.48281  -0.47994  -0.47868  -0.47716  -0.47193
 Alpha  occ. eigenvalues --   -0.47012  -0.46810  -0.46696  -0.46521  -0.46494
 Alpha  occ. eigenvalues --   -0.46313  -0.46082  -0.45993  -0.45915  -0.45429
 Alpha  occ. eigenvalues --   -0.45090  -0.44854  -0.44568  -0.44432  -0.44029
 Alpha  occ. eigenvalues --   -0.43917  -0.43805  -0.43484  -0.43239  -0.43195
 Alpha  occ. eigenvalues --   -0.43025  -0.42954  -0.42715  -0.42611  -0.42251
 Alpha  occ. eigenvalues --   -0.42126  -0.41937  -0.41682  -0.41293  -0.41276
 Alpha  occ. eigenvalues --   -0.41232  -0.41002  -0.40944  -0.40794  -0.40615
 Alpha  occ. eigenvalues --   -0.40319  -0.40300  -0.39944  -0.39700  -0.39599
 Alpha  occ. eigenvalues --   -0.39465  -0.39166  -0.39142  -0.38938  -0.38741
 Alpha  occ. eigenvalues --   -0.38408  -0.38286  -0.38126  -0.38037  -0.37508
 Alpha  occ. eigenvalues --   -0.37406  -0.37266  -0.37115  -0.36999  -0.36938
 Alpha  occ. eigenvalues --   -0.36865  -0.36605  -0.36371  -0.36086  -0.35975
 Alpha  occ. eigenvalues --   -0.35663  -0.35552  -0.35428  -0.35332  -0.35083
 Alpha  occ. eigenvalues --   -0.34908  -0.34766  -0.34273  -0.34146  -0.33753
 Alpha  occ. eigenvalues --   -0.33624  -0.33286  -0.33162  -0.32970  -0.32400
 Alpha  occ. eigenvalues --   -0.32292  -0.32020  -0.31837  -0.31765  -0.31532
 Alpha  occ. eigenvalues --   -0.31106  -0.30563  -0.30457  -0.29532  -0.29320
 Alpha  occ. eigenvalues --   -0.28886  -0.28695  -0.28620  -0.27064  -0.26398
 Alpha  occ. eigenvalues --   -0.25968  -0.25571  -0.25252  -0.24198  -0.20809
 Alpha  occ. eigenvalues --   -0.19007
 Alpha virt. eigenvalues --   -0.11293  -0.04619  -0.03919  -0.02070   0.00030
 Alpha virt. eigenvalues --    0.00538   0.00996   0.01205   0.01459   0.03265
 Alpha virt. eigenvalues --    0.03894   0.04546   0.05167   0.05313   0.05807

 Mulliken charges:
               1
     1  Mg   0.987317
     2  C   -0.078882
     3  C   -0.053803
     4  C    0.000335
     5  C   -0.086838
     6  N   -0.401782
     7  C    0.007187
     8  C   -0.094991
     9  C   -0.100611
    10  C    0.107472
    11  C   -0.009057
    12  C    0.022394
    13  C   -0.050366
    14  C    0.215033
    15  O   -0.281428
    16  O   -0.324119
    17  N   -0.498167
    18  C    0.148482
    19  C   -0.181605
    20  C   -0.081284
    21  C    0.132043
    22  C    0.038738
    23  C    0.051457
    24  O   -0.254039
    25  C   -0.037140
    26  N   -0.361902
    27  C    0.042997
    28  C   -0.155631
    29  C   -0.054319
    30  C    0.010803
    31  C    0.016241
    32  C   -0.073197
    33  C   -0.079400
    34  N   -0.481158
    35  C    0.193276
    36  C   -0.200465
    37  C   -0.003388
    38  C    0.233679
    39  C    0.077597
    40  C    0.086321
    41  O   -0.227984
    42  C   -0.107798
    43  C    0.312614
    44  O   -0.197011
    45  O   -0.394446
    46  C    0.118780
    47  C    0.223793
    48  C   -0.107252
    49  C   -0.218039
    50  C    0.029090
    51  C   -0.018720
    52  C   -0.010538
    53  C   -0.039284
    54  C   -0.225013
    55  C   -0.000261
    56  C   -0.010855
    57  C   -0.079640
    58  C    0.045613
    59  C   -0.251305
    60  C    0.000849
    61  C   -0.007346
    62  C   -0.057490
    63  C   -0.043645
    64  C   -0.265264
    65  C   -0.006281
    66  C   -0.006044
    67  H   -0.000814
    68  H    0.018168
    69  H   -0.003615
    70  H    0.059907
    71  H    0.058232
    72  H    0.048967
    73  H    0.036654
    74  H    0.046843
    75  H    0.048833
    76  H    0.054143
    77  H    0.080903
    78  H    0.057069
    79  H    0.038774
    80  H    0.067711
    81  H    0.047563
    82  H    0.052932
    83  H    0.080358
    84  H    0.055041
    85  H    0.056378
    86  H    0.044661
    87  H    0.055929
    88  H    0.036479
    89  H    0.057081
    90  H    0.047407
    91  H    0.037776
    92  H    0.053213
    93  H    0.042499
    94  H    0.062802
    95  H    0.044753
    96  H    0.074133
    97  H    0.070724
    98  H    0.069391
    99  H    0.069782
   100  H    0.063998
   101  H    0.042370
   102  H    0.052585
   103  H    0.051011
   104  H    0.021681
   105  H    0.043891
   106  H    0.045381
   107  H    0.062978
   108  H    0.029090
   109  H    0.034818
   110  H    0.033770
   111  H    0.039963
   112  H    0.027721
   113  H    0.024375
   114  H    0.027959
   115  H    0.035839
   116  H    0.021731
   117  H    0.041592
   118  H    0.010609
   119  H    0.022470
   120  H    0.055330
   121  H    0.036456
   122  H    0.032587
   123  H    0.038263
   124  H    0.041188
   125  H    0.030235
   126  H    0.021319
   127  H    0.045990
   128  H    0.027914
   129  H    0.018979
   130  H    0.026931
   131  H    0.032988
   132  H    0.029903
   133  H    0.027850
   134  H    0.038729
   135  H    0.031846
   136  H    0.030986
   137  H    0.045333
   138  H    0.032219
   139  H    0.025096
   140  H    0.041026
 Sum of Mulliken charges =  -0.00000

 Dipole moment (field-independent basis, Debye):
    X=             -3.7478    Y=              0.9275    Z=             -1.8346  Tot=              4.2746
 Quadrupole moment (field-independent basis, Debye-Ang):
   XX=           -374.4748   YY=           -410.4648   ZZ=           -407.1205
   XY=            -18.4282   XZ=             16.2500   YZ=             -3.6670

 Normal termination of Gaussian 16 at Wed Apr 27 21:00:15 2022.
