 Gaussian 16, Revision A.03,
 Gaussian 16:  ES64L-G16RevA.03 25-Dec-2016

 --------------------------------
 #p wB97XD/Def2SVP td=(nstates=5)
 --------------------------------

 -----------------------------------------------------
 step_1301_chromophore_25 TDDFT with wB97XD functional
 -----------------------------------------------------
 Symbolic Z-matrix:
 Charge =  0 Multiplicity = 1

                         Standard orientation:
 ---------------------------------------------------------------------
 Center     Atomic      Atomic             Coordinates (Angstroms)
 Number     Number       Type             X           Y           Z
 ---------------------------------------------------------------------
      1         12           0        5.765684    0.296233    0.383387
      2          6           0        3.318470   -1.955982    0.275140
      3          6           0        3.384329    2.889331   -0.316615
      4          6           0        8.352322    2.376628   -0.128459
      5          6           0        8.032857   -2.279121    0.826320
      6          7           0        3.624789    0.445967    0.109171
      7          6           0        2.849618   -0.668704    0.150455
      8          6           0        1.315980   -0.280432   -0.062798
      9          6           0        1.376985    1.294439   -0.300596
     10          6           0        2.856707    1.555340   -0.198233
     11          6           0        0.674501    1.635132   -1.647535
     12          6           0        0.531366   -0.731473    1.186685
     13          6           0       -0.757692   -1.578454    0.940673
     14          6           0       -2.056016   -1.119734    1.545291
     15          8           0       -2.140265   -0.433155    2.569580
     16          8           0       -3.032839   -1.616790    0.780056
     17          7           0        5.818681    2.417222   -0.051898
     18          6           0        4.753941    3.280630   -0.349116
     19          6           0        5.286328    4.500451   -0.837722
     20          6           0        6.748437    4.375153   -0.853742
     21          6           0        7.048774    3.079888   -0.324299
     22          6           0        4.459722    5.679806   -1.308255
     23          6           0        7.791539    5.407684   -1.295626
     24          8           0        8.991557    5.301356   -1.032758
     25          6           0        7.398249    6.593814   -2.104756
     26          7           0        7.905616    0.123256    0.326971
     27          6           0        8.715671    1.101721    0.038476
     28          6           0       10.251568    0.693415   -0.009475
     29          6           0       10.212885   -0.810106    0.560523
     30          6           0        8.618427   -1.030545    0.584491
     31          6           0       10.641721    0.713428   -1.516185
     32          6           0       10.966327   -0.887528    1.969485
     33          6           0       10.114682   -0.442529    3.238763
     34          7           0        5.737236   -1.697813    0.562000
     35          6           0        6.703582   -2.638260    0.741042
     36          6           0        6.104820   -3.948817    0.893259
     37          6           0        4.775260   -3.718501    0.600385
     38          6           0        4.614097   -2.341463    0.433043
     39          6           0        6.678902   -5.274220    1.087241
     40          6           0        3.506233   -4.375618    0.501249
     41          8           0        3.189739   -5.562475    0.612235
     42          6           0        2.487992   -3.216190    0.156147
     43          6           0        2.063533   -3.565218   -1.248856
     44          8           0        2.721363   -3.452062   -2.224782
     45          8           0        0.706530   -3.950580   -1.187601
     46          6           0        0.144172   -4.496589   -2.416129
     47          6           0       -4.353685   -1.319443    1.201152
     48          6           0       -5.332723   -1.393633    0.014238
     49          6           0       -6.475334   -0.681316   -0.179063
     50          6           0       -6.877024    0.532329    0.588014
     51          6           0       -7.496768   -1.189588   -1.194804
     52          6           0       -7.384141   -0.538126   -2.640434
     53          6           0       -8.644583    0.272864   -2.978141
     54          6           0       -9.909590   -0.687121   -3.328951
     55          6           0       -9.897042   -0.928154   -4.823973
     56          6           0      -11.227787   -0.147719   -2.785558
     57          6           0      -11.802959   -0.888490   -1.556478
     58          6           0      -13.245624   -0.295013   -1.140084
     59          6           0      -13.062688    0.188209    0.318325
     60          6           0      -14.378897    0.018387    1.185704
     61          6           0      -12.577878    1.680409    0.333438
     62          6           0      -11.275770    1.846765    1.118357
     63          6           0      -11.570631    1.709104    2.642629
     64          6           0      -10.962619    2.876713    3.469286
     65          6           0       -9.445989    2.572094    3.563833
     66          6           0      -11.623136    2.922516    4.880432
     67          1           0        2.723214    3.743013   -0.479084
     68          1           0        9.226548    2.986999   -0.366757
     69          1           0        8.826094   -2.977821    1.098686
     70          1           0        1.024189   -0.793742   -0.978658
     71          1           0        0.869875    1.857774    0.482210
     72          1           0        1.119251    1.195554   -2.540571
     73          1           0        0.672371    2.713203   -1.807163
     74          1           0       -0.371255    1.327289   -1.635969
     75          1           0        0.230083    0.178638    1.706806
     76          1           0        1.163608   -1.284755    1.881246
     77          1           0       -0.580729   -2.595148    1.291831
     78          1           0       -0.909817   -1.662522   -0.135916
     79          1           0        3.514140    5.846080   -0.793552
     80          1           0        4.206888    5.631486   -2.367504
     81          1           0        5.025161    6.559682   -1.002504
     82          1           0        8.346694    6.814864   -2.592984
     83          1           0        7.094781    7.473751   -1.536616
     84          1           0        6.699782    6.267805   -2.875045
     85          1           0       10.915712    1.342848    0.559744
     86          1           0       10.716068   -1.562285   -0.047636
     87          1           0        9.782164    0.877783   -2.165140
     88          1           0       11.020671   -0.263917   -1.811955
     89          1           0       11.348859    1.534916   -1.636920
     90          1           0       11.861756   -0.268752    1.909034
     91          1           0       11.271948   -1.917991    2.148055
     92          1           0       10.613767    0.396969    3.722315
     93          1           0       10.048448   -1.342113    3.851703
     94          1           0        9.087843   -0.191461    2.975931
     95          1           0        7.734022   -5.253241    1.358601
     96          1           0        6.488445   -5.805869    0.154763
     97          1           0        5.979233   -5.653177    1.832680
     98          1           0        1.692969   -3.121665    0.896722
     99          1           0       -0.490279   -5.352650   -2.183903
    100          1           0        0.865777   -4.708253   -3.204935
    101          1           0       -0.434826   -3.674037   -2.835248
    102          1           0       -4.441350   -0.372029    1.734003
    103          1           0       -4.550897   -2.133282    1.898581
    104          1           0       -5.214364   -2.287887   -0.597060
    105          1           0       -7.202890    1.289566   -0.125987
    106          1           0       -6.082159    0.951301    1.205125
    107          1           0       -7.778016    0.274134    1.144171
    108          1           0       -8.537897   -1.009181   -0.927138
    109          1           0       -7.421801   -2.276581   -1.182164
    110          1           0       -7.268036   -1.343708   -3.365738
    111          1           0       -6.467788    0.050809   -2.686406
    112          1           0       -8.535248    0.928355   -3.842257
    113          1           0       -8.927485    0.945393   -2.169018
    114          1           0       -9.738221   -1.659282   -2.866742
    115          1           0      -10.402137   -1.838690   -5.146204
    116          1           0       -8.846021   -1.129939   -5.033483
    117          1           0      -10.222661   -0.076278   -5.421328
    118          1           0      -11.898144   -0.356297   -3.619514
    119          1           0      -11.290590    0.936904   -2.701734
    120          1           0      -11.013267   -0.737617   -0.819348
    121          1           0      -11.945388   -1.926486   -1.855792
    122          1           0      -13.975372   -1.099821   -1.230207
    123          1           0      -13.469890    0.556658   -1.781355
    124          1           0      -12.288289   -0.345352    0.868746
    125          1           0      -15.214991    0.124824    0.494737
    126          1           0      -14.364632    0.918334    1.799888
    127          1           0      -14.453760   -0.843478    1.849484
    128          1           0      -13.349516    2.331353    0.745065
    129          1           0      -12.367060    2.090395   -0.654278
    130          1           0      -10.898803    2.852678    0.930364
    131          1           0      -10.491037    1.139405    0.847995
    132          1           0      -11.144323    0.735774    2.884915
    133          1           0      -12.626142    1.612265    2.898798
    134          1           0      -11.047323    3.891396    3.081286
    135          1           0       -9.214239    2.575209    4.628829
    136          1           0       -8.979203    3.436838    3.089984
    137          1           0       -9.105918    1.658608    3.074907
    138          1           0      -11.001759    2.438183    5.633756
    139          1           0      -12.541176    2.336827    4.932698
    140          1           0      -11.875310    3.966878    5.062811
 ---------------------------------------------------------------------

 SCF Done:  E(RwB97XD) =  -3007.89308808     A.U. after   19 cycles

 Excitation energies and oscillator strengths:

 Excited State   1:      Singlet-A      1.6890 eV  734.08 nm  f=0.3923  <S**2>=0.000
     245 -> 248       -0.18463
     246 -> 247        0.68406
     245 <- 248       -0.11695
 This state for optimization and/or second-order correction.
 Total Energy, E(TD-HF/TD-DFT) =  -3007.83101980
 Copying the excited state density for this state as the 1-particle RhoCI density.

 Excited State   2:      Singlet-A      2.1532 eV  575.81 nm  f=0.1592  <S**2>=0.000
     245 -> 247        0.65388
     246 -> 248        0.24979

 Excited State   3:      Singlet-A      3.0799 eV  402.55 nm  f=0.0129  <S**2>=0.000
     244 -> 247        0.67855

 Excited State   4:      Singlet-A      3.5135 eV  352.88 nm  f=0.0119  <S**2>=0.000
     239 -> 247        0.28811
     239 -> 249       -0.23299
     240 -> 247        0.17595
     240 -> 249       -0.13763
     241 -> 247        0.43215
     241 -> 249       -0.24600
     246 -> 248        0.14863

 Excited State   5:      Singlet-A      3.6458 eV  340.08 nm  f=0.0007  <S**2>=0.000
     242 -> 247        0.12825
     243 -> 247        0.53227
     243 -> 249        0.24332
     243 -> 250        0.31288

 The electronic state is 1-A.
 Alpha  occ. eigenvalues --  -46.94600 -19.31076 -19.30011 -19.26202 -19.24689
 Alpha  occ. eigenvalues --  -19.24670 -19.22990 -14.47133 -14.46291 -14.44008
 Alpha  occ. eigenvalues --  -14.43179 -10.43787 -10.43109 -10.39470 -10.38249
 Alpha  occ. eigenvalues --  -10.36103 -10.35376 -10.35277 -10.35257 -10.35108
 Alpha  occ. eigenvalues --  -10.34118 -10.34114 -10.33379 -10.32748 -10.32589
 Alpha  occ. eigenvalues --  -10.32478 -10.32474 -10.32450 -10.32447 -10.32392
 Alpha  occ. eigenvalues --  -10.31896 -10.31789 -10.31784 -10.31332 -10.31043
 Alpha  occ. eigenvalues --  -10.30774 -10.30715 -10.30694 -10.30596 -10.30493
 Alpha  occ. eigenvalues --  -10.30358 -10.30254 -10.30237 -10.30219 -10.30171
 Alpha  occ. eigenvalues --  -10.30134 -10.30131 -10.30024 -10.29830 -10.29734
 Alpha  occ. eigenvalues --  -10.29648 -10.29489 -10.29439 -10.29400 -10.29082
 Alpha  occ. eigenvalues --  -10.29041 -10.28989 -10.28920 -10.28867 -10.28760
 Alpha  occ. eigenvalues --  -10.28640 -10.28557 -10.28401 -10.28267 -10.28123
 Alpha  occ. eigenvalues --  -10.28095  -3.20615  -1.94223  -1.93759  -1.93572
 Alpha  occ. eigenvalues --   -1.20456  -1.19091  -1.12032  -1.11523  -1.11002
 Alpha  occ. eigenvalues --   -1.10320  -1.08507  -1.05880  -1.05144  -1.01819
 Alpha  occ. eigenvalues --   -0.95867  -0.92558  -0.91732  -0.91174  -0.90981
 Alpha  occ. eigenvalues --   -0.90664  -0.89944  -0.89198  -0.89160  -0.88913
 Alpha  occ. eigenvalues --   -0.87635  -0.87270  -0.86001  -0.85527  -0.84892
 Alpha  occ. eigenvalues --   -0.84094  -0.83618  -0.83112  -0.82789  -0.82273
 Alpha  occ. eigenvalues --   -0.81862  -0.80405  -0.79436  -0.78663  -0.78179
 Alpha  occ. eigenvalues --   -0.77847  -0.77188  -0.76802  -0.76734  -0.75900
 Alpha  occ. eigenvalues --   -0.75539  -0.74863  -0.73363  -0.71913  -0.71406
 Alpha  occ. eigenvalues --   -0.70631  -0.70286  -0.68754  -0.68491  -0.67539
 Alpha  occ. eigenvalues --   -0.67465  -0.67045  -0.66572  -0.66189  -0.66003
 Alpha  occ. eigenvalues --   -0.65963  -0.65275  -0.64461  -0.64250  -0.62031
 Alpha  occ. eigenvalues --   -0.61912  -0.61594  -0.61340  -0.60801  -0.60264
 Alpha  occ. eigenvalues --   -0.59239  -0.58887  -0.58742  -0.58127  -0.57475
 Alpha  occ. eigenvalues --   -0.56824  -0.56775  -0.56585  -0.56450  -0.55819
 Alpha  occ. eigenvalues --   -0.55698  -0.55455  -0.55345  -0.55025  -0.54600
 Alpha  occ. eigenvalues --   -0.54487  -0.54238  -0.54092  -0.53944  -0.53889
 Alpha  occ. eigenvalues --   -0.53688  -0.53400  -0.53363  -0.53256  -0.52723
 Alpha  occ. eigenvalues --   -0.52540  -0.52220  -0.51879  -0.51722  -0.51342
 Alpha  occ. eigenvalues --   -0.51305  -0.51069  -0.50750  -0.50527  -0.50490
 Alpha  occ. eigenvalues --   -0.50325  -0.50252  -0.50004  -0.49893  -0.49531
 Alpha  occ. eigenvalues --   -0.49415  -0.49208  -0.48943  -0.48596  -0.48535
 Alpha  occ. eigenvalues --   -0.48484  -0.48245  -0.48179  -0.47980  -0.47875
 Alpha  occ. eigenvalues --   -0.47561  -0.47473  -0.47160  -0.46930  -0.46763
 Alpha  occ. eigenvalues --   -0.46704  -0.46339  -0.46290  -0.46224  -0.45835
 Alpha  occ. eigenvalues --   -0.45496  -0.45434  -0.45276  -0.45230  -0.44634
 Alpha  occ. eigenvalues --   -0.44577  -0.44405  -0.44177  -0.44083  -0.43988
 Alpha  occ. eigenvalues --   -0.43890  -0.43715  -0.43405  -0.43143  -0.43116
 Alpha  occ. eigenvalues --   -0.42778  -0.42627  -0.42455  -0.42417  -0.42147
 Alpha  occ. eigenvalues --   -0.41925  -0.41846  -0.41240  -0.41218  -0.40727
 Alpha  occ. eigenvalues --   -0.40684  -0.40292  -0.40204  -0.40029  -0.39305
 Alpha  occ. eigenvalues --   -0.39272  -0.39047  -0.38833  -0.38773  -0.38719
 Alpha  occ. eigenvalues --   -0.37944  -0.37666  -0.37514  -0.36405  -0.36129
 Alpha  occ. eigenvalues --   -0.35951  -0.35573  -0.35235  -0.33814  -0.33182
 Alpha  occ. eigenvalues --   -0.33028  -0.32283  -0.32255  -0.30516  -0.25775
 Alpha  occ. eigenvalues --   -0.23222
 Alpha virt. eigenvalues --   -0.07235   0.00847   0.02323   0.04522   0.06551
 Alpha virt. eigenvalues --    0.06674   0.07611   0.08043   0.08104   0.09356
 Alpha virt. eigenvalues --    0.10469   0.11278   0.12049   0.12091   0.12570

 Mulliken charges:
               1
     1  Mg   0.975981
     2  C   -0.083987
     3  C   -0.067779
     4  C   -0.015583
     5  C   -0.107084
     6  N   -0.366971
     7  C   -0.022632
     8  C   -0.071951
     9  C   -0.072486
    10  C    0.087868
    11  C    0.001663
    12  C    0.033845
    13  C   -0.034390
    14  C    0.206085
    15  O   -0.278532
    16  O   -0.322740
    17  N   -0.468725
    18  C    0.137123
    19  C   -0.172326
    20  C   -0.071517
    21  C    0.117971
    22  C    0.050852
    23  C    0.044971
    24  O   -0.250180
    25  C   -0.026622
    26  N   -0.326405
    27  C    0.035491
    28  C   -0.131826
    29  C   -0.034580
    30  C   -0.001643
    31  C    0.023961
    32  C   -0.060785
    33  C   -0.060283
    34  N   -0.439438
    35  C    0.192434
    36  C   -0.194671
    37  C   -0.004296
    38  C    0.214039
    39  C    0.088831
    40  C    0.072376
    41  O   -0.215962
    42  C   -0.061394
    43  C    0.287426
    44  O   -0.191617
    45  O   -0.392892
    46  C    0.134087
    47  C    0.237702
    48  C   -0.120310
    49  C   -0.200930
    50  C    0.047221
    51  C    0.007784
    52  C    0.002320
    53  C   -0.015547
    54  C   -0.198256
    55  C    0.013644
    56  C    0.003693
    57  C   -0.052369
    58  C    0.058990
    59  C   -0.221723
    60  C    0.015719
    61  C    0.009307
    62  C   -0.033270
    63  C   -0.022639
    64  C   -0.236858
    65  C    0.007101
    66  C    0.005498
    67  H   -0.008056
    68  H    0.012418
    69  H   -0.008478
    70  H    0.045169
    71  H    0.049853
    72  H    0.043385
    73  H    0.030955
    74  H    0.039720
    75  H    0.041151
    76  H    0.045075
    77  H    0.075129
    78  H    0.049746
    79  H    0.033899
    80  H    0.062908
    81  H    0.038752
    82  H    0.050287
    83  H    0.077600
    84  H    0.049339
    85  H    0.048839
    86  H    0.036136
    87  H    0.049338
    88  H    0.029913
    89  H    0.052454
    90  H    0.039810
    91  H    0.030524
    92  H    0.049062
    93  H    0.036758
    94  H    0.051310
    95  H    0.041378
    96  H    0.070577
    97  H    0.066228
    98  H    0.056318
    99  H    0.066684
   100  H    0.060130
   101  H    0.038125
   102  H    0.045715
   103  H    0.046671
   104  H    0.019159
   105  H    0.036103
   106  H    0.040564
   107  H    0.054159
   108  H    0.008973
   109  H    0.028259
   110  H    0.024813
   111  H    0.032554
   112  H    0.019631
   113  H    0.011477
   114  H    0.013710
   115  H    0.030727
   116  H    0.012318
   117  H    0.035779
   118  H   -0.000368
   119  H    0.011980
   120  H    0.034290
   121  H    0.029225
   122  H    0.026419
   123  H    0.028533
   124  H    0.025634
   125  H    0.024079
   126  H    0.011975
   127  H    0.042171
   128  H    0.017726
   129  H    0.009122
   130  H    0.017966
   131  H    0.017896
   132  H    0.020123
   133  H    0.011022
   134  H    0.029182
   135  H    0.025334
   136  H    0.025163
   137  H    0.035853
   138  H    0.025688
   139  H    0.019031
   140  H    0.036122
 Sum of Mulliken charges =  -0.00000

 Dipole moment (field-independent basis, Debye):
    X=             -3.7933    Y=              0.4912    Z=             -1.7908  Tot=              4.2235
 Quadrupole moment (field-independent basis, Debye-Ang):
   XX=           -374.8948   YY=           -409.2702   ZZ=           -406.5941
   XY=            -20.4666   XZ=             16.6524   YZ=             -3.8428

 Normal termination of Gaussian 16 at Wed Apr 27 21:29:44 2022.
