 Gaussian 16, Revision A.03,
 Gaussian 16:  ES64L-G16RevA.03 25-Dec-2016

 --------------------
 #p ZINDO=(nstates=5)
 --------------------

 ------------------------------
 step_1301_chromophore_25 ZINDO
 ------------------------------
 Symbolic Z-matrix:
 Charge =  0 Multiplicity = 1

                         Standard orientation:
 ---------------------------------------------------------------------
 Center     Atomic      Atomic             Coordinates (Angstroms)
 Number     Number       Type             X           Y           Z
 ---------------------------------------------------------------------
      1         12           0        5.765684    0.296233    0.383387
      2          6           0        3.318470   -1.955982    0.275140
      3          6           0        3.384329    2.889331   -0.316615
      4          6           0        8.352322    2.376628   -0.128459
      5          6           0        8.032857   -2.279121    0.826320
      6          7           0        3.624789    0.445967    0.109171
      7          6           0        2.849618   -0.668704    0.150455
      8          6           0        1.315980   -0.280432   -0.062798
      9          6           0        1.376985    1.294439   -0.300596
     10          6           0        2.856707    1.555340   -0.198233
     11          6           0        0.674501    1.635132   -1.647535
     12          6           0        0.531366   -0.731473    1.186685
     13          6           0       -0.757692   -1.578454    0.940673
     14          6           0       -2.056016   -1.119734    1.545291
     15          8           0       -2.140265   -0.433155    2.569580
     16          8           0       -3.032839   -1.616790    0.780056
     17          7           0        5.818681    2.417222   -0.051898
     18          6           0        4.753941    3.280630   -0.349116
     19          6           0        5.286328    4.500451   -0.837722
     20          6           0        6.748437    4.375153   -0.853742
     21          6           0        7.048774    3.079888   -0.324299
     22          6           0        4.459722    5.679806   -1.308255
     23          6           0        7.791539    5.407684   -1.295626
     24          8           0        8.991557    5.301356   -1.032758
     25          6           0        7.398249    6.593814   -2.104756
     26          7           0        7.905616    0.123256    0.326971
     27          6           0        8.715671    1.101721    0.038476
     28          6           0       10.251568    0.693415   -0.009475
     29          6           0       10.212885   -0.810106    0.560523
     30          6           0        8.618427   -1.030545    0.584491
     31          6           0       10.641721    0.713428   -1.516185
     32          6           0       10.966327   -0.887528    1.969485
     33          6           0       10.114682   -0.442529    3.238763
     34          7           0        5.737236   -1.697813    0.562000
     35          6           0        6.703582   -2.638260    0.741042
     36          6           0        6.104820   -3.948817    0.893259
     37          6           0        4.775260   -3.718501    0.600385
     38          6           0        4.614097   -2.341463    0.433043
     39          6           0        6.678902   -5.274220    1.087241
     40          6           0        3.506233   -4.375618    0.501249
     41          8           0        3.189739   -5.562475    0.612235
     42          6           0        2.487992   -3.216190    0.156147
     43          6           0        2.063533   -3.565218   -1.248856
     44          8           0        2.721363   -3.452062   -2.224782
     45          8           0        0.706530   -3.950580   -1.187601
     46          6           0        0.144172   -4.496589   -2.416129
     47          6           0       -4.353685   -1.319443    1.201152
     48          6           0       -5.332723   -1.393633    0.014238
     49          6           0       -6.475334   -0.681316   -0.179063
     50          6           0       -6.877024    0.532329    0.588014
     51          6           0       -7.496768   -1.189588   -1.194804
     52          6           0       -7.384141   -0.538126   -2.640434
     53          6           0       -8.644583    0.272864   -2.978141
     54          6           0       -9.909590   -0.687121   -3.328951
     55          6           0       -9.897042   -0.928154   -4.823973
     56          6           0      -11.227787   -0.147719   -2.785558
     57          6           0      -11.802959   -0.888490   -1.556478
     58          6           0      -13.245624   -0.295013   -1.140084
     59          6           0      -13.062688    0.188209    0.318325
     60          6           0      -14.378897    0.018387    1.185704
     61          6           0      -12.577878    1.680409    0.333438
     62          6           0      -11.275770    1.846765    1.118357
     63          6           0      -11.570631    1.709104    2.642629
     64          6           0      -10.962619    2.876713    3.469286
     65          6           0       -9.445989    2.572094    3.563833
     66          6           0      -11.623136    2.922516    4.880432
     67          1           0        2.723214    3.743013   -0.479084
     68          1           0        9.226548    2.986999   -0.366757
     69          1           0        8.826094   -2.977821    1.098686
     70          1           0        1.024189   -0.793742   -0.978658
     71          1           0        0.869875    1.857774    0.482210
     72          1           0        1.119251    1.195554   -2.540571
     73          1           0        0.672371    2.713203   -1.807163
     74          1           0       -0.371255    1.327289   -1.635969
     75          1           0        0.230083    0.178638    1.706806
     76          1           0        1.163608   -1.284755    1.881246
     77          1           0       -0.580729   -2.595148    1.291831
     78          1           0       -0.909817   -1.662522   -0.135916
     79          1           0        3.514140    5.846080   -0.793552
     80          1           0        4.206888    5.631486   -2.367504
     81          1           0        5.025161    6.559682   -1.002504
     82          1           0        8.346694    6.814864   -2.592984
     83          1           0        7.094781    7.473751   -1.536616
     84          1           0        6.699782    6.267805   -2.875045
     85          1           0       10.915712    1.342848    0.559744
     86          1           0       10.716068   -1.562285   -0.047636
     87          1           0        9.782164    0.877783   -2.165140
     88          1           0       11.020671   -0.263917   -1.811955
     89          1           0       11.348859    1.534916   -1.636920
     90          1           0       11.861756   -0.268752    1.909034
     91          1           0       11.271948   -1.917991    2.148055
     92          1           0       10.613767    0.396969    3.722315
     93          1           0       10.048448   -1.342113    3.851703
     94          1           0        9.087843   -0.191461    2.975931
     95          1           0        7.734022   -5.253241    1.358601
     96          1           0        6.488445   -5.805869    0.154763
     97          1           0        5.979233   -5.653177    1.832680
     98          1           0        1.692969   -3.121665    0.896722
     99          1           0       -0.490279   -5.352650   -2.183903
    100          1           0        0.865777   -4.708253   -3.204935
    101          1           0       -0.434826   -3.674037   -2.835248
    102          1           0       -4.441350   -0.372029    1.734003
    103          1           0       -4.550897   -2.133282    1.898581
    104          1           0       -5.214364   -2.287887   -0.597060
    105          1           0       -7.202890    1.289566   -0.125987
    106          1           0       -6.082159    0.951301    1.205125
    107          1           0       -7.778016    0.274134    1.144171
    108          1           0       -8.537897   -1.009181   -0.927138
    109          1           0       -7.421801   -2.276581   -1.182164
    110          1           0       -7.268036   -1.343708   -3.365738
    111          1           0       -6.467788    0.050809   -2.686406
    112          1           0       -8.535248    0.928355   -3.842257
    113          1           0       -8.927485    0.945393   -2.169018
    114          1           0       -9.738221   -1.659282   -2.866742
    115          1           0      -10.402137   -1.838690   -5.146204
    116          1           0       -8.846021   -1.129939   -5.033483
    117          1           0      -10.222661   -0.076278   -5.421328
    118          1           0      -11.898144   -0.356297   -3.619514
    119          1           0      -11.290590    0.936904   -2.701734
    120          1           0      -11.013267   -0.737617   -0.819348
    121          1           0      -11.945388   -1.926486   -1.855792
    122          1           0      -13.975372   -1.099821   -1.230207
    123          1           0      -13.469890    0.556658   -1.781355
    124          1           0      -12.288289   -0.345352    0.868746
    125          1           0      -15.214991    0.124824    0.494737
    126          1           0      -14.364632    0.918334    1.799888
    127          1           0      -14.453760   -0.843478    1.849484
    128          1           0      -13.349516    2.331353    0.745065
    129          1           0      -12.367060    2.090395   -0.654278
    130          1           0      -10.898803    2.852678    0.930364
    131          1           0      -10.491037    1.139405    0.847995
    132          1           0      -11.144323    0.735774    2.884915
    133          1           0      -12.626142    1.612265    2.898798
    134          1           0      -11.047323    3.891396    3.081286
    135          1           0       -9.214239    2.575209    4.628829
    136          1           0       -8.979203    3.436838    3.089984
    137          1           0       -9.105918    1.658608    3.074907
    138          1           0      -11.001759    2.438183    5.633756
    139          1           0      -12.541176    2.336827    4.932698
    140          1           0      -11.875310    3.966878    5.062811
 ---------------------------------------------------------------------

 SCF Done:  E(RZINDO/S) =  -474.333112966     A.U. after   20 cycles

 Excitation energies and oscillator strengths:

 Excited State   1:      Singlet-A      1.2934 eV  958.62 nm  f=0.6082  <S**2>=0.000
     175 ->178        -0.16996
     176 ->177         0.66503
 This state for optimization and/or second-order correction.
 Total Energy, E(CIS/TDA) =  -474.285582982
 Copying the excited state density for this state as the 1-particle RhoCI density.

 Excited State   2:      Singlet-A      1.9328 eV  641.46 nm  f=0.1062  <S**2>=0.000
     175 ->177         0.58072
     176 ->178         0.34985
     176 ->179        -0.13502

 Excited State   3:      Singlet-A      2.9323 eV  422.83 nm  f=0.0432  <S**2>=0.000
     167 ->179        -0.10753
     168 ->177         0.35181
     168 ->178        -0.23734
     168 ->179        -0.37849
     168 ->186        -0.17027
     176 ->178         0.16536

 Excited State   4:      Singlet-A      3.0165 eV  411.02 nm  f=0.5339  <S**2>=0.000
     168 ->177        -0.10707
     168 ->179         0.12047
     175 ->177        -0.25667
     176 ->178         0.51590
     176 ->179         0.24739

 Excited State   5:      Singlet-A      3.0353 eV  408.47 nm  f=0.0429  <S**2>=0.000
     170 ->177         0.21487
     170 ->179         0.17293
     170 ->180         0.12796
     170 ->181         0.39198
     170 ->182         0.19886
     170 ->186         0.15101
     170 ->187         0.11913
     170 ->188        -0.13541
     174 ->177        -0.22779
     176 ->178        -0.15853

 The electronic state is 1-A.
 Alpha  occ. eigenvalues --   -1.90273  -1.79618  -1.77272  -1.75942  -1.72645
 Alpha  occ. eigenvalues --   -1.68533  -1.66324  -1.61821  -1.59743  -1.57856
 Alpha  occ. eigenvalues --   -1.54733  -1.51796  -1.50728  -1.49166  -1.46576
 Alpha  occ. eigenvalues --   -1.44545  -1.43343  -1.41062  -1.38581  -1.37202
 Alpha  occ. eigenvalues --   -1.36921  -1.35236  -1.32052  -1.30250  -1.29261
 Alpha  occ. eigenvalues --   -1.27472  -1.23912  -1.22104  -1.20816  -1.18618
 Alpha  occ. eigenvalues --   -1.17512  -1.15835  -1.15198  -1.13680  -1.12703
 Alpha  occ. eigenvalues --   -1.11423  -1.10052  -1.09305  -1.04955  -1.03968
 Alpha  occ. eigenvalues --   -1.02435  -1.01228  -0.98285  -0.97813  -0.97283
 Alpha  occ. eigenvalues --   -0.95757  -0.94658  -0.94073  -0.93412  -0.92303
 Alpha  occ. eigenvalues --   -0.90634  -0.90072  -0.88598  -0.87532  -0.87288
 Alpha  occ. eigenvalues --   -0.85260  -0.84180  -0.83528  -0.80906  -0.80411
 Alpha  occ. eigenvalues --   -0.79965  -0.79454  -0.77983  -0.77200  -0.76468
 Alpha  occ. eigenvalues --   -0.76015  -0.74858  -0.74363  -0.73839  -0.73132
 Alpha  occ. eigenvalues --   -0.72485  -0.72316  -0.72039  -0.71471  -0.70737
 Alpha  occ. eigenvalues --   -0.70181  -0.69491  -0.68886  -0.68406  -0.68199
 Alpha  occ. eigenvalues --   -0.67033  -0.66920  -0.66288  -0.66119  -0.65893
 Alpha  occ. eigenvalues --   -0.65713  -0.64845  -0.64436  -0.63995  -0.63900
 Alpha  occ. eigenvalues --   -0.63358  -0.63189  -0.62707  -0.62373  -0.61850
 Alpha  occ. eigenvalues --   -0.61772  -0.61520  -0.61218  -0.60620  -0.60321
 Alpha  occ. eigenvalues --   -0.60018  -0.59379  -0.58766  -0.58247  -0.58166
 Alpha  occ. eigenvalues --   -0.57954  -0.57397  -0.57393  -0.56897  -0.56708
 Alpha  occ. eigenvalues --   -0.56502  -0.56106  -0.55551  -0.54773  -0.54705
 Alpha  occ. eigenvalues --   -0.54572  -0.53439  -0.53379  -0.53285  -0.52877
 Alpha  occ. eigenvalues --   -0.52759  -0.52116  -0.51869  -0.51478  -0.51288
 Alpha  occ. eigenvalues --   -0.51130  -0.50933  -0.50789  -0.50583  -0.50232
 Alpha  occ. eigenvalues --   -0.49887  -0.49738  -0.49575  -0.49121  -0.49108
 Alpha  occ. eigenvalues --   -0.48724  -0.48208  -0.48162  -0.47981  -0.47498
 Alpha  occ. eigenvalues --   -0.47485  -0.47401  -0.47098  -0.46930  -0.46793
 Alpha  occ. eigenvalues --   -0.46655  -0.46501  -0.46021  -0.45803  -0.45659
 Alpha  occ. eigenvalues --   -0.45577  -0.45136  -0.44921  -0.44411  -0.44000
 Alpha  occ. eigenvalues --   -0.43493  -0.43305  -0.42805  -0.42459  -0.42307
 Alpha  occ. eigenvalues --   -0.41946  -0.41811  -0.41239  -0.39804  -0.39124
 Alpha  occ. eigenvalues --   -0.39047  -0.37039  -0.35871  -0.34549  -0.34149
 Alpha  occ. eigenvalues --   -0.33977  -0.32513  -0.32435  -0.31161  -0.26437
 Alpha  occ. eigenvalues --   -0.22046
 Alpha virt. eigenvalues --   -0.08689  -0.01763  -0.00708   0.01702   0.01792
 Alpha virt. eigenvalues --    0.02663   0.02853   0.03203   0.04058   0.05250
 Alpha virt. eigenvalues --    0.06608   0.07135   0.07668   0.07788   0.08097

 Mulliken charges:
               1
     1  Mg   0.425687
     2  C   -0.053223
     3  C   -0.067039
     4  C   -0.061146
     5  C   -0.062494
     6  N   -0.272605
     7  C    0.138349
     8  C   -0.006208
     9  C    0.010177
    10  C    0.101906
    11  C   -0.048395
    12  C   -0.025614
    13  C   -0.002004
    14  C    0.476446
    15  O   -0.533093
    16  O   -0.249551
    17  N   -0.354926
    18  C    0.086405
    19  C   -0.011560
    20  C   -0.056749
    21  C    0.118476
    22  C   -0.046426
    23  C    0.328880
    24  O   -0.536394
    25  C   -0.034134
    26  N   -0.257748
    27  C    0.141655
    28  C   -0.007905
    29  C   -0.008161
    30  C    0.131044
    31  C   -0.052471
    32  C   -0.037948
    33  C   -0.061359
    34  N   -0.314032
    35  C    0.122760
    36  C    0.059864
    37  C   -0.055913
    38  C    0.148953
    39  C   -0.036545
    40  C    0.330778
    41  O   -0.524249
    42  C    0.045009
    43  C    0.497101
    44  O   -0.492937
    45  O   -0.287772
    46  C    0.073091
    47  C    0.105422
    48  C   -0.108343
    49  C    0.009326
    50  C   -0.039407
    51  C   -0.028113
    52  C   -0.025680
    53  C   -0.036417
    54  C   -0.012631
    55  C   -0.053068
    56  C   -0.040116
    57  C   -0.046634
    58  C   -0.036212
    59  C   -0.015435
    60  C   -0.071935
    61  C   -0.033229
    62  C   -0.037723
    63  C   -0.034669
    64  C   -0.017916
    65  C   -0.063280
    66  C   -0.065361
    67  H    0.029816
    68  H    0.032375
    69  H    0.022507
    70  H    0.038654
    71  H    0.039776
    72  H    0.026179
    73  H    0.014868
    74  H    0.016124
    75  H    0.031894
    76  H    0.026672
    77  H    0.047707
    78  H    0.033786
    79  H    0.018813
    80  H    0.034287
    81  H    0.021370
    82  H    0.033037
    83  H    0.050427
    84  H    0.029330
    85  H    0.043790
    86  H    0.035292
    87  H    0.026785
    88  H    0.018209
    89  H    0.027067
    90  H    0.024085
    91  H    0.015756
    92  H    0.028167
    93  H    0.018839
    94  H    0.028360
    95  H    0.030598
    96  H    0.046549
    97  H    0.046963
    98  H    0.056351
    99  H    0.043116
   100  H    0.051907
   101  H    0.027597
   102  H    0.054303
   103  H    0.042332
   104  H    0.025495
   105  H    0.023646
   106  H    0.029361
   107  H    0.032158
   108  H    0.022407
   109  H    0.020104
   110  H    0.020957
   111  H    0.020783
   112  H    0.015706
   113  H    0.015919
   114  H    0.018997
   115  H    0.015759
   116  H    0.007790
   117  H    0.024069
   118  H    0.002534
   119  H    0.024258
   120  H    0.028944
   121  H    0.023118
   122  H    0.023817
   123  H    0.031111
   124  H    0.024036
   125  H    0.019883
   126  H    0.015231
   127  H    0.028799
   128  H    0.021229
   129  H    0.009336
   130  H    0.011230
   131  H    0.022023
   132  H    0.016793
   133  H    0.018120
   134  H    0.030501
   135  H    0.020983
   136  H    0.012182
   137  H    0.025938
   138  H    0.023324
   139  H    0.012825
   140  H    0.020383
 Sum of Mulliken charges =  -0.00000

 Dipole moment (field-independent basis, Debye):
    X=             -4.5343    Y=             -1.1389    Z=             -1.8565  Tot=              5.0302
 N-N= 4.315610458714D+03 E-N= 0.000000000000D+00  KE=-9.305458304768D+03
 Leave Link  601 at Wed Apr 27 21:43:44 2022, MaxMem=  6710886400 cpu:               0.9 elap:               0.1
 (Enter /sw/apps/gaussian-16.0/g16/l9999.exe)
 1\1\GINC-BP1-COMPUTE070\SP\RZINDO CIS\STO-3G\C55H74Mg1N4O6\OF15641\27-
 Apr-2022\0\\#p ZINDO=(nstates=5)\\step_1301_chromophore_25 ZINDO\\0,1\
 Mg,0,-2.154,34.851,26.951\C,0,-3.131,33.364,29.763\C,0,-0.32,37.257,28
 .883\C,0,-1.761,36.642,24.137\C,0,-4.128,32.639,25.168\N,0,-1.716,35.1
 99,29.041\C,0,-2.241,34.387,29.995\C,0,-1.751,34.85,31.442\C,0,-0.879,
 36.146,31.125\C,0,-0.999,36.228,29.626\C,0,-1.421,37.343,31.96\C,0,-0.
 983,33.676,32.084\C,0,-1.403,33.268,33.532\C,0,-0.351,33.208,34.605\O,

 Normal termination of Gaussian 16 at Wed Apr 27 21:43:44 2022.
