 Gaussian 16, Revision A.03,
 Gaussian 16:  ES64L-G16RevA.03 25-Dec-2016

 ------------------------------
 #p blyp/Def2SVP td=(nstates=5)
 ------------------------------

 ---------------------------------------------------
 step_1401_chromophore_13 TDDFT with blyp functional
 ---------------------------------------------------
 Symbolic Z-matrix:
 Charge =  0 Multiplicity = 1

                         Standard orientation:
 ---------------------------------------------------------------------
 Center     Atomic      Atomic             Coordinates (Angstroms)
 Number     Number       Type             X           Y           Z
 ---------------------------------------------------------------------
      1         12           0        5.723764    0.541814    0.143210
      2          6           0        3.679512   -2.267958    0.107263
      3          6           0        3.091254    2.462325   -0.633197
      4          6           0        7.925371    2.986739   -0.032815
      5          6           0        8.599739   -1.826481    0.483055
      6          7           0        3.723028    0.170839   -0.200815
      7          6           0        3.047886   -1.052225   -0.140084
      8          6           0        1.568359   -0.956743   -0.213976
      9          6           0        1.412183    0.569798   -0.527430
     10          6           0        2.861504    1.123754   -0.447949
     11          6           0        0.645111    0.901130   -1.820846
     12          6           0        0.686457   -1.493664    0.901866
     13          6           0       -0.529245   -2.358230    0.564150
     14          6           0       -1.880528   -1.981657    1.294329
     15          8           0       -2.032100   -1.871556    2.507673
     16          8           0       -2.973392   -2.042641    0.458689
     17          7           0        5.485638    2.463175   -0.309106
     18          6           0        4.321575    3.142389   -0.455279
     19          6           0        4.619493    4.537722   -0.664383
     20          6           0        6.059448    4.674713   -0.467205
     21          6           0        6.562508    3.330387   -0.208431
     22          6           0        3.521782    5.542807   -0.938903
     23          6           0        6.892439    5.940874   -0.565383
     24          8           0        8.127447    5.905844   -0.318336
     25          6           0        6.272799    7.325481   -0.936907
     26          7           0        8.035291    0.599623    0.121632
     27          6           0        8.657150    1.778307    0.078117
     28          6           0       10.213600    1.522255    0.052722
     29          6           0       10.259602    0.083405    0.679271
     30          6           0        8.911287   -0.459505    0.380699
     31          6           0       10.672247    1.452376   -1.485330
     32          6           0       10.545446    0.100344    2.265488
     33          6           0        9.519505   -0.466219    3.275423
     34          7           0        6.150876   -1.593302    0.273119
     35          6           0        7.283966   -2.380535    0.533366
     36          6           0        6.858503   -3.765158    0.509623
     37          6           0        5.495823   -3.829149    0.322271
     38          6           0        5.069600   -2.439163    0.212628
     39          6           0        7.783368   -4.908461    0.625934
     40          6           0        4.309636   -4.663321    0.235281
     41          8           0        4.286118   -5.866884    0.342763
     42          6           0        3.081730   -3.661195    0.043795
     43          6           0        2.519542   -3.990387   -1.342727
     44          8           0        2.951557   -3.503764   -2.356716
     45          8           0        1.419968   -4.762154   -1.190085
     46          6           0        0.680894   -5.006767   -2.439665
     47          6           0       -4.354338   -1.992639    0.967410
     48          6           0       -5.172824   -1.282774   -0.092120
     49          6           0       -6.464706   -1.268711   -0.302458
     50          6           0       -7.476781   -2.074095    0.523003
     51          6           0       -7.097996   -0.321692   -1.335873
     52          6           0       -7.346114    1.125095   -0.886806
     53          6           0       -8.843995    1.357371   -0.609523
     54          6           0       -9.126364    2.809611    0.017520
     55          6           0       -8.090609    3.932149   -0.257648
     56          6           0       -9.509258    2.714868    1.525626
     57          6           0      -10.990060    2.760107    1.869968
     58          6           0      -11.509250    1.343458    2.101550
     59          6           0      -13.035048    1.325373    1.877944
     60          6           0      -13.775878    1.574330    3.206934
     61          6           0      -13.511959   -0.032001    1.343109
     62          6           0      -13.978777    0.054237   -0.166194
     63          6           0      -12.804610    0.200851   -1.129380
     64          6           0      -12.515672   -1.055421   -1.905470
     65          6           0      -11.048857   -1.619081   -1.718244
     66          6           0      -12.948767   -0.891781   -3.367266
     67          1           0        2.183545    3.049656   -0.789268
     68          1           0        8.673411    3.783266   -0.052203
     69          1           0        9.519282   -2.390278    0.653825
     70          1           0        1.137353   -1.510143   -1.048129
     71          1           0        0.832210    1.078628    0.243299
     72          1           0        1.179103    1.773757   -2.195825
     73          1           0       -0.403387    1.105204   -1.602118
     74          1           0        0.656543    0.069367   -2.525599
     75          1           0        0.260232   -0.685407    1.496284
     76          1           0        1.336070   -2.062464    1.566783
     77          1           0       -0.210968   -3.303925    1.001320
     78          1           0       -0.712148   -2.452497   -0.506543
     79          1           0        3.445077    6.195569   -0.068950
     80          1           0        2.560602    5.118074   -1.227062
     81          1           0        3.900399    6.069913   -1.814568
     82          1           0        7.058272    8.079595   -0.990028
     83          1           0        5.486692    7.586745   -0.228227
     84          1           0        5.757780    7.279425   -1.896573
     85          1           0       10.659702    2.287263    0.689117
     86          1           0       10.872441   -0.654871    0.163392
     87          1           0       11.596288    0.882995   -1.574093
     88          1           0       10.916666    2.482130   -1.749137
     89          1           0        9.903447    1.114187   -2.179482
     90          1           0       10.938868    1.068035    2.578003
     91          1           0       11.427205   -0.532969    2.362118
     92          1           0        9.536136    0.047096    4.236896
     93          1           0        9.694996   -1.506228    3.550030
     94          1           0        8.481814   -0.387061    2.948795
     95          1           0        7.509871   -5.568259    1.449743
     96          1           0        8.798082   -4.606252    0.884227
     97          1           0        7.832303   -5.495051   -0.291009
     98          1           0        2.337983   -3.881905    0.809472
     99          1           0       -0.016583   -4.182924   -2.590450
    100          1           0        0.060078   -5.889264   -2.283626
    101          1           0        1.368628   -5.082444   -3.281382
    102          1           0       -4.507316   -1.362188    1.843742
    103          1           0       -4.788624   -2.975553    1.148332
    104          1           0       -4.535789   -0.695177   -0.753344
    105          1           0       -8.277892   -1.461191    0.935864
    106          1           0       -6.941964   -2.684032    1.250696
    107          1           0       -8.006743   -2.757512   -0.140655
    108          1           0       -8.042592   -0.812675   -1.567775
    109          1           0       -6.488668   -0.299555   -2.239032
    110          1           0       -7.195858    1.795997   -1.732914
    111          1           0       -6.637020    1.310982   -0.080398
    112          1           0       -9.126142    0.642296    0.163348
    113          1           0       -9.359242    1.139361   -1.545338
    114          1           0       -9.942308    3.083828   -0.650361
    115          1           0       -8.149234    4.760879    0.447848
    116          1           0       -8.136662    4.429576   -1.225946
    117          1           0       -7.068423    3.552344   -0.261856
    118          1           0       -9.029696    3.544913    2.044006
    119          1           0       -9.124150    1.792834    1.961111
    120          1           0      -11.564822    3.121047    1.016537
    121          1           0      -11.119480    3.296500    2.810308
    122          1           0      -11.128298    1.160681    3.106813
    123          1           0      -11.011295    0.534942    1.565653
    124          1           0      -13.451490    2.053264    1.181684
    125          1           0      -14.846531    1.521534    3.012604
    126          1           0      -13.503931    2.560066    3.583941
    127          1           0      -13.472462    0.838547    3.951661
    128          1           0      -14.355598   -0.560834    1.787179
    129          1           0      -12.713882   -0.770958    1.415971
    130          1           0      -14.718991    0.842908   -0.302926
    131          1           0      -14.393829   -0.947740   -0.270943
    132          1           0      -11.984539    0.511438   -0.482456
    133          1           0      -12.920853    1.079181   -1.763960
    134          1           0      -13.088332   -1.900842   -1.524275
    135          1           0      -11.106266   -2.694459   -1.887773
    136          1           0      -10.683342   -1.423157   -0.710188
    137          1           0      -10.384060   -1.152954   -2.445717
    138          1           0      -12.959201    0.137944   -3.723405
    139          1           0      -13.944200   -1.308534   -3.519730
    140          1           0      -12.260161   -1.400966   -4.042703
 ---------------------------------------------------------------------

 SCF Done:  E(RB-LYP) =  -3007.38455694     A.U. after   22 cycles

 Excitation energies and oscillator strengths:

 Excited State   1:      Singlet-A      1.8023 eV  687.91 nm  f=0.3004  <S**2>=0.000
     245 -> 248       -0.18900
     246 -> 247        0.68772
     246 <- 247       -0.14808
 This state for optimization and/or second-order correction.
 Total Energy, E(TD-HF/TD-DFT) =  -3007.31832275
 Copying the excited state density for this state as the 1-particle RhoCI density.

 Excited State   2:      Singlet-A      1.8843 eV  658.00 nm  f=0.0003  <S**2>=0.000
     244 -> 247        0.70574

 Excited State   3:      Singlet-A      2.0097 eV  616.93 nm  f=0.0270  <S**2>=0.000
     243 -> 247        0.57178
     245 -> 247       -0.38115
     246 -> 248       -0.14059

 Excited State   4:      Singlet-A      2.0525 eV  604.07 nm  f=0.0511  <S**2>=0.000
     243 -> 247        0.41200
     245 -> 247        0.51717
     246 -> 248        0.22049

 Excited State   5:      Singlet-A      2.4414 eV  507.85 nm  f=0.0001  <S**2>=0.000
     241 -> 247        0.70707

 The electronic state is 1-A.
 Alpha  occ. eigenvalues --  -46.26733 -18.83070 -18.82397 -18.77243 -18.76975
 Alpha  occ. eigenvalues --  -18.75966 -18.75363 -14.03453 -14.02184 -14.00979
 Alpha  occ. eigenvalues --  -14.00769 -10.04834 -10.04252 -10.00257  -9.99842
 Alpha  occ. eigenvalues --   -9.98643  -9.98244  -9.96570  -9.96271  -9.96085
 Alpha  occ. eigenvalues --   -9.96054  -9.95661  -9.95623  -9.95475  -9.94568
 Alpha  occ. eigenvalues --   -9.94479  -9.94380  -9.94254  -9.94109  -9.93651
 Alpha  occ. eigenvalues --   -9.93574  -9.93572  -9.93441  -9.93274  -9.93192
 Alpha  occ. eigenvalues --   -9.93172  -9.93163  -9.93106  -9.92922  -9.92572
 Alpha  occ. eigenvalues --   -9.92457  -9.92451  -9.92415  -9.92406  -9.92402
 Alpha  occ. eigenvalues --   -9.92330  -9.92147  -9.91981  -9.91796  -9.91750
 Alpha  occ. eigenvalues --   -9.91634  -9.91612  -9.91518  -9.91495  -9.91308
 Alpha  occ. eigenvalues --   -9.91306  -9.91149  -9.91056  -9.91048  -9.90966
 Alpha  occ. eigenvalues --   -9.90921  -9.90898  -9.90749  -9.90699  -9.90563
 Alpha  occ. eigenvalues --   -9.90417  -2.91436  -1.71855  -1.71330  -1.71144
 Alpha  occ. eigenvalues --   -0.98994  -0.97584  -0.92163  -0.91283  -0.89513
 Alpha  occ. eigenvalues --   -0.89507  -0.87226  -0.85465  -0.85011  -0.84129
 Alpha  occ. eigenvalues --   -0.75390  -0.73917  -0.73644  -0.73411  -0.72216
 Alpha  occ. eigenvalues --   -0.71955  -0.71167  -0.71066  -0.70146  -0.69715
 Alpha  occ. eigenvalues --   -0.69690  -0.69412  -0.68604  -0.67480  -0.66905
 Alpha  occ. eigenvalues --   -0.66594  -0.65792  -0.65307  -0.65115  -0.64419
 Alpha  occ. eigenvalues --   -0.64278  -0.62491  -0.62445  -0.61768  -0.60778
 Alpha  occ. eigenvalues --   -0.60592  -0.60411  -0.59624  -0.59438  -0.59088
 Alpha  occ. eigenvalues --   -0.58550  -0.57619  -0.56458  -0.55987  -0.54670
 Alpha  occ. eigenvalues --   -0.54200  -0.53747  -0.52882  -0.52569  -0.51669
 Alpha  occ. eigenvalues --   -0.51007  -0.50953  -0.50924  -0.50454  -0.50334
 Alpha  occ. eigenvalues --   -0.50139  -0.49264  -0.48649  -0.48258  -0.46485
 Alpha  occ. eigenvalues --   -0.46345  -0.46214  -0.46045  -0.44779  -0.44496
 Alpha  occ. eigenvalues --   -0.44048  -0.43327  -0.43094  -0.42761  -0.42629
 Alpha  occ. eigenvalues --   -0.41845  -0.41674  -0.41495  -0.41445  -0.41343
 Alpha  occ. eigenvalues --   -0.41219  -0.40868  -0.40815  -0.40371  -0.40134
 Alpha  occ. eigenvalues --   -0.39845  -0.39682  -0.39489  -0.39346  -0.39114
 Alpha  occ. eigenvalues --   -0.38896  -0.38769  -0.38571  -0.38547  -0.38317
 Alpha  occ. eigenvalues --   -0.38259  -0.37743  -0.37578  -0.37150  -0.37069
 Alpha  occ. eigenvalues --   -0.36954  -0.36835  -0.36668  -0.36466  -0.36409
 Alpha  occ. eigenvalues --   -0.36195  -0.36091  -0.35879  -0.35817  -0.35754
 Alpha  occ. eigenvalues --   -0.35692  -0.35447  -0.35342  -0.35175  -0.35037
 Alpha  occ. eigenvalues --   -0.34510  -0.34503  -0.34340  -0.34204  -0.34093
 Alpha  occ. eigenvalues --   -0.33939  -0.33809  -0.33771  -0.33468  -0.33163
 Alpha  occ. eigenvalues --   -0.33159  -0.32887  -0.32578  -0.32410  -0.32379
 Alpha  occ. eigenvalues --   -0.32225  -0.32189  -0.31952  -0.31726  -0.31620
 Alpha  occ. eigenvalues --   -0.31092  -0.30972  -0.30822  -0.30702  -0.30435
 Alpha  occ. eigenvalues --   -0.30378  -0.30313  -0.30258  -0.30176  -0.29947
 Alpha  occ. eigenvalues --   -0.29798  -0.29642  -0.29380  -0.29263  -0.28862
 Alpha  occ. eigenvalues --   -0.28713  -0.28707  -0.28617  -0.28434  -0.27775
 Alpha  occ. eigenvalues --   -0.27669  -0.27529  -0.27264  -0.27061  -0.26280
 Alpha  occ. eigenvalues --   -0.26149  -0.26017  -0.25759  -0.25601  -0.25294
 Alpha  occ. eigenvalues --   -0.25278  -0.24887  -0.23985  -0.23734  -0.23461
 Alpha  occ. eigenvalues --   -0.22754  -0.22639  -0.22070  -0.21808  -0.20604
 Alpha  occ. eigenvalues --   -0.20509  -0.20215  -0.18878  -0.18370  -0.17318
 Alpha  occ. eigenvalues --   -0.15813
 Alpha virt. eigenvalues --   -0.11537  -0.07001  -0.06242  -0.04646  -0.03713
 Alpha virt. eigenvalues --   -0.02437  -0.02017  -0.00976  -0.00926   0.00363
 Alpha virt. eigenvalues --    0.01205   0.01263   0.01467   0.02499   0.02715

 Mulliken charges:
               1
     1  Mg   0.685078
     2  C    0.003737
     3  C   -0.100302
     4  C   -0.015005
     5  C   -0.013531
     6  N   -0.233300
     7  C   -0.023530
     8  C    0.053198
     9  C   -0.031751
    10  C    0.067422
    11  C    0.127735
    12  C    0.106244
    13  C    0.112110
    14  C    0.071558
    15  O   -0.193624
    16  O   -0.276228
    17  N   -0.343696
    18  C    0.158026
    19  C   -0.167670
    20  C    0.045236
    21  C    0.163641
    22  C    0.175025
    23  C   -0.064621
    24  O   -0.197582
    25  C    0.120489
    26  N   -0.175498
    27  C   -0.073347
    28  C    0.033200
    29  C    0.056227
    30  C   -0.083251
    31  C    0.124356
    32  C    0.094935
    33  C    0.074487
    34  N   -0.257044
    35  C    0.127555
    36  C   -0.192356
    37  C    0.132793
    38  C    0.058739
    39  C    0.172009
    40  C   -0.068063
    41  O   -0.110006
    42  C    0.027074
    43  C    0.116211
    44  O   -0.165556
    45  O   -0.258539
    46  C    0.208929
    47  C    0.332427
    48  C   -0.136460
    49  C   -0.141490
    50  C    0.134651
    51  C    0.151413
    52  C    0.070981
    53  C    0.029808
    54  C   -0.016754
    55  C    0.084652
    56  C    0.130906
    57  C    0.084463
    58  C    0.066797
    59  C   -0.016990
    60  C    0.104170
    61  C    0.069518
    62  C    0.039951
    63  C    0.138298
    64  C   -0.082777
    65  C    0.061669
    66  C    0.109602
    67  H   -0.059372
    68  H   -0.040866
    69  H   -0.058483
    70  H   -0.027296
    71  H   -0.022297
    72  H   -0.012149
    73  H   -0.009866
    74  H   -0.005296
    75  H   -0.017089
    76  H   -0.022149
    77  H    0.020289
    78  H   -0.004620
    79  H    0.019826
    80  H   -0.007595
    81  H   -0.002379
    82  H    0.001289
    83  H    0.003217
    84  H    0.002390
    85  H   -0.024392
    86  H   -0.035667
    87  H   -0.002183
    88  H   -0.004035
    89  H    0.015702
    90  H   -0.020227
    91  H   -0.029033
    92  H   -0.017177
    93  H   -0.013156
    94  H    0.009997
    95  H    0.001213
    96  H   -0.034177
    97  H    0.010516
    98  H   -0.005224
    99  H    0.009610
   100  H    0.019906
   101  H    0.032980
   102  H    0.015827
   103  H    0.011396
   104  H   -0.043180
   105  H    0.003722
   106  H   -0.022546
   107  H   -0.001801
   108  H   -0.045961
   109  H   -0.034583
   110  H   -0.027221
   111  H   -0.013995
   112  H   -0.025215
   113  H   -0.014871
   114  H   -0.039951
   115  H   -0.017685
   116  H   -0.027133
   117  H   -0.016612
   118  H   -0.050441
   119  H   -0.038350
   120  H   -0.027681
   121  H   -0.021635
   122  H   -0.041877
   123  H   -0.028671
   124  H   -0.032011
   125  H   -0.014365
   126  H   -0.028551
   127  H   -0.017762
   128  H   -0.041779
   129  H   -0.048701
   130  H   -0.025731
   131  H   -0.035581
   132  H   -0.047008
   133  H   -0.045691
   134  H   -0.035164
   135  H   -0.015005
   136  H   -0.008473
   137  H    0.006974
   138  H   -0.019151
   139  H   -0.012717
   140  H   -0.029378
 Sum of Mulliken charges =  -0.00000

 Dipole moment (field-independent basis, Debye):
    X=             -3.7310    Y=              2.0357    Z=             -0.9745  Tot=              4.3605
 Quadrupole moment (field-independent basis, Debye-Ang):
   XX=           -381.2327   YY=           -422.9432   ZZ=           -411.0826
   XY=             -3.3888   XZ=             15.3706   YZ=              1.7150

 Normal termination of Gaussian 16 at Wed May  4 05:56:53 2022.
