 Gaussian 16, Revision A.03,
 Gaussian 16:  ES64L-G16RevA.03 25-Dec-2016

 -----------------------------------
 #p cam-b3lyp/Def2SVP td=(nstates=5)
 -----------------------------------

 --------------------------------------------------------
 step_1401_chromophore_13 TDDFT with cam-b3lyp functional
 --------------------------------------------------------
 Symbolic Z-matrix:
 Charge =  0 Multiplicity = 1

                         Standard orientation:
 ---------------------------------------------------------------------
 Center     Atomic      Atomic             Coordinates (Angstroms)
 Number     Number       Type             X           Y           Z
 ---------------------------------------------------------------------
      1         12           0        5.723764    0.541814    0.143210
      2          6           0        3.679512   -2.267958    0.107263
      3          6           0        3.091254    2.462325   -0.633197
      4          6           0        7.925371    2.986739   -0.032815
      5          6           0        8.599739   -1.826481    0.483055
      6          7           0        3.723028    0.170839   -0.200815
      7          6           0        3.047886   -1.052225   -0.140084
      8          6           0        1.568359   -0.956743   -0.213976
      9          6           0        1.412183    0.569798   -0.527430
     10          6           0        2.861504    1.123754   -0.447949
     11          6           0        0.645111    0.901130   -1.820846
     12          6           0        0.686457   -1.493664    0.901866
     13          6           0       -0.529245   -2.358230    0.564150
     14          6           0       -1.880528   -1.981657    1.294329
     15          8           0       -2.032100   -1.871556    2.507673
     16          8           0       -2.973392   -2.042641    0.458689
     17          7           0        5.485638    2.463175   -0.309106
     18          6           0        4.321575    3.142389   -0.455279
     19          6           0        4.619493    4.537722   -0.664383
     20          6           0        6.059448    4.674713   -0.467205
     21          6           0        6.562508    3.330387   -0.208431
     22          6           0        3.521782    5.542807   -0.938903
     23          6           0        6.892439    5.940874   -0.565383
     24          8           0        8.127447    5.905844   -0.318336
     25          6           0        6.272799    7.325481   -0.936907
     26          7           0        8.035291    0.599623    0.121632
     27          6           0        8.657150    1.778307    0.078117
     28          6           0       10.213600    1.522255    0.052722
     29          6           0       10.259602    0.083405    0.679271
     30          6           0        8.911287   -0.459505    0.380699
     31          6           0       10.672247    1.452376   -1.485330
     32          6           0       10.545446    0.100344    2.265488
     33          6           0        9.519505   -0.466219    3.275423
     34          7           0        6.150876   -1.593302    0.273119
     35          6           0        7.283966   -2.380535    0.533366
     36          6           0        6.858503   -3.765158    0.509623
     37          6           0        5.495823   -3.829149    0.322271
     38          6           0        5.069600   -2.439163    0.212628
     39          6           0        7.783368   -4.908461    0.625934
     40          6           0        4.309636   -4.663321    0.235281
     41          8           0        4.286118   -5.866884    0.342763
     42          6           0        3.081730   -3.661195    0.043795
     43          6           0        2.519542   -3.990387   -1.342727
     44          8           0        2.951557   -3.503764   -2.356716
     45          8           0        1.419968   -4.762154   -1.190085
     46          6           0        0.680894   -5.006767   -2.439665
     47          6           0       -4.354338   -1.992639    0.967410
     48          6           0       -5.172824   -1.282774   -0.092120
     49          6           0       -6.464706   -1.268711   -0.302458
     50          6           0       -7.476781   -2.074095    0.523003
     51          6           0       -7.097996   -0.321692   -1.335873
     52          6           0       -7.346114    1.125095   -0.886806
     53          6           0       -8.843995    1.357371   -0.609523
     54          6           0       -9.126364    2.809611    0.017520
     55          6           0       -8.090609    3.932149   -0.257648
     56          6           0       -9.509258    2.714868    1.525626
     57          6           0      -10.990060    2.760107    1.869968
     58          6           0      -11.509250    1.343458    2.101550
     59          6           0      -13.035048    1.325373    1.877944
     60          6           0      -13.775878    1.574330    3.206934
     61          6           0      -13.511959   -0.032001    1.343109
     62          6           0      -13.978777    0.054237   -0.166194
     63          6           0      -12.804610    0.200851   -1.129380
     64          6           0      -12.515672   -1.055421   -1.905470
     65          6           0      -11.048857   -1.619081   -1.718244
     66          6           0      -12.948767   -0.891781   -3.367266
     67          1           0        2.183545    3.049656   -0.789268
     68          1           0        8.673411    3.783266   -0.052203
     69          1           0        9.519282   -2.390278    0.653825
     70          1           0        1.137353   -1.510143   -1.048129
     71          1           0        0.832210    1.078628    0.243299
     72          1           0        1.179103    1.773757   -2.195825
     73          1           0       -0.403387    1.105204   -1.602118
     74          1           0        0.656543    0.069367   -2.525599
     75          1           0        0.260232   -0.685407    1.496284
     76          1           0        1.336070   -2.062464    1.566783
     77          1           0       -0.210968   -3.303925    1.001320
     78          1           0       -0.712148   -2.452497   -0.506543
     79          1           0        3.445077    6.195569   -0.068950
     80          1           0        2.560602    5.118074   -1.227062
     81          1           0        3.900399    6.069913   -1.814568
     82          1           0        7.058272    8.079595   -0.990028
     83          1           0        5.486692    7.586745   -0.228227
     84          1           0        5.757780    7.279425   -1.896573
     85          1           0       10.659702    2.287263    0.689117
     86          1           0       10.872441   -0.654871    0.163392
     87          1           0       11.596288    0.882995   -1.574093
     88          1           0       10.916666    2.482130   -1.749137
     89          1           0        9.903447    1.114187   -2.179482
     90          1           0       10.938868    1.068035    2.578003
     91          1           0       11.427205   -0.532969    2.362118
     92          1           0        9.536136    0.047096    4.236896
     93          1           0        9.694996   -1.506228    3.550030
     94          1           0        8.481814   -0.387061    2.948795
     95          1           0        7.509871   -5.568259    1.449743
     96          1           0        8.798082   -4.606252    0.884227
     97          1           0        7.832303   -5.495051   -0.291009
     98          1           0        2.337983   -3.881905    0.809472
     99          1           0       -0.016583   -4.182924   -2.590450
    100          1           0        0.060078   -5.889264   -2.283626
    101          1           0        1.368628   -5.082444   -3.281382
    102          1           0       -4.507316   -1.362188    1.843742
    103          1           0       -4.788624   -2.975553    1.148332
    104          1           0       -4.535789   -0.695177   -0.753344
    105          1           0       -8.277892   -1.461191    0.935864
    106          1           0       -6.941964   -2.684032    1.250696
    107          1           0       -8.006743   -2.757512   -0.140655
    108          1           0       -8.042592   -0.812675   -1.567775
    109          1           0       -6.488668   -0.299555   -2.239032
    110          1           0       -7.195858    1.795997   -1.732914
    111          1           0       -6.637020    1.310982   -0.080398
    112          1           0       -9.126142    0.642296    0.163348
    113          1           0       -9.359242    1.139361   -1.545338
    114          1           0       -9.942308    3.083828   -0.650361
    115          1           0       -8.149234    4.760879    0.447848
    116          1           0       -8.136662    4.429576   -1.225946
    117          1           0       -7.068423    3.552344   -0.261856
    118          1           0       -9.029696    3.544913    2.044006
    119          1           0       -9.124150    1.792834    1.961111
    120          1           0      -11.564822    3.121047    1.016537
    121          1           0      -11.119480    3.296500    2.810308
    122          1           0      -11.128298    1.160681    3.106813
    123          1           0      -11.011295    0.534942    1.565653
    124          1           0      -13.451490    2.053264    1.181684
    125          1           0      -14.846531    1.521534    3.012604
    126          1           0      -13.503931    2.560066    3.583941
    127          1           0      -13.472462    0.838547    3.951661
    128          1           0      -14.355598   -0.560834    1.787179
    129          1           0      -12.713882   -0.770958    1.415971
    130          1           0      -14.718991    0.842908   -0.302926
    131          1           0      -14.393829   -0.947740   -0.270943
    132          1           0      -11.984539    0.511438   -0.482456
    133          1           0      -12.920853    1.079181   -1.763960
    134          1           0      -13.088332   -1.900842   -1.524275
    135          1           0      -11.106266   -2.694459   -1.887773
    136          1           0      -10.683342   -1.423157   -0.710188
    137          1           0      -10.384060   -1.152954   -2.445717
    138          1           0      -12.959201    0.137944   -3.723405
    139          1           0      -13.944200   -1.308534   -3.519730
    140          1           0      -12.260161   -1.400966   -4.042703
 ---------------------------------------------------------------------

 SCF Done:  E(RCAM-B3LYP) =  -3007.18003374     A.U. after   16 cycles

 Excitation energies and oscillator strengths:

 Excited State   1:      Singlet-A      1.6968 eV  730.71 nm  f=0.3811  <S**2>=0.000
     245 -> 248        0.18041
     246 -> 247        0.68518
     245 <- 248        0.10705
 This state for optimization and/or second-order correction.
 Total Energy, E(TD-HF/TD-DFT) =  -3007.11767896
 Copying the excited state density for this state as the 1-particle RhoCI density.

 Excited State   2:      Singlet-A      2.2568 eV  549.38 nm  f=0.1061  <S**2>=0.000
     245 -> 247        0.63501
     246 -> 248       -0.29757

 Excited State   3:      Singlet-A      3.3695 eV  367.96 nm  f=0.0085  <S**2>=0.000
     243 -> 247       -0.28181
     244 -> 247        0.63073

 Excited State   4:      Singlet-A      3.4588 eV  358.46 nm  f=0.2697  <S**2>=0.000
     243 -> 247        0.39716
     244 -> 247        0.23905
     245 -> 247        0.18209
     246 -> 248        0.49159

 Excited State   5:      Singlet-A      3.4682 eV  357.49 nm  f=0.0009  <S**2>=0.000
     240 -> 247        0.53603
     240 -> 248       -0.19882
     240 -> 249       -0.29089
     240 -> 250       -0.22299

 The electronic state is 1-A.
 Alpha  occ. eigenvalues --  -46.88259 -19.26030 -19.25235 -19.20319 -19.19944
 Alpha  occ. eigenvalues --  -19.19068 -19.18791 -14.42165 -14.41168 -14.39484
 Alpha  occ. eigenvalues --  -14.39141 -10.40186 -10.39650 -10.35771 -10.35092
 Alpha  occ. eigenvalues --  -10.32679 -10.32287 -10.31043 -10.30771 -10.30581
 Alpha  occ. eigenvalues --  -10.30528 -10.29963 -10.29851 -10.29624 -10.28872
 Alpha  occ. eigenvalues --  -10.28647 -10.28644 -10.28588 -10.28538 -10.27793
 Alpha  occ. eigenvalues --  -10.27621 -10.27557 -10.27451 -10.27424 -10.27375
 Alpha  occ. eigenvalues --  -10.27368 -10.27362 -10.27063 -10.26714 -10.26584
 Alpha  occ. eigenvalues --  -10.26554 -10.26459 -10.26313 -10.26268 -10.26190
 Alpha  occ. eigenvalues --  -10.26121 -10.26049 -10.25680 -10.25519 -10.25491
 Alpha  occ. eigenvalues --  -10.25366 -10.25271 -10.25170 -10.25128 -10.25100
 Alpha  occ. eigenvalues --  -10.24987 -10.24804 -10.24719 -10.24664 -10.24604
 Alpha  occ. eigenvalues --  -10.24581 -10.24480 -10.24461 -10.24381 -10.24331
 Alpha  occ. eigenvalues --  -10.24032  -3.16869  -1.91763  -1.91336  -1.91169
 Alpha  occ. eigenvalues --   -1.17574  -1.15993  -1.10516  -1.09265  -1.08026
 Alpha  occ. eigenvalues --   -1.07336  -1.04942  -1.03159  -1.02625  -1.01533
 Alpha  occ. eigenvalues --   -0.92451  -0.90814  -0.90483  -0.90250  -0.88916
 Alpha  occ. eigenvalues --   -0.88652  -0.87720  -0.87645  -0.86866  -0.86259
 Alpha  occ. eigenvalues --   -0.86076  -0.85772  -0.84897  -0.83649  -0.82933
 Alpha  occ. eigenvalues --   -0.82641  -0.81723  -0.81176  -0.81100  -0.80470
 Alpha  occ. eigenvalues --   -0.80111  -0.78272  -0.78073  -0.77298  -0.76177
 Alpha  occ. eigenvalues --   -0.75979  -0.75779  -0.74869  -0.74700  -0.74333
 Alpha  occ. eigenvalues --   -0.73612  -0.72590  -0.71324  -0.70815  -0.69203
 Alpha  occ. eigenvalues --   -0.68823  -0.68376  -0.67407  -0.67005  -0.65787
 Alpha  occ. eigenvalues --   -0.65086  -0.65075  -0.65002  -0.64505  -0.64254
 Alpha  occ. eigenvalues --   -0.63919  -0.63219  -0.62390  -0.62053  -0.60095
 Alpha  occ. eigenvalues --   -0.59935  -0.59842  -0.59552  -0.58493  -0.57816
 Alpha  occ. eigenvalues --   -0.57352  -0.56722  -0.56203  -0.55942  -0.55821
 Alpha  occ. eigenvalues --   -0.54983  -0.54767  -0.54665  -0.54315  -0.54120
 Alpha  occ. eigenvalues --   -0.54026  -0.53901  -0.53560  -0.53164  -0.52758
 Alpha  occ. eigenvalues --   -0.52652  -0.52327  -0.52128  -0.52009  -0.51730
 Alpha  occ. eigenvalues --   -0.51456  -0.51328  -0.51110  -0.50897  -0.50859
 Alpha  occ. eigenvalues --   -0.50634  -0.50276  -0.49917  -0.49494  -0.49453
 Alpha  occ. eigenvalues --   -0.49387  -0.49280  -0.48960  -0.48885  -0.48865
 Alpha  occ. eigenvalues --   -0.48463  -0.48379  -0.48130  -0.47851  -0.47756
 Alpha  occ. eigenvalues --   -0.47745  -0.47494  -0.47342  -0.47103  -0.46873
 Alpha  occ. eigenvalues --   -0.46405  -0.46342  -0.46262  -0.46208  -0.45904
 Alpha  occ. eigenvalues --   -0.45883  -0.45784  -0.45618  -0.45256  -0.44962
 Alpha  occ. eigenvalues --   -0.44787  -0.44441  -0.44285  -0.44148  -0.43857
 Alpha  occ. eigenvalues --   -0.43848  -0.43709  -0.43637  -0.43566  -0.43086
 Alpha  occ. eigenvalues --   -0.42874  -0.42606  -0.42357  -0.42291  -0.42023
 Alpha  occ. eigenvalues --   -0.41922  -0.41590  -0.41547  -0.41413  -0.41375
 Alpha  occ. eigenvalues --   -0.41271  -0.40611  -0.40576  -0.40482  -0.40051
 Alpha  occ. eigenvalues --   -0.39748  -0.39613  -0.39580  -0.39367  -0.38638
 Alpha  occ. eigenvalues --   -0.38611  -0.38492  -0.38073  -0.37915  -0.37613
 Alpha  occ. eigenvalues --   -0.37243  -0.37181  -0.36650  -0.36561  -0.36241
 Alpha  occ. eigenvalues --   -0.35890  -0.35443  -0.34905  -0.34472  -0.34202
 Alpha  occ. eigenvalues --   -0.33856  -0.33642  -0.33025  -0.31079  -0.30842
 Alpha  occ. eigenvalues --   -0.30648  -0.30308  -0.30011  -0.29409  -0.24048
 Alpha  occ. eigenvalues --   -0.21078
 Alpha virt. eigenvalues --   -0.08635  -0.01809   0.00279   0.02234   0.02815
 Alpha virt. eigenvalues --    0.04048   0.05697   0.05945   0.06481   0.06864
 Alpha virt. eigenvalues --    0.07188   0.07859   0.08381   0.08856   0.09054

 Mulliken charges:
               1
     1  Mg   0.817668
     2  C   -0.023164
     3  C   -0.115124
     4  C   -0.037804
     5  C   -0.021665
     6  N   -0.314794
     7  C    0.022144
     8  C   -0.000245
     9  C   -0.082574
    10  C    0.088844
    11  C    0.072140
    12  C    0.049683
    13  C    0.045022
    14  C    0.156418
    15  O   -0.234632
    16  O   -0.344172
    17  N   -0.433204
    18  C    0.169040
    19  C   -0.172777
    20  C   -0.021853
    21  C    0.185973
    22  C    0.119208
    23  C    0.011511
    24  O   -0.239248
    25  C    0.047768
    26  N   -0.235040
    27  C   -0.051662
    28  C   -0.021607
    29  C   -0.005138
    30  C   -0.066103
    31  C    0.068843
    32  C    0.041740
    33  C    0.013026
    34  N   -0.339417
    35  C    0.133162
    36  C   -0.195054
    37  C    0.060301
    38  C    0.094947
    39  C    0.120540
    40  C    0.026857
    41  O   -0.149654
    42  C   -0.043710
    43  C    0.199016
    44  O   -0.201600
    45  O   -0.321122
    46  C    0.170021
    47  C    0.302046
    48  C   -0.155202
    49  C   -0.167664
    50  C    0.078715
    51  C    0.096842
    52  C    0.013645
    53  C   -0.005453
    54  C   -0.074578
    55  C    0.026957
    56  C    0.073658
    57  C    0.033278
    58  C    0.014635
    59  C   -0.084883
    60  C    0.052988
    61  C    0.020312
    62  C   -0.012057
    63  C    0.082926
    64  C   -0.141830
    65  C    0.015935
    66  C    0.049049
    67  H   -0.027466
    68  H    0.001118
    69  H   -0.022794
    70  H    0.004379
    71  H    0.012350
    72  H    0.012687
    73  H    0.014633
    74  H    0.019581
    75  H    0.015985
    76  H    0.009998
    77  H    0.051311
    78  H    0.026445
    79  H    0.044783
    80  H    0.021229
    81  H    0.021793
    82  H    0.036422
    83  H    0.030131
    84  H    0.029534
    85  H    0.010193
    86  H   -0.000176
    87  H    0.021405
    88  H    0.020289
    89  H    0.040159
    90  H    0.007384
    91  H   -0.000084
    92  H    0.008346
    93  H    0.010175
    94  H    0.030166
    95  H    0.027556
    96  H   -0.009250
    97  H    0.036334
    98  H    0.035767
    99  H    0.028966
   100  H    0.043917
   101  H    0.058714
   102  H    0.046430
   103  H    0.035552
   104  H   -0.007617
   105  H    0.024107
   106  H    0.001672
   107  H    0.021867
   108  H   -0.020178
   109  H   -0.002173
   110  H    0.002017
   111  H    0.012490
   112  H   -0.009379
   113  H    0.010422
   114  H   -0.007123
   115  H    0.007686
   116  H   -0.001583
   117  H    0.006202
   118  H   -0.018273
   119  H   -0.010868
   120  H   -0.000738
   121  H    0.006476
   122  H   -0.011083
   123  H   -0.005749
   124  H    0.000073
   125  H    0.009378
   126  H   -0.004321
   127  H    0.005639
   128  H   -0.010360
   129  H   -0.020374
   130  H    0.002243
   131  H   -0.007180
   132  H   -0.024590
   133  H   -0.015184
   134  H   -0.003137
   135  H    0.009130
   136  H    0.007025
   137  H    0.025264
   138  H    0.004517
   139  H    0.011718
   140  H   -0.003806
 Sum of Mulliken charges =  -0.00000

 Dipole moment (field-independent basis, Debye):
    X=             -3.8063    Y=              2.7910    Z=             -1.1616  Tot=              4.8608
 Quadrupole moment (field-independent basis, Debye-Ang):
   XX=           -380.3278   YY=           -417.7421   ZZ=           -411.3906
   XY=              0.6462   XZ=             15.7280   YZ=              1.1450

 Normal termination of Gaussian 16 at Wed May  4 04:56:22 2022.
