 Gaussian 16, Revision A.03,
 Gaussian 16:  ES64L-G16RevA.03 25-Dec-2016

 ---------------------------------
 #p PBE1PBE/Def2SVP td=(nstates=5)
 ---------------------------------

 ------------------------------------------------------
 step_1401_chromophore_13 TDDFT with PBE1PBE functional
 ------------------------------------------------------
 Symbolic Z-matrix:
 Charge =  0 Multiplicity = 1

                         Standard orientation:
 ---------------------------------------------------------------------
 Center     Atomic      Atomic             Coordinates (Angstroms)
 Number     Number       Type             X           Y           Z
 ---------------------------------------------------------------------
      1         12           0        5.723764    0.541814    0.143210
      2          6           0        3.679512   -2.267958    0.107263
      3          6           0        3.091254    2.462325   -0.633197
      4          6           0        7.925371    2.986739   -0.032815
      5          6           0        8.599739   -1.826481    0.483055
      6          7           0        3.723028    0.170839   -0.200815
      7          6           0        3.047886   -1.052225   -0.140084
      8          6           0        1.568359   -0.956743   -0.213976
      9          6           0        1.412183    0.569798   -0.527430
     10          6           0        2.861504    1.123754   -0.447949
     11          6           0        0.645111    0.901130   -1.820846
     12          6           0        0.686457   -1.493664    0.901866
     13          6           0       -0.529245   -2.358230    0.564150
     14          6           0       -1.880528   -1.981657    1.294329
     15          8           0       -2.032100   -1.871556    2.507673
     16          8           0       -2.973392   -2.042641    0.458689
     17          7           0        5.485638    2.463175   -0.309106
     18          6           0        4.321575    3.142389   -0.455279
     19          6           0        4.619493    4.537722   -0.664383
     20          6           0        6.059448    4.674713   -0.467205
     21          6           0        6.562508    3.330387   -0.208431
     22          6           0        3.521782    5.542807   -0.938903
     23          6           0        6.892439    5.940874   -0.565383
     24          8           0        8.127447    5.905844   -0.318336
     25          6           0        6.272799    7.325481   -0.936907
     26          7           0        8.035291    0.599623    0.121632
     27          6           0        8.657150    1.778307    0.078117
     28          6           0       10.213600    1.522255    0.052722
     29          6           0       10.259602    0.083405    0.679271
     30          6           0        8.911287   -0.459505    0.380699
     31          6           0       10.672247    1.452376   -1.485330
     32          6           0       10.545446    0.100344    2.265488
     33          6           0        9.519505   -0.466219    3.275423
     34          7           0        6.150876   -1.593302    0.273119
     35          6           0        7.283966   -2.380535    0.533366
     36          6           0        6.858503   -3.765158    0.509623
     37          6           0        5.495823   -3.829149    0.322271
     38          6           0        5.069600   -2.439163    0.212628
     39          6           0        7.783368   -4.908461    0.625934
     40          6           0        4.309636   -4.663321    0.235281
     41          8           0        4.286118   -5.866884    0.342763
     42          6           0        3.081730   -3.661195    0.043795
     43          6           0        2.519542   -3.990387   -1.342727
     44          8           0        2.951557   -3.503764   -2.356716
     45          8           0        1.419968   -4.762154   -1.190085
     46          6           0        0.680894   -5.006767   -2.439665
     47          6           0       -4.354338   -1.992639    0.967410
     48          6           0       -5.172824   -1.282774   -0.092120
     49          6           0       -6.464706   -1.268711   -0.302458
     50          6           0       -7.476781   -2.074095    0.523003
     51          6           0       -7.097996   -0.321692   -1.335873
     52          6           0       -7.346114    1.125095   -0.886806
     53          6           0       -8.843995    1.357371   -0.609523
     54          6           0       -9.126364    2.809611    0.017520
     55          6           0       -8.090609    3.932149   -0.257648
     56          6           0       -9.509258    2.714868    1.525626
     57          6           0      -10.990060    2.760107    1.869968
     58          6           0      -11.509250    1.343458    2.101550
     59          6           0      -13.035048    1.325373    1.877944
     60          6           0      -13.775878    1.574330    3.206934
     61          6           0      -13.511959   -0.032001    1.343109
     62          6           0      -13.978777    0.054237   -0.166194
     63          6           0      -12.804610    0.200851   -1.129380
     64          6           0      -12.515672   -1.055421   -1.905470
     65          6           0      -11.048857   -1.619081   -1.718244
     66          6           0      -12.948767   -0.891781   -3.367266
     67          1           0        2.183545    3.049656   -0.789268
     68          1           0        8.673411    3.783266   -0.052203
     69          1           0        9.519282   -2.390278    0.653825
     70          1           0        1.137353   -1.510143   -1.048129
     71          1           0        0.832210    1.078628    0.243299
     72          1           0        1.179103    1.773757   -2.195825
     73          1           0       -0.403387    1.105204   -1.602118
     74          1           0        0.656543    0.069367   -2.525599
     75          1           0        0.260232   -0.685407    1.496284
     76          1           0        1.336070   -2.062464    1.566783
     77          1           0       -0.210968   -3.303925    1.001320
     78          1           0       -0.712148   -2.452497   -0.506543
     79          1           0        3.445077    6.195569   -0.068950
     80          1           0        2.560602    5.118074   -1.227062
     81          1           0        3.900399    6.069913   -1.814568
     82          1           0        7.058272    8.079595   -0.990028
     83          1           0        5.486692    7.586745   -0.228227
     84          1           0        5.757780    7.279425   -1.896573
     85          1           0       10.659702    2.287263    0.689117
     86          1           0       10.872441   -0.654871    0.163392
     87          1           0       11.596288    0.882995   -1.574093
     88          1           0       10.916666    2.482130   -1.749137
     89          1           0        9.903447    1.114187   -2.179482
     90          1           0       10.938868    1.068035    2.578003
     91          1           0       11.427205   -0.532969    2.362118
     92          1           0        9.536136    0.047096    4.236896
     93          1           0        9.694996   -1.506228    3.550030
     94          1           0        8.481814   -0.387061    2.948795
     95          1           0        7.509871   -5.568259    1.449743
     96          1           0        8.798082   -4.606252    0.884227
     97          1           0        7.832303   -5.495051   -0.291009
     98          1           0        2.337983   -3.881905    0.809472
     99          1           0       -0.016583   -4.182924   -2.590450
    100          1           0        0.060078   -5.889264   -2.283626
    101          1           0        1.368628   -5.082444   -3.281382
    102          1           0       -4.507316   -1.362188    1.843742
    103          1           0       -4.788624   -2.975553    1.148332
    104          1           0       -4.535789   -0.695177   -0.753344
    105          1           0       -8.277892   -1.461191    0.935864
    106          1           0       -6.941964   -2.684032    1.250696
    107          1           0       -8.006743   -2.757512   -0.140655
    108          1           0       -8.042592   -0.812675   -1.567775
    109          1           0       -6.488668   -0.299555   -2.239032
    110          1           0       -7.195858    1.795997   -1.732914
    111          1           0       -6.637020    1.310982   -0.080398
    112          1           0       -9.126142    0.642296    0.163348
    113          1           0       -9.359242    1.139361   -1.545338
    114          1           0       -9.942308    3.083828   -0.650361
    115          1           0       -8.149234    4.760879    0.447848
    116          1           0       -8.136662    4.429576   -1.225946
    117          1           0       -7.068423    3.552344   -0.261856
    118          1           0       -9.029696    3.544913    2.044006
    119          1           0       -9.124150    1.792834    1.961111
    120          1           0      -11.564822    3.121047    1.016537
    121          1           0      -11.119480    3.296500    2.810308
    122          1           0      -11.128298    1.160681    3.106813
    123          1           0      -11.011295    0.534942    1.565653
    124          1           0      -13.451490    2.053264    1.181684
    125          1           0      -14.846531    1.521534    3.012604
    126          1           0      -13.503931    2.560066    3.583941
    127          1           0      -13.472462    0.838547    3.951661
    128          1           0      -14.355598   -0.560834    1.787179
    129          1           0      -12.713882   -0.770958    1.415971
    130          1           0      -14.718991    0.842908   -0.302926
    131          1           0      -14.393829   -0.947740   -0.270943
    132          1           0      -11.984539    0.511438   -0.482456
    133          1           0      -12.920853    1.079181   -1.763960
    134          1           0      -13.088332   -1.900842   -1.524275
    135          1           0      -11.106266   -2.694459   -1.887773
    136          1           0      -10.683342   -1.423157   -0.710188
    137          1           0      -10.384060   -1.152954   -2.445717
    138          1           0      -12.959201    0.137944   -3.723405
    139          1           0      -13.944200   -1.308534   -3.519730
    140          1           0      -12.260161   -1.400966   -4.042703
 ---------------------------------------------------------------------

 SCF Done:  E(RPBE1PBE) =  -3005.36843212     A.U. after   15 cycles

 Excitation energies and oscillator strengths:

 Excited State   1:      Singlet-A      1.8509 eV  669.86 nm  f=0.3682  <S**2>=0.000
     245 -> 248       -0.17291
     246 -> 247        0.69243
     246 <- 247       -0.10628
 This state for optimization and/or second-order correction.
 Total Energy, E(TD-HF/TD-DFT) =  -3005.30041243
 Copying the excited state density for this state as the 1-particle RhoCI density.

 Excited State   2:      Singlet-A      2.2559 eV  549.60 nm  f=0.1033  <S**2>=0.000
     245 -> 247        0.64517
     246 -> 248        0.27520

 Excited State   3:      Singlet-A      2.9849 eV  415.37 nm  f=0.0001  <S**2>=0.000
     241 -> 247       -0.17393
     243 -> 247        0.63376
     243 -> 248       -0.11508
     243 -> 249       -0.14351
     243 -> 250       -0.10264
     244 -> 247       -0.12630

 Excited State   4:      Singlet-A      3.0230 eV  410.13 nm  f=0.0010  <S**2>=0.000
     240 -> 247       -0.15266
     243 -> 247        0.11022
     244 -> 247        0.67111

 Excited State   5:      Singlet-A      3.0856 eV  401.82 nm  f=0.0005  <S**2>=0.000
     240 -> 247        0.61293
     240 -> 249        0.15028
     241 -> 247       -0.24704
     244 -> 247        0.14379

 The electronic state is 1-A.
 Alpha  occ. eigenvalues --  -46.91654 -19.26695 -19.25989 -19.20568 -19.20271
 Alpha  occ. eigenvalues --  -19.19383 -19.18918 -14.41775 -14.40572 -14.39107
 Alpha  occ. eigenvalues --  -14.38877 -10.37300 -10.36690 -10.32824 -10.32337
 Alpha  occ. eigenvalues --  -10.30120 -10.29522 -10.28829 -10.28409 -10.28268
 Alpha  occ. eigenvalues --  -10.28144 -10.27739 -10.27553 -10.27509 -10.26455
 Alpha  occ. eigenvalues --  -10.26441 -10.26426 -10.26354 -10.26073 -10.25448
 Alpha  occ. eigenvalues --  -10.25397 -10.25364 -10.25314 -10.25275 -10.25124
 Alpha  occ. eigenvalues --  -10.24981 -10.24803 -10.24707 -10.24282 -10.24239
 Alpha  occ. eigenvalues --  -10.24052 -10.23984 -10.23931 -10.23892 -10.23680
 Alpha  occ. eigenvalues --  -10.23621 -10.23521 -10.23356 -10.23205 -10.23109
 Alpha  occ. eigenvalues --  -10.22954 -10.22813 -10.22740 -10.22579 -10.22570
 Alpha  occ. eigenvalues --  -10.22398 -10.22378 -10.22344 -10.22312 -10.22195
 Alpha  occ. eigenvalues --  -10.22144 -10.22024 -10.21974 -10.21862 -10.21720
 Alpha  occ. eigenvalues --  -10.21561  -3.13845  -1.86681  -1.86232  -1.86068
 Alpha  occ. eigenvalues --   -1.12368  -1.10858  -1.05365  -1.04113  -1.02618
 Alpha  occ. eigenvalues --   -1.02253  -0.99585  -0.97739  -0.97240  -0.96272
 Alpha  occ. eigenvalues --   -0.86843  -0.84951  -0.84700  -0.84428  -0.83033
 Alpha  occ. eigenvalues --   -0.82962  -0.82077  -0.81774  -0.81058  -0.80585
 Alpha  occ. eigenvalues --   -0.80425  -0.80039  -0.79089  -0.77966  -0.77164
 Alpha  occ. eigenvalues --   -0.76865  -0.75964  -0.75394  -0.75356  -0.74653
 Alpha  occ. eigenvalues --   -0.74305  -0.72523  -0.72395  -0.71612  -0.70418
 Alpha  occ. eigenvalues --   -0.70236  -0.69883  -0.69209  -0.68870  -0.68486
 Alpha  occ. eigenvalues --   -0.67950  -0.67055  -0.65735  -0.65184  -0.63537
 Alpha  occ. eigenvalues --   -0.63087  -0.62823  -0.61821  -0.61235  -0.60282
 Alpha  occ. eigenvalues --   -0.59626  -0.59515  -0.59221  -0.58833  -0.58696
 Alpha  occ. eigenvalues --   -0.58448  -0.57394  -0.57007  -0.56290  -0.54615
 Alpha  occ. eigenvalues --   -0.54436  -0.54268  -0.54140  -0.52908  -0.52471
 Alpha  occ. eigenvalues --   -0.51868  -0.51309  -0.50626  -0.50399  -0.50391
 Alpha  occ. eigenvalues --   -0.49591  -0.49351  -0.49139  -0.48903  -0.48659
 Alpha  occ. eigenvalues --   -0.48446  -0.48397  -0.48185  -0.47740  -0.47291
 Alpha  occ. eigenvalues --   -0.47143  -0.46768  -0.46638  -0.46540  -0.46303
 Alpha  occ. eigenvalues --   -0.46140  -0.45874  -0.45621  -0.45463  -0.45391
 Alpha  occ. eigenvalues --   -0.45212  -0.44883  -0.44532  -0.44128  -0.43998
 Alpha  occ. eigenvalues --   -0.43882  -0.43850  -0.43541  -0.43470  -0.43370
 Alpha  occ. eigenvalues --   -0.43128  -0.42951  -0.42766  -0.42470  -0.42343
 Alpha  occ. eigenvalues --   -0.42321  -0.42117  -0.41982  -0.41703  -0.41617
 Alpha  occ. eigenvalues --   -0.41188  -0.41071  -0.40934  -0.40822  -0.40649
 Alpha  occ. eigenvalues --   -0.40563  -0.40443  -0.40353  -0.39987  -0.39766
 Alpha  occ. eigenvalues --   -0.39467  -0.39141  -0.39038  -0.38956  -0.38676
 Alpha  occ. eigenvalues --   -0.38549  -0.38482  -0.38352  -0.38299  -0.37911
 Alpha  occ. eigenvalues --   -0.37717  -0.37469  -0.37239  -0.37152  -0.36860
 Alpha  occ. eigenvalues --   -0.36771  -0.36488  -0.36309  -0.36173  -0.36111
 Alpha  occ. eigenvalues --   -0.36040  -0.35487  -0.35438  -0.35260  -0.34973
 Alpha  occ. eigenvalues --   -0.34608  -0.34543  -0.34365  -0.34135  -0.33579
 Alpha  occ. eigenvalues --   -0.33452  -0.33305  -0.33009  -0.32785  -0.32546
 Alpha  occ. eigenvalues --   -0.32187  -0.32157  -0.31680  -0.31542  -0.31314
 Alpha  occ. eigenvalues --   -0.30761  -0.30353  -0.29753  -0.29420  -0.29056
 Alpha  occ. eigenvalues --   -0.28822  -0.28774  -0.28660  -0.26766  -0.25666
 Alpha  occ. eigenvalues --   -0.25582  -0.25580  -0.25491  -0.25110  -0.20993
 Alpha  occ. eigenvalues --   -0.18730
 Alpha virt. eigenvalues --   -0.11118  -0.05333  -0.03969  -0.02118  -0.00537
 Alpha virt. eigenvalues --   -0.00082   0.01069   0.01738   0.02050   0.03364
 Alpha virt. eigenvalues --    0.03885   0.03893   0.04444   0.05429   0.05549

 Mulliken charges:
               1
     1  Mg   0.966719
     2  C   -0.029254
     3  C   -0.103895
     4  C   -0.042359
     5  C   -0.025743
     6  N   -0.432056
     7  C    0.085863
     8  C   -0.066788
     9  C   -0.155071
    10  C    0.124795
    11  C    0.013591
    12  C    0.002695
    13  C   -0.038162
    14  C    0.226955
    15  O   -0.266716
    16  O   -0.377162
    17  N   -0.549683
    18  C    0.197154
    19  C   -0.200967
    20  C   -0.071960
    21  C    0.210933
    22  C    0.057524
    23  C    0.060274
    24  O   -0.274744
    25  C   -0.022802
    26  N   -0.327899
    27  C    0.000080
    28  C   -0.110717
    29  C   -0.082866
    30  C   -0.024076
    31  C    0.014040
    32  C   -0.009236
    33  C   -0.064652
    34  N   -0.456324
    35  C    0.170128
    36  C   -0.232049
    37  C    0.021748
    38  C    0.145102
    39  C    0.071487
    40  C    0.122366
    41  O   -0.195415
    42  C   -0.155646
    43  C    0.289681
    44  O   -0.235127
    45  O   -0.353918
    46  C    0.114391
    47  C    0.262360
    48  C   -0.161496
    49  C   -0.214523
    50  C    0.011576
    51  C    0.030534
    52  C   -0.051858
    53  C   -0.071568
    54  C   -0.148230
    55  C   -0.034741
    56  C    0.012631
    57  C   -0.030878
    58  C   -0.038123
    59  C   -0.176002
    60  C   -0.006369
    61  C   -0.031478
    62  C   -0.079604
    63  C    0.021644
    64  C   -0.231563
    65  C   -0.050434
    66  C   -0.009803
    67  H    0.004317
    68  H    0.033977
    69  H    0.007097
    70  H    0.046330
    71  H    0.049664
    72  H    0.040532
    73  H    0.042143
    74  H    0.046486
    75  H    0.048934
    76  H    0.043596
    77  H    0.084754
    78  H    0.058515
    79  H    0.071997
    80  H    0.047285
    81  H    0.050704
    82  H    0.062734
    83  H    0.056604
    84  H    0.055537
    85  H    0.044331
    86  H    0.035267
    87  H    0.049154
    88  H    0.049472
    89  H    0.066708
    90  H    0.039030
    91  H    0.033552
    92  H    0.037491
    93  H    0.037695
    94  H    0.061407
    95  H    0.055385
    96  H    0.018955
    97  H    0.063900
    98  H    0.073089
    99  H    0.051134
   100  H    0.065567
   101  H    0.079373
   102  H    0.073140
   103  H    0.061381
   104  H    0.022505
   105  H    0.052372
   106  H    0.029739
   107  H    0.050303
   108  H    0.018831
   109  H    0.030480
   110  H    0.036773
   111  H    0.044607
   112  H    0.030848
   113  H    0.043563
   114  H    0.031028
   115  H    0.035353
   116  H    0.026158
   117  H    0.033545
   118  H    0.014845
   119  H    0.022401
   120  H    0.032308
   121  H    0.038992
   122  H    0.022029
   123  H    0.022480
   124  H    0.036550
   125  H    0.037758
   126  H    0.024962
   127  H    0.033659
   128  H    0.021448
   129  H    0.014848
   130  H    0.034570
   131  H    0.026066
   132  H    0.021341
   133  H    0.016744
   134  H    0.034284
   135  H    0.037033
   136  H    0.036120
   137  H    0.051519
   138  H    0.031144
   139  H    0.039400
   140  H    0.023843
 Sum of Mulliken charges =  -0.00000

 Dipole moment (field-independent basis, Debye):
    X=             -3.8283    Y=              2.5088    Z=             -1.1022  Tot=              4.7079
 Quadrupole moment (field-independent basis, Debye-Ang):
   XX=           -374.6284   YY=           -415.7310   ZZ=           -408.7768
   XY=             -1.6241   XZ=             16.3626   YZ=              0.9241

 Normal termination of Gaussian 16 at Wed May  4 05:14:52 2022.
