 Gaussian 16, Revision A.03,
 Gaussian 16:  ES64L-G16RevA.03 25-Dec-2016

 --------------------------------
 #p wB97XD/Def2SVP td=(nstates=5)
 --------------------------------

 -----------------------------------------------------
 step_1401_chromophore_13 TDDFT with wB97XD functional
 -----------------------------------------------------
 Symbolic Z-matrix:
 Charge =  0 Multiplicity = 1

                         Standard orientation:
 ---------------------------------------------------------------------
 Center     Atomic      Atomic             Coordinates (Angstroms)
 Number     Number       Type             X           Y           Z
 ---------------------------------------------------------------------
      1         12           0        5.723764    0.541814    0.143210
      2          6           0        3.679512   -2.267958    0.107263
      3          6           0        3.091254    2.462325   -0.633197
      4          6           0        7.925371    2.986739   -0.032815
      5          6           0        8.599739   -1.826481    0.483055
      6          7           0        3.723028    0.170839   -0.200815
      7          6           0        3.047886   -1.052225   -0.140084
      8          6           0        1.568359   -0.956743   -0.213976
      9          6           0        1.412183    0.569798   -0.527430
     10          6           0        2.861504    1.123754   -0.447949
     11          6           0        0.645111    0.901130   -1.820846
     12          6           0        0.686457   -1.493664    0.901866
     13          6           0       -0.529245   -2.358230    0.564150
     14          6           0       -1.880528   -1.981657    1.294329
     15          8           0       -2.032100   -1.871556    2.507673
     16          8           0       -2.973392   -2.042641    0.458689
     17          7           0        5.485638    2.463175   -0.309106
     18          6           0        4.321575    3.142389   -0.455279
     19          6           0        4.619493    4.537722   -0.664383
     20          6           0        6.059448    4.674713   -0.467205
     21          6           0        6.562508    3.330387   -0.208431
     22          6           0        3.521782    5.542807   -0.938903
     23          6           0        6.892439    5.940874   -0.565383
     24          8           0        8.127447    5.905844   -0.318336
     25          6           0        6.272799    7.325481   -0.936907
     26          7           0        8.035291    0.599623    0.121632
     27          6           0        8.657150    1.778307    0.078117
     28          6           0       10.213600    1.522255    0.052722
     29          6           0       10.259602    0.083405    0.679271
     30          6           0        8.911287   -0.459505    0.380699
     31          6           0       10.672247    1.452376   -1.485330
     32          6           0       10.545446    0.100344    2.265488
     33          6           0        9.519505   -0.466219    3.275423
     34          7           0        6.150876   -1.593302    0.273119
     35          6           0        7.283966   -2.380535    0.533366
     36          6           0        6.858503   -3.765158    0.509623
     37          6           0        5.495823   -3.829149    0.322271
     38          6           0        5.069600   -2.439163    0.212628
     39          6           0        7.783368   -4.908461    0.625934
     40          6           0        4.309636   -4.663321    0.235281
     41          8           0        4.286118   -5.866884    0.342763
     42          6           0        3.081730   -3.661195    0.043795
     43          6           0        2.519542   -3.990387   -1.342727
     44          8           0        2.951557   -3.503764   -2.356716
     45          8           0        1.419968   -4.762154   -1.190085
     46          6           0        0.680894   -5.006767   -2.439665
     47          6           0       -4.354338   -1.992639    0.967410
     48          6           0       -5.172824   -1.282774   -0.092120
     49          6           0       -6.464706   -1.268711   -0.302458
     50          6           0       -7.476781   -2.074095    0.523003
     51          6           0       -7.097996   -0.321692   -1.335873
     52          6           0       -7.346114    1.125095   -0.886806
     53          6           0       -8.843995    1.357371   -0.609523
     54          6           0       -9.126364    2.809611    0.017520
     55          6           0       -8.090609    3.932149   -0.257648
     56          6           0       -9.509258    2.714868    1.525626
     57          6           0      -10.990060    2.760107    1.869968
     58          6           0      -11.509250    1.343458    2.101550
     59          6           0      -13.035048    1.325373    1.877944
     60          6           0      -13.775878    1.574330    3.206934
     61          6           0      -13.511959   -0.032001    1.343109
     62          6           0      -13.978777    0.054237   -0.166194
     63          6           0      -12.804610    0.200851   -1.129380
     64          6           0      -12.515672   -1.055421   -1.905470
     65          6           0      -11.048857   -1.619081   -1.718244
     66          6           0      -12.948767   -0.891781   -3.367266
     67          1           0        2.183545    3.049656   -0.789268
     68          1           0        8.673411    3.783266   -0.052203
     69          1           0        9.519282   -2.390278    0.653825
     70          1           0        1.137353   -1.510143   -1.048129
     71          1           0        0.832210    1.078628    0.243299
     72          1           0        1.179103    1.773757   -2.195825
     73          1           0       -0.403387    1.105204   -1.602118
     74          1           0        0.656543    0.069367   -2.525599
     75          1           0        0.260232   -0.685407    1.496284
     76          1           0        1.336070   -2.062464    1.566783
     77          1           0       -0.210968   -3.303925    1.001320
     78          1           0       -0.712148   -2.452497   -0.506543
     79          1           0        3.445077    6.195569   -0.068950
     80          1           0        2.560602    5.118074   -1.227062
     81          1           0        3.900399    6.069913   -1.814568
     82          1           0        7.058272    8.079595   -0.990028
     83          1           0        5.486692    7.586745   -0.228227
     84          1           0        5.757780    7.279425   -1.896573
     85          1           0       10.659702    2.287263    0.689117
     86          1           0       10.872441   -0.654871    0.163392
     87          1           0       11.596288    0.882995   -1.574093
     88          1           0       10.916666    2.482130   -1.749137
     89          1           0        9.903447    1.114187   -2.179482
     90          1           0       10.938868    1.068035    2.578003
     91          1           0       11.427205   -0.532969    2.362118
     92          1           0        9.536136    0.047096    4.236896
     93          1           0        9.694996   -1.506228    3.550030
     94          1           0        8.481814   -0.387061    2.948795
     95          1           0        7.509871   -5.568259    1.449743
     96          1           0        8.798082   -4.606252    0.884227
     97          1           0        7.832303   -5.495051   -0.291009
     98          1           0        2.337983   -3.881905    0.809472
     99          1           0       -0.016583   -4.182924   -2.590450
    100          1           0        0.060078   -5.889264   -2.283626
    101          1           0        1.368628   -5.082444   -3.281382
    102          1           0       -4.507316   -1.362188    1.843742
    103          1           0       -4.788624   -2.975553    1.148332
    104          1           0       -4.535789   -0.695177   -0.753344
    105          1           0       -8.277892   -1.461191    0.935864
    106          1           0       -6.941964   -2.684032    1.250696
    107          1           0       -8.006743   -2.757512   -0.140655
    108          1           0       -8.042592   -0.812675   -1.567775
    109          1           0       -6.488668   -0.299555   -2.239032
    110          1           0       -7.195858    1.795997   -1.732914
    111          1           0       -6.637020    1.310982   -0.080398
    112          1           0       -9.126142    0.642296    0.163348
    113          1           0       -9.359242    1.139361   -1.545338
    114          1           0       -9.942308    3.083828   -0.650361
    115          1           0       -8.149234    4.760879    0.447848
    116          1           0       -8.136662    4.429576   -1.225946
    117          1           0       -7.068423    3.552344   -0.261856
    118          1           0       -9.029696    3.544913    2.044006
    119          1           0       -9.124150    1.792834    1.961111
    120          1           0      -11.564822    3.121047    1.016537
    121          1           0      -11.119480    3.296500    2.810308
    122          1           0      -11.128298    1.160681    3.106813
    123          1           0      -11.011295    0.534942    1.565653
    124          1           0      -13.451490    2.053264    1.181684
    125          1           0      -14.846531    1.521534    3.012604
    126          1           0      -13.503931    2.560066    3.583941
    127          1           0      -13.472462    0.838547    3.951661
    128          1           0      -14.355598   -0.560834    1.787179
    129          1           0      -12.713882   -0.770958    1.415971
    130          1           0      -14.718991    0.842908   -0.302926
    131          1           0      -14.393829   -0.947740   -0.270943
    132          1           0      -11.984539    0.511438   -0.482456
    133          1           0      -12.920853    1.079181   -1.763960
    134          1           0      -13.088332   -1.900842   -1.524275
    135          1           0      -11.106266   -2.694459   -1.887773
    136          1           0      -10.683342   -1.423157   -0.710188
    137          1           0      -10.384060   -1.152954   -2.445717
    138          1           0      -12.959201    0.137944   -3.723405
    139          1           0      -13.944200   -1.308534   -3.519730
    140          1           0      -12.260161   -1.400966   -4.042703
 ---------------------------------------------------------------------

 SCF Done:  E(RwB97XD) =  -3007.88376208     A.U. after   20 cycles

 Excitation energies and oscillator strengths:

 Excited State   1:      Singlet-A      1.6383 eV  756.78 nm  f=0.3792  <S**2>=0.000
     245 -> 248        0.18595
     246 -> 247        0.68294
     245 <- 248        0.11620
 This state for optimization and/or second-order correction.
 Total Energy, E(TD-HF/TD-DFT) =  -3007.82355513
 Copying the excited state density for this state as the 1-particle RhoCI density.

 Excited State   2:      Singlet-A      2.2040 eV  562.55 nm  f=0.1034  <S**2>=0.000
     245 -> 247        0.63348
     246 -> 248       -0.29843

 Excited State   3:      Singlet-A      3.3920 eV  365.51 nm  f=0.0143  <S**2>=0.000
     243 -> 247       -0.34069
     244 -> 247        0.59040
     246 -> 248       -0.10054

 Excited State   4:      Singlet-A      3.4727 eV  357.03 nm  f=0.3066  <S**2>=0.000
     243 -> 247        0.33905
     244 -> 247        0.28864
     245 -> 247        0.18796
     246 -> 248        0.50427

 Excited State   5:      Singlet-A      3.4748 eV  356.81 nm  f=0.0011  <S**2>=0.000
     240 -> 247        0.52927
     240 -> 248       -0.20461
     240 -> 249       -0.31363
     240 -> 250       -0.23676

 The electronic state is 1-A.
 Alpha  occ. eigenvalues --  -46.94597 -19.31236 -19.30513 -19.25231 -19.24918
 Alpha  occ. eigenvalues --  -19.24095 -19.23867 -14.46737 -14.45782 -14.44118
 Alpha  occ. eigenvalues --  -14.43740 -10.44043 -10.43480 -10.39804 -10.39093
 Alpha  occ. eigenvalues --  -10.36589 -10.36017 -10.35060 -10.34862 -10.34620
 Alpha  occ. eigenvalues --  -10.34538 -10.34035 -10.33832 -10.33618 -10.33060
 Alpha  occ. eigenvalues --  -10.32693 -10.32656 -10.32641 -10.32473 -10.31955
 Alpha  occ. eigenvalues --  -10.31673 -10.31596 -10.31472 -10.31449 -10.31438
 Alpha  occ. eigenvalues --  -10.31436 -10.31406 -10.31039 -10.30605 -10.30586
 Alpha  occ. eigenvalues --  -10.30560 -10.30525 -10.30346 -10.30208 -10.30118
 Alpha  occ. eigenvalues --  -10.29996 -10.29914 -10.29639 -10.29492 -10.29479
 Alpha  occ. eigenvalues --  -10.29330 -10.29196 -10.29130 -10.28952 -10.28947
 Alpha  occ. eigenvalues --  -10.28840 -10.28733 -10.28668 -10.28568 -10.28487
 Alpha  occ. eigenvalues --  -10.28480 -10.28465 -10.28305 -10.28288 -10.28163
 Alpha  occ. eigenvalues --  -10.27931  -3.20644  -1.94230  -1.93782  -1.93611
 Alpha  occ. eigenvalues --   -1.19731  -1.18206  -1.12739  -1.11438  -1.10268
 Alpha  occ. eigenvalues --   -1.09567  -1.06937  -1.05192  -1.04659  -1.03546
 Alpha  occ. eigenvalues --   -0.94385  -0.92610  -0.92308  -0.92070  -0.90689
 Alpha  occ. eigenvalues --   -0.90579  -0.89642  -0.89436  -0.88827  -0.88190
 Alpha  occ. eigenvalues --   -0.87984  -0.87657  -0.86739  -0.85593  -0.84798
 Alpha  occ. eigenvalues --   -0.84497  -0.83611  -0.83085  -0.83017  -0.82405
 Alpha  occ. eigenvalues --   -0.81962  -0.80249  -0.79982  -0.79227  -0.78044
 Alpha  occ. eigenvalues --   -0.77880  -0.77580  -0.76810  -0.76536  -0.76149
 Alpha  occ. eigenvalues --   -0.75541  -0.74560  -0.73286  -0.72763  -0.71097
 Alpha  occ. eigenvalues --   -0.70719  -0.70361  -0.69422  -0.68878  -0.67744
 Alpha  occ. eigenvalues --   -0.67089  -0.66966  -0.66892  -0.66350  -0.66238
 Alpha  occ. eigenvalues --   -0.65902  -0.65048  -0.64372  -0.63903  -0.62033
 Alpha  occ. eigenvalues --   -0.61965  -0.61757  -0.61541  -0.60416  -0.59805
 Alpha  occ. eigenvalues --   -0.59284  -0.58725  -0.58083  -0.57855  -0.57769
 Alpha  occ. eigenvalues --   -0.56975  -0.56712  -0.56566  -0.56276  -0.56051
 Alpha  occ. eigenvalues --   -0.55891  -0.55818  -0.55491  -0.55087  -0.54696
 Alpha  occ. eigenvalues --   -0.54547  -0.54269  -0.54032  -0.53944  -0.53635
 Alpha  occ. eigenvalues --   -0.53382  -0.53249  -0.52980  -0.52763  -0.52744
 Alpha  occ. eigenvalues --   -0.52537  -0.52196  -0.51824  -0.51443  -0.51392
 Alpha  occ. eigenvalues --   -0.51304  -0.51179  -0.50917  -0.50810  -0.50766
 Alpha  occ. eigenvalues --   -0.50379  -0.50298  -0.50105  -0.49789  -0.49636
 Alpha  occ. eigenvalues --   -0.49616  -0.49397  -0.49234  -0.48971  -0.48778
 Alpha  occ. eigenvalues --   -0.48327  -0.48252  -0.48163  -0.48087  -0.47825
 Alpha  occ. eigenvalues --   -0.47791  -0.47661  -0.47551  -0.47150  -0.46882
 Alpha  occ. eigenvalues --   -0.46647  -0.46320  -0.46191  -0.46155  -0.45751
 Alpha  occ. eigenvalues --   -0.45703  -0.45651  -0.45530  -0.45469  -0.44980
 Alpha  occ. eigenvalues --   -0.44832  -0.44543  -0.44271  -0.44192  -0.43953
 Alpha  occ. eigenvalues --   -0.43873  -0.43557  -0.43457  -0.43408  -0.43243
 Alpha  occ. eigenvalues --   -0.43127  -0.42517  -0.42472  -0.42327  -0.41952
 Alpha  occ. eigenvalues --   -0.41616  -0.41549  -0.41427  -0.41202  -0.40536
 Alpha  occ. eigenvalues --   -0.40466  -0.40345  -0.39979  -0.39825  -0.39603
 Alpha  occ. eigenvalues --   -0.39206  -0.39103  -0.38667  -0.38534  -0.38205
 Alpha  occ. eigenvalues --   -0.37728  -0.37298  -0.36832  -0.36342  -0.36119
 Alpha  occ. eigenvalues --   -0.35692  -0.35633  -0.35296  -0.33301  -0.32807
 Alpha  occ. eigenvalues --   -0.32616  -0.32334  -0.32221  -0.31569  -0.25976
 Alpha  occ. eigenvalues --   -0.22881
 Alpha virt. eigenvalues --   -0.06988   0.00102   0.02326   0.04347   0.05826
 Alpha virt. eigenvalues --    0.06359   0.07888   0.08375   0.08770   0.09761
 Alpha virt. eigenvalues --    0.10346   0.10417   0.11242   0.12195   0.12306

 Mulliken charges:
               1
     1  Mg   0.955189
     2  C   -0.032661
     3  C   -0.126357
     4  C   -0.050026
     5  C   -0.034320
     6  N   -0.396755
     7  C    0.059217
     8  C   -0.036657
     9  C   -0.131920
    10  C    0.115606
    11  C    0.026369
    12  C    0.011918
    13  C   -0.018390
    14  C    0.216130
    15  O   -0.264313
    16  O   -0.375587
    17  N   -0.518437
    18  C    0.189756
    19  C   -0.190670
    20  C   -0.063403
    21  C    0.203176
    22  C    0.071290
    23  C    0.054434
    24  O   -0.269118
    25  C   -0.010432
    26  N   -0.295883
    27  C   -0.023900
    28  C   -0.077936
    29  C   -0.056436
    30  C   -0.038868
    31  C    0.021544
    32  C   -0.003798
    33  C   -0.042290
    34  N   -0.421108
    35  C    0.152324
    36  C   -0.219782
    37  C    0.021336
    38  C    0.127957
    39  C    0.080799
    40  C    0.103851
    41  O   -0.187009
    42  C   -0.111931
    43  C    0.263303
    44  O   -0.230004
    45  O   -0.351912
    46  C    0.130417
    47  C    0.273809
    48  C   -0.172507
    49  C   -0.200222
    50  C    0.029762
    51  C    0.058503
    52  C   -0.033600
    53  C   -0.034648
    54  C   -0.129302
    55  C   -0.020221
    56  C    0.035127
    57  C   -0.012597
    58  C   -0.019069
    59  C   -0.146709
    60  C    0.006868
    61  C   -0.014639
    62  C   -0.059650
    63  C    0.049785
    64  C   -0.203033
    65  C   -0.028656
    66  C    0.000945
    67  H   -0.005109
    68  H    0.029583
    69  H    0.002400
    70  H    0.023756
    71  H    0.038861
    72  H    0.032726
    73  H    0.037237
    74  H    0.041758
    75  H    0.040492
    76  H    0.034193
    77  H    0.078354
    78  H    0.051642
    79  H    0.067442
    80  H    0.045137
    81  H    0.043048
    82  H    0.062490
    83  H    0.051343
    84  H    0.050273
    85  H    0.036981
    86  H    0.025172
    87  H    0.043526
    88  H    0.043213
    89  H    0.061592
    90  H    0.031558
    91  H    0.025914
    92  H    0.032331
    93  H    0.031910
    94  H    0.048888
    95  H    0.050610
    96  H    0.012154
    97  H    0.059267
    98  H    0.064020
    99  H    0.046208
   100  H    0.062455
   101  H    0.075656
   102  H    0.068974
   103  H    0.056137
   104  H    0.019288
   105  H    0.046026
   106  H    0.023894
   107  H    0.043877
   108  H   -0.001630
   109  H    0.024683
   110  H    0.027013
   111  H    0.033985
   112  H   -0.000793
   113  H    0.032938
   114  H    0.019554
   115  H    0.029607
   116  H    0.021139
   117  H    0.024870
   118  H    0.006981
   119  H    0.010793
   120  H    0.020027
   121  H    0.031814
   122  H    0.013547
   123  H    0.008096
   124  H    0.023486
   125  H    0.031517
   126  H    0.018287
   127  H    0.026721
   128  H    0.014243
   129  H    0.002779
   130  H    0.027378
   131  H    0.015682
   132  H   -0.009910
   133  H    0.008906
   134  H    0.022197
   135  H    0.032117
   136  H    0.023766
   137  H    0.043434
   138  H    0.024693
   139  H    0.034035
   140  H    0.018106
 Sum of Mulliken charges =  -0.00000

 Dipole moment (field-independent basis, Debye):
    X=             -3.8437    Y=              2.9334    Z=             -1.1821  Tot=              4.9776
 Quadrupole moment (field-independent basis, Debye-Ang):
   XX=           -375.2328   YY=           -413.2887   ZZ=           -408.4799
   XY=              0.9317   XZ=             16.0152   YZ=              0.8983

 Normal termination of Gaussian 16 at Wed May  4 05:44:03 2022.
