 Gaussian 16, Revision A.03,
 Gaussian 16:  ES64L-G16RevA.03 25-Dec-2016

 --------------------
 #p ZINDO=(nstates=5)
 --------------------

 ------------------------------
 step_1401_chromophore_13 ZINDO
 ------------------------------
 Symbolic Z-matrix:
 Charge =  0 Multiplicity = 1

                         Standard orientation:
 ---------------------------------------------------------------------
 Center     Atomic      Atomic             Coordinates (Angstroms)
 Number     Number       Type             X           Y           Z
 ---------------------------------------------------------------------
      1         12           0        5.723764    0.541814    0.143210
      2          6           0        3.679512   -2.267958    0.107263
      3          6           0        3.091254    2.462325   -0.633197
      4          6           0        7.925371    2.986739   -0.032815
      5          6           0        8.599739   -1.826481    0.483055
      6          7           0        3.723028    0.170839   -0.200815
      7          6           0        3.047886   -1.052225   -0.140084
      8          6           0        1.568359   -0.956743   -0.213976
      9          6           0        1.412183    0.569798   -0.527430
     10          6           0        2.861504    1.123754   -0.447949
     11          6           0        0.645111    0.901130   -1.820846
     12          6           0        0.686457   -1.493664    0.901866
     13          6           0       -0.529245   -2.358230    0.564150
     14          6           0       -1.880528   -1.981657    1.294329
     15          8           0       -2.032100   -1.871556    2.507673
     16          8           0       -2.973392   -2.042641    0.458689
     17          7           0        5.485638    2.463175   -0.309106
     18          6           0        4.321575    3.142389   -0.455279
     19          6           0        4.619493    4.537722   -0.664383
     20          6           0        6.059448    4.674713   -0.467205
     21          6           0        6.562508    3.330387   -0.208431
     22          6           0        3.521782    5.542807   -0.938903
     23          6           0        6.892439    5.940874   -0.565383
     24          8           0        8.127447    5.905844   -0.318336
     25          6           0        6.272799    7.325481   -0.936907
     26          7           0        8.035291    0.599623    0.121632
     27          6           0        8.657150    1.778307    0.078117
     28          6           0       10.213600    1.522255    0.052722
     29          6           0       10.259602    0.083405    0.679271
     30          6           0        8.911287   -0.459505    0.380699
     31          6           0       10.672247    1.452376   -1.485330
     32          6           0       10.545446    0.100344    2.265488
     33          6           0        9.519505   -0.466219    3.275423
     34          7           0        6.150876   -1.593302    0.273119
     35          6           0        7.283966   -2.380535    0.533366
     36          6           0        6.858503   -3.765158    0.509623
     37          6           0        5.495823   -3.829149    0.322271
     38          6           0        5.069600   -2.439163    0.212628
     39          6           0        7.783368   -4.908461    0.625934
     40          6           0        4.309636   -4.663321    0.235281
     41          8           0        4.286118   -5.866884    0.342763
     42          6           0        3.081730   -3.661195    0.043795
     43          6           0        2.519542   -3.990387   -1.342727
     44          8           0        2.951557   -3.503764   -2.356716
     45          8           0        1.419968   -4.762154   -1.190085
     46          6           0        0.680894   -5.006767   -2.439665
     47          6           0       -4.354338   -1.992639    0.967410
     48          6           0       -5.172824   -1.282774   -0.092120
     49          6           0       -6.464706   -1.268711   -0.302458
     50          6           0       -7.476781   -2.074095    0.523003
     51          6           0       -7.097996   -0.321692   -1.335873
     52          6           0       -7.346114    1.125095   -0.886806
     53          6           0       -8.843995    1.357371   -0.609523
     54          6           0       -9.126364    2.809611    0.017520
     55          6           0       -8.090609    3.932149   -0.257648
     56          6           0       -9.509258    2.714868    1.525626
     57          6           0      -10.990060    2.760107    1.869968
     58          6           0      -11.509250    1.343458    2.101550
     59          6           0      -13.035048    1.325373    1.877944
     60          6           0      -13.775878    1.574330    3.206934
     61          6           0      -13.511959   -0.032001    1.343109
     62          6           0      -13.978777    0.054237   -0.166194
     63          6           0      -12.804610    0.200851   -1.129380
     64          6           0      -12.515672   -1.055421   -1.905470
     65          6           0      -11.048857   -1.619081   -1.718244
     66          6           0      -12.948767   -0.891781   -3.367266
     67          1           0        2.183545    3.049656   -0.789268
     68          1           0        8.673411    3.783266   -0.052203
     69          1           0        9.519282   -2.390278    0.653825
     70          1           0        1.137353   -1.510143   -1.048129
     71          1           0        0.832210    1.078628    0.243299
     72          1           0        1.179103    1.773757   -2.195825
     73          1           0       -0.403387    1.105204   -1.602118
     74          1           0        0.656543    0.069367   -2.525599
     75          1           0        0.260232   -0.685407    1.496284
     76          1           0        1.336070   -2.062464    1.566783
     77          1           0       -0.210968   -3.303925    1.001320
     78          1           0       -0.712148   -2.452497   -0.506543
     79          1           0        3.445077    6.195569   -0.068950
     80          1           0        2.560602    5.118074   -1.227062
     81          1           0        3.900399    6.069913   -1.814568
     82          1           0        7.058272    8.079595   -0.990028
     83          1           0        5.486692    7.586745   -0.228227
     84          1           0        5.757780    7.279425   -1.896573
     85          1           0       10.659702    2.287263    0.689117
     86          1           0       10.872441   -0.654871    0.163392
     87          1           0       11.596288    0.882995   -1.574093
     88          1           0       10.916666    2.482130   -1.749137
     89          1           0        9.903447    1.114187   -2.179482
     90          1           0       10.938868    1.068035    2.578003
     91          1           0       11.427205   -0.532969    2.362118
     92          1           0        9.536136    0.047096    4.236896
     93          1           0        9.694996   -1.506228    3.550030
     94          1           0        8.481814   -0.387061    2.948795
     95          1           0        7.509871   -5.568259    1.449743
     96          1           0        8.798082   -4.606252    0.884227
     97          1           0        7.832303   -5.495051   -0.291009
     98          1           0        2.337983   -3.881905    0.809472
     99          1           0       -0.016583   -4.182924   -2.590450
    100          1           0        0.060078   -5.889264   -2.283626
    101          1           0        1.368628   -5.082444   -3.281382
    102          1           0       -4.507316   -1.362188    1.843742
    103          1           0       -4.788624   -2.975553    1.148332
    104          1           0       -4.535789   -0.695177   -0.753344
    105          1           0       -8.277892   -1.461191    0.935864
    106          1           0       -6.941964   -2.684032    1.250696
    107          1           0       -8.006743   -2.757512   -0.140655
    108          1           0       -8.042592   -0.812675   -1.567775
    109          1           0       -6.488668   -0.299555   -2.239032
    110          1           0       -7.195858    1.795997   -1.732914
    111          1           0       -6.637020    1.310982   -0.080398
    112          1           0       -9.126142    0.642296    0.163348
    113          1           0       -9.359242    1.139361   -1.545338
    114          1           0       -9.942308    3.083828   -0.650361
    115          1           0       -8.149234    4.760879    0.447848
    116          1           0       -8.136662    4.429576   -1.225946
    117          1           0       -7.068423    3.552344   -0.261856
    118          1           0       -9.029696    3.544913    2.044006
    119          1           0       -9.124150    1.792834    1.961111
    120          1           0      -11.564822    3.121047    1.016537
    121          1           0      -11.119480    3.296500    2.810308
    122          1           0      -11.128298    1.160681    3.106813
    123          1           0      -11.011295    0.534942    1.565653
    124          1           0      -13.451490    2.053264    1.181684
    125          1           0      -14.846531    1.521534    3.012604
    126          1           0      -13.503931    2.560066    3.583941
    127          1           0      -13.472462    0.838547    3.951661
    128          1           0      -14.355598   -0.560834    1.787179
    129          1           0      -12.713882   -0.770958    1.415971
    130          1           0      -14.718991    0.842908   -0.302926
    131          1           0      -14.393829   -0.947740   -0.270943
    132          1           0      -11.984539    0.511438   -0.482456
    133          1           0      -12.920853    1.079181   -1.763960
    134          1           0      -13.088332   -1.900842   -1.524275
    135          1           0      -11.106266   -2.694459   -1.887773
    136          1           0      -10.683342   -1.423157   -0.710188
    137          1           0      -10.384060   -1.152954   -2.445717
    138          1           0      -12.959201    0.137944   -3.723405
    139          1           0      -13.944200   -1.308534   -3.519730
    140          1           0      -12.260161   -1.400966   -4.042703
 ---------------------------------------------------------------------

 SCF Done:  E(RZINDO/S) =  -474.285925959     A.U. after   19 cycles

 Excitation energies and oscillator strengths:

 Excited State   1:      Singlet-A      1.2400 eV  999.88 nm  f=0.6123  <S**2>=0.000
     175 ->178         0.19157
     176 ->177         0.66215
 This state for optimization and/or second-order correction.
 Total Energy, E(CIS/TDA) =  -474.240357321
 Copying the excited state density for this state as the 1-particle RhoCI density.

 Excited State   2:      Singlet-A      1.9455 eV  637.29 nm  f=0.0368  <S**2>=0.000
     175 ->177         0.53663
     176 ->178        -0.43605

 Excited State   3:      Singlet-A      2.9055 eV  426.72 nm  f=0.0028  <S**2>=0.000
     168 ->177        -0.30381
     168 ->178        -0.12226
     168 ->179         0.34992
     168 ->180         0.33383
     168 ->183         0.10890
     168 ->185         0.18355
     168 ->187         0.11448
     169 ->177         0.10421
     169 ->179        -0.11874
     169 ->180        -0.10876

 Excited State   4:      Singlet-A      2.9395 eV  421.78 nm  f=0.3178  <S**2>=0.000
     175 ->177         0.23934
     176 ->178         0.35045
     176 ->179         0.49398

 Excited State   5:      Singlet-A      3.0523 eV  406.19 nm  f=0.8361  <S**2>=0.000
     169 ->177         0.10164
     169 ->179         0.12097
     175 ->177         0.32359
     176 ->178         0.38736
     176 ->179        -0.37567

 The electronic state is 1-A.
 Alpha  occ. eigenvalues --   -1.84156  -1.80629  -1.80047  -1.73564  -1.71430
 Alpha  occ. eigenvalues --   -1.70236  -1.67868  -1.60985  -1.58432  -1.56358
 Alpha  occ. eigenvalues --   -1.55561  -1.52258  -1.50729  -1.49359  -1.44850
 Alpha  occ. eigenvalues --   -1.44245  -1.43426  -1.39842  -1.39073  -1.37302
 Alpha  occ. eigenvalues --   -1.35275  -1.33241  -1.33071  -1.32684  -1.28659
 Alpha  occ. eigenvalues --   -1.28251  -1.23529  -1.21559  -1.20573  -1.18577
 Alpha  occ. eigenvalues --   -1.17647  -1.16916  -1.15301  -1.14812  -1.13363
 Alpha  occ. eigenvalues --   -1.11979  -1.10290  -1.10193  -1.05177  -1.04014
 Alpha  occ. eigenvalues --   -1.03184  -1.01172  -1.00229  -0.97915  -0.96903
 Alpha  occ. eigenvalues --   -0.96771  -0.95925  -0.94751  -0.93380  -0.92257
 Alpha  occ. eigenvalues --   -0.90196  -0.89873  -0.88010  -0.87644  -0.85350
 Alpha  occ. eigenvalues --   -0.85184  -0.85028  -0.84130  -0.81162  -0.79892
 Alpha  occ. eigenvalues --   -0.79517  -0.78814  -0.77280  -0.77138  -0.76594
 Alpha  occ. eigenvalues --   -0.76202  -0.75348  -0.75062  -0.73874  -0.73497
 Alpha  occ. eigenvalues --   -0.72958  -0.72764  -0.72429  -0.72027  -0.70630
 Alpha  occ. eigenvalues --   -0.70151  -0.69180  -0.68987  -0.68395  -0.67907
 Alpha  occ. eigenvalues --   -0.67327  -0.67057  -0.66349  -0.66163  -0.65885
 Alpha  occ. eigenvalues --   -0.64904  -0.64742  -0.64288  -0.63871  -0.63633
 Alpha  occ. eigenvalues --   -0.63069  -0.62791  -0.62343  -0.61915  -0.61442
 Alpha  occ. eigenvalues --   -0.61360  -0.60909  -0.60754  -0.60394  -0.60142
 Alpha  occ. eigenvalues --   -0.59789  -0.59708  -0.59165  -0.58814  -0.58090
 Alpha  occ. eigenvalues --   -0.57968  -0.57812  -0.57462  -0.57285  -0.56899
 Alpha  occ. eigenvalues --   -0.56305  -0.55707  -0.55518  -0.55090  -0.54513
 Alpha  occ. eigenvalues --   -0.54337  -0.54011  -0.53525  -0.53386  -0.52723
 Alpha  occ. eigenvalues --   -0.52502  -0.52122  -0.51916  -0.51772  -0.51014
 Alpha  occ. eigenvalues --   -0.50986  -0.50885  -0.50692  -0.50357  -0.50257
 Alpha  occ. eigenvalues --   -0.50026  -0.49978  -0.49643  -0.49386  -0.49090
 Alpha  occ. eigenvalues --   -0.48855  -0.48689  -0.48471  -0.48208  -0.48114
 Alpha  occ. eigenvalues --   -0.47678  -0.47533  -0.47235  -0.46957  -0.46569
 Alpha  occ. eigenvalues --   -0.46462  -0.46062  -0.45834  -0.45558  -0.45323
 Alpha  occ. eigenvalues --   -0.44840  -0.44585  -0.44318  -0.44002  -0.43487
 Alpha  occ. eigenvalues --   -0.43451  -0.42753  -0.42558  -0.42187  -0.41946
 Alpha  occ. eigenvalues --   -0.41884  -0.41306  -0.41026  -0.39262  -0.38852
 Alpha  occ. eigenvalues --   -0.38509  -0.36687  -0.35194  -0.34929  -0.34683
 Alpha  occ. eigenvalues --   -0.32922  -0.32815  -0.32466  -0.32200  -0.26552
 Alpha  occ. eigenvalues --   -0.21579
 Alpha virt. eigenvalues --   -0.08396  -0.02016  -0.00619   0.01124   0.01270
 Alpha virt. eigenvalues --    0.02565   0.02859   0.03299   0.05011   0.05471
 Alpha virt. eigenvalues --    0.06453   0.06934   0.07202   0.07709   0.07896

 Mulliken charges:
               1
     1  Mg   0.426803
     2  C   -0.040080
     3  C   -0.094279
     4  C   -0.055305
     5  C   -0.057528
     6  N   -0.265949
     7  C    0.122811
     8  C    0.001703
     9  C   -0.009825
    10  C    0.154950
    11  C   -0.054656
    12  C   -0.019665
    13  C    0.007321
    14  C    0.457123
    15  O   -0.514286
    16  O   -0.277176
    17  N   -0.318738
    18  C    0.114622
    19  C    0.000537
    20  C   -0.045304
    21  C    0.138928
    22  C   -0.041464
    23  C    0.317666
    24  O   -0.536301
    25  C   -0.028339
    26  N   -0.282199
    27  C    0.137891
    28  C    0.008876
    29  C    0.003974
    30  C    0.113371
    31  C   -0.047882
    32  C   -0.028471
    33  C   -0.049977
    34  N   -0.331690
    35  C    0.078182
    36  C    0.055030
    37  C   -0.061858
    38  C    0.106155
    39  C   -0.039515
    40  C    0.336532
    41  O   -0.512874
    42  C    0.052683
    43  C    0.490396
    44  O   -0.518081
    45  O   -0.263802
    46  C    0.073805
    47  C    0.109424
    48  C   -0.076437
    49  C   -0.017930
    50  C   -0.048341
    51  C   -0.029123
    52  C   -0.032430
    53  C   -0.038697
    54  C   -0.016924
    55  C   -0.057913
    56  C   -0.029873
    57  C   -0.036433
    58  C   -0.035582
    59  C   -0.007692
    60  C   -0.056902
    61  C   -0.045345
    62  C   -0.046196
    63  C   -0.028796
    64  C   -0.007366
    65  C   -0.061035
    66  C   -0.054483
    67  H    0.022132
    68  H    0.043690
    69  H    0.032333
    70  H    0.033349
    71  H    0.025283
    72  H    0.027710
    73  H    0.019392
    74  H    0.024898
    75  H    0.026855
    76  H    0.022703
    77  H    0.048796
    78  H    0.040605
    79  H    0.036248
    80  H    0.031046
    81  H    0.027279
    82  H    0.042159
    83  H    0.035373
    84  H    0.032248
    85  H    0.043462
    86  H    0.033361
    87  H    0.022381
    88  H    0.017358
    89  H    0.038891
    90  H    0.025346
    91  H    0.008592
    92  H    0.013493
    93  H    0.020250
    94  H    0.026784
    95  H    0.030345
    96  H    0.012258
    97  H    0.038002
    98  H    0.054821
    99  H    0.032630
   100  H    0.035641
   101  H    0.058780
   102  H    0.059743
   103  H    0.051794
   104  H    0.024613
   105  H    0.032123
   106  H    0.022834
   107  H    0.022542
   108  H    0.016027
   109  H    0.018397
   110  H    0.017301
   111  H    0.031922
   112  H    0.018533
   113  H    0.029157
   114  H    0.015355
   115  H    0.017986
   116  H    0.013561
   117  H    0.017128
   118  H    0.011374
   119  H    0.020583
   120  H    0.024235
   121  H    0.026515
   122  H    0.016234
   123  H    0.022313
   124  H    0.029765
   125  H    0.017092
   126  H    0.011285
   127  H    0.020469
   128  H    0.015244
   129  H    0.012945
   130  H    0.024329
   131  H    0.014594
   132  H    0.013597
   133  H    0.014987
   134  H    0.017748
   135  H    0.018107
   136  H    0.020270
   137  H    0.020181
   138  H    0.018611
   139  H    0.017877
   140  H    0.012096
 Sum of Mulliken charges =  -0.00000

 Dipole moment (field-independent basis, Debye):
    X=             -4.9640    Y=              3.8867    Z=             -0.8679  Tot=              6.3641
 N-N= 4.322535419620D+03 E-N= 0.000000000000D+00  KE=-9.319366995184D+03
 Leave Link  601 at Wed May  4 05:56:59 2022, MaxMem=  6710886400 cpu:               0.8 elap:               0.0
 (Enter /sw/apps/gaussian-16.0/g16/l9999.exe)
 1\1\GINC-BP1-COMPUTE058\SP\RZINDO CIS\STO-3G\C55H74Mg1N4O6\OF15641\04-
 May-2022\0\\#p ZINDO=(nstates=5)\\step_1401_chromophore_13 ZINDO\\0,1\
 Mg,0,46.147,24.944,29.248\C,0,46.72,27.372,31.667\C,0,45.496,22.706,31
 .654\C,0,45.937,22.777,26.775\C,0,47.414,27.436,26.762\N,0,46.107,25.0
 18,31.31\C,0,46.34,26.119,32.14\C,0,46.012,25.906,33.572\C,0,45.692,24
 .373,33.55\C,0,45.768,23.991,32.046\C,0,46.544,23.509,34.498\C,0,44.99
 5,26.781,34.287\C,0,45.322,27.361,35.664\C,0,44.2,27.216,36.769\O,0,43

 Normal termination of Gaussian 16 at Wed May  4 05:56:59 2022.
