 Gaussian 16, Revision A.03,
 Gaussian 16:  ES64L-G16RevA.03 25-Dec-2016

 ------------------------------
 #p blyp/Def2SVP td=(nstates=5)
 ------------------------------

 ---------------------------------------------------
 step_1801_chromophore_27 TDDFT with blyp functional
 ---------------------------------------------------
 Symbolic Z-matrix:
 Charge =  0 Multiplicity = 1

                         Standard orientation:
 ---------------------------------------------------------------------
 Center     Atomic      Atomic             Coordinates (Angstroms)
 Number     Number       Type             X           Y           Z
 ---------------------------------------------------------------------
      1         12           0       -4.652404    0.859954   -0.097035
      2          6           0       -3.783933   -2.624749    0.378204
      3          6           0       -1.223651    1.447745    0.119464
      4          6           0       -5.440988    4.128592   -0.484771
      5          6           0       -7.939524    0.076774    0.368294
      6          7           0       -2.699953   -0.513663    0.189629
      7          6           0       -2.613221   -1.910427    0.170662
      8          6           0       -1.178772   -2.348700   -0.136924
      9          6           0       -0.335349   -1.003734    0.047571
     10          6           0       -1.437866    0.018826    0.058538
     11          6           0        0.538351   -1.011898    1.389725
     12          6           0       -0.993592   -3.065133   -1.556460
     13          6           0       -0.263516   -4.405555   -1.542782
     14          6           0        1.082446   -4.379919   -2.190445
     15          8           0        1.437268   -4.955320   -3.181556
     16          8           0        1.970050   -3.749945   -1.333093
     17          7           0       -3.514021    2.580535   -0.172355
     18          6           0       -2.135238    2.588682   -0.094465
     19          6           0       -1.781008    3.971796   -0.102466
     20          6           0       -2.946651    4.769587   -0.203588
     21          6           0       -4.067244    3.853566   -0.352212
     22          6           0       -0.422358    4.376099   -0.178997
     23          6           0       -3.221422    6.281647   -0.295289
     24          8           0       -4.327354    6.801744   -0.563310
     25          6           0       -2.039728    7.181849    0.079945
     26          7           0       -6.360629    1.993290   -0.221568
     27          6           0       -6.550435    3.287305   -0.455914
     28          6           0       -7.942896    3.794972   -0.396179
     29          6           0       -8.770216    2.443337   -0.113342
     30          6           0       -7.620260    1.441912    0.002233
     31          6           0       -8.165690    4.903436    0.671676
     32          6           0       -9.811929    2.024670   -1.210979
     33          6           0      -11.224732    1.729049   -0.779514
     34          7           0       -5.708916   -0.881747    0.189879
     35          6           0       -7.048510   -1.008131    0.415714
     36          6           0       -7.338016   -2.355698    0.658107
     37          6           0       -6.123897   -3.002322    0.686457
     38          6           0       -5.108525   -2.108701    0.368761
     39          6           0       -8.781418   -2.881100    0.940933
     40          6           0       -5.514849   -4.296175    0.783201
     41          8           0       -6.016951   -5.380037    1.068617
     42          6           0       -3.933547   -4.130833    0.633389
     43          6           0       -3.292168   -4.563580    1.945725
     44          8           0       -3.825494   -4.440708    3.043065
     45          8           0       -2.042695   -5.055498    1.746791
     46          6           0       -1.307101   -5.555049    2.935005
     47          6           0        3.399529   -4.116574   -1.502641
     48          6           0        4.257432   -2.940586   -1.857025
     49          6           0        5.531306   -2.633154   -1.592875
     50          6           0        6.565576   -3.624415   -0.946136
     51          6           0        6.072725   -1.227879   -1.752816
     52          6           0        6.444141   -0.787577   -3.146640
     53          6           0        7.920981   -0.583093   -3.511359
     54          6           0        8.301761    0.862605   -3.952572
     55          6           0        8.314577    1.138616   -5.414839
     56          6           0        9.534722    1.416142   -3.332804
     57          6           0        9.420961    2.448332   -2.261483
     58          6           0       10.428073    2.323091   -1.146493
     59          6           0        9.856683    1.632522    0.136436
     60          6           0        9.919654    0.131404    0.065049
     61          6           0       10.518025    2.079366    1.500138
     62          6           0        9.617469    2.008447    2.741676
     63          6           0       10.517179    1.494177    3.923674
     64          6           0        9.901320    1.787163    5.337045
     65          6           0       10.980181    1.395330    6.428853
     66          6           0        8.556450    1.012184    5.655428
     67          1           0       -0.163240    1.687463    0.223894
     68          1           0       -5.767161    5.170242   -0.500564
     69          1           0       -8.972341   -0.120787    0.665455
     70          1           0       -0.788173   -3.002843    0.643366
     71          1           0        0.388184   -0.674113   -0.697756
     72          1           0        0.326986   -0.194103    2.079318
     73          1           0        1.589650   -0.974792    1.105266
     74          1           0        0.372568   -1.956197    1.909225
     75          1           0       -0.473982   -2.406566   -2.253425
     76          1           0       -1.992737   -3.219717   -1.964551
     77          1           0       -0.939924   -5.119048   -2.013407
     78          1           0       -0.039032   -4.697718   -0.516943
     79          1           0       -0.331296    5.029085   -1.047318
     80          1           0        0.336901    3.596073   -0.229616
     81          1           0       -0.254500    4.992464    0.704279
     82          1           0       -2.177960    8.262727    0.110730
     83          1           0       -1.240454    6.949675   -0.622951
     84          1           0       -1.842376    6.775747    1.072201
     85          1           0       -8.034986    4.241319   -1.385915
     86          1           0       -9.172326    2.547254    0.893820
     87          1           0       -7.444901    4.790430    1.481625
     88          1           0       -9.167495    5.009346    1.086562
     89          1           0       -7.812393    5.824573    0.207011
     90          1           0       -9.467048    1.100497   -1.675078
     91          1           0       -9.912761    2.742053   -2.025164
     92          1           0      -11.403938    0.653786   -0.774929
     93          1           0      -11.962175    2.284241   -1.358703
     94          1           0      -11.382916    2.112026    0.227745
     95          1           0       -9.565074   -2.682732    0.210803
     96          1           0       -9.069874   -2.572183    1.945864
     97          1           0       -8.493177   -3.932355    0.933426
     98          1           0       -3.514713   -4.729952   -0.174908
     99          1           0       -1.883061   -6.225650    3.573132
    100          1           0       -0.994068   -4.618836    3.396892
    101          1           0       -0.441935   -6.046759    2.492539
    102          1           0        3.621742   -4.823598   -2.302117
    103          1           0        3.619619   -4.536892   -0.521198
    104          1           0        3.671185   -2.117276   -2.264171
    105          1           0        6.990501   -3.208682   -0.032222
    106          1           0        7.214114   -3.872536   -1.786157
    107          1           0        6.255763   -4.624341   -0.642695
    108          1           0        6.970138   -1.162666   -1.137426
    109          1           0        5.392306   -0.490912   -1.326629
    110          1           0        5.916090    0.133653   -3.392934
    111          1           0        5.852239   -1.365044   -3.857209
    112          1           0        8.244761   -1.258055   -4.303477
    113          1           0        8.507498   -0.912947   -2.653522
    114          1           0        7.436208    1.444103   -3.633049
    115          1           0        8.376124    0.170207   -5.910515
    116          1           0        9.126825    1.688460   -5.889883
    117          1           0        7.452711    1.694456   -5.784106
    118          1           0       10.139782    1.923343   -4.084080
    119          1           0       10.244186    0.636196   -3.056697
    120          1           0        8.375758    2.429622   -1.953246
    121          1           0        9.455899    3.503705   -2.531834
    122          1           0       10.839432    3.302549   -0.902238
    123          1           0       11.319457    1.851068   -1.560445
    124          1           0        8.803753    1.903071    0.057347
    125          1           0       10.544925   -0.110266   -0.794647
    126          1           0        8.887504   -0.213520    0.014284
    127          1           0       10.401740   -0.338304    0.922862
    128          1           0       10.713030    3.143761    1.373074
    129          1           0       11.454910    1.540540    1.636323
    130          1           0        8.781495    1.338428    2.545167
    131          1           0        9.234244    2.968824    3.086415
    132          1           0       11.595302    1.654402    3.891483
    133          1           0       10.350185    0.416886    3.896122
    134          1           0        9.673830    2.845174    5.469343
    135          1           0       11.724222    0.833855    5.863540
    136          1           0       10.604389    0.851225    7.295700
    137          1           0       11.421391    2.332211    6.766522
    138          1           0        7.956533    1.794927    6.120057
    139          1           0        8.687372    0.204707    6.375365
    140          1           0        8.161686    0.599316    4.726812
 ---------------------------------------------------------------------

 SCF Done:  E(RB-LYP) =  -3007.33182575     A.U. after   21 cycles

 Excitation energies and oscillator strengths:

 Excited State   1:      Singlet-A      1.8066 eV  686.30 nm  f=0.2292  <S**2>=0.000
     243 -> 247       -0.12566
     244 -> 247        0.23565
     245 -> 248       -0.19426
     246 -> 247        0.63417
     246 <- 247       -0.12861
 This state for optimization and/or second-order correction.
 Total Energy, E(TD-HF/TD-DFT) =  -3007.26543572
 Copying the excited state density for this state as the 1-particle RhoCI density.

 Excited State   2:      Singlet-A      1.8099 eV  685.02 nm  f=0.0287  <S**2>=0.000
     244 -> 247        0.66315
     246 -> 247       -0.21910

 Excited State   3:      Singlet-A      1.8805 eV  659.31 nm  f=0.0192  <S**2>=0.000
     243 -> 247        0.67691
     245 -> 247       -0.13643
     246 -> 247        0.13585

 Excited State   4:      Singlet-A      1.9911 eV  622.70 nm  f=0.0876  <S**2>=0.000
     243 -> 247        0.14484
     245 -> 247        0.63474
     246 -> 248        0.24291

 Excited State   5:      Singlet-A      2.4050 eV  515.54 nm  f=0.0001  <S**2>=0.000
     241 -> 247        0.70696

 The electronic state is 1-A.
 Alpha  occ. eigenvalues --  -46.26575 -18.82737 -18.81982 -18.77278 -18.76372
 Alpha  occ. eigenvalues --  -18.75735 -18.75048 -14.03403 -14.03135 -14.00795
 Alpha  occ. eigenvalues --  -14.00583 -10.04088 -10.03950 -10.00388  -9.98934
 Alpha  occ. eigenvalues --   -9.98732  -9.98365  -9.96890  -9.96820  -9.96666
 Alpha  occ. eigenvalues --   -9.96105  -9.95886  -9.95777  -9.95027  -9.94727
 Alpha  occ. eigenvalues --   -9.94599  -9.94474  -9.94337  -9.94210  -9.94111
 Alpha  occ. eigenvalues --   -9.94084  -9.94079  -9.93968  -9.93567  -9.93412
 Alpha  occ. eigenvalues --   -9.93286  -9.93049  -9.93001  -9.92783  -9.92584
 Alpha  occ. eigenvalues --   -9.92578  -9.92573  -9.92485  -9.92462  -9.92268
 Alpha  occ. eigenvalues --   -9.92195  -9.92125  -9.91944  -9.91848  -9.91704
 Alpha  occ. eigenvalues --   -9.91690  -9.91654  -9.91633  -9.91515  -9.91506
 Alpha  occ. eigenvalues --   -9.91503  -9.91479  -9.91186  -9.91092  -9.90870
 Alpha  occ. eigenvalues --   -9.90780  -9.90697  -9.90693  -9.90487  -9.90478
 Alpha  occ. eigenvalues --   -9.90328  -2.91263  -1.71701  -1.71189  -1.70929
 Alpha  occ. eigenvalues --   -0.98151  -0.97981  -0.90519  -0.90496  -0.90114
 Alpha  occ. eigenvalues --   -0.89380  -0.86875  -0.86001  -0.84869  -0.84224
 Alpha  occ. eigenvalues --   -0.75300  -0.74385  -0.73458  -0.72797  -0.72374
 Alpha  occ. eigenvalues --   -0.72279  -0.71864  -0.71038  -0.70898  -0.70473
 Alpha  occ. eigenvalues --   -0.69445  -0.69167  -0.68596  -0.68049  -0.67447
 Alpha  occ. eigenvalues --   -0.67003  -0.66310  -0.65504  -0.65214  -0.64664
 Alpha  occ. eigenvalues --   -0.64401  -0.62373  -0.62095  -0.61868  -0.61015
 Alpha  occ. eigenvalues --   -0.60755  -0.60040  -0.59869  -0.59861  -0.58796
 Alpha  occ. eigenvalues --   -0.58630  -0.57890  -0.57094  -0.56148  -0.54598
 Alpha  occ. eigenvalues --   -0.54246  -0.53976  -0.52979  -0.52341  -0.51991
 Alpha  occ. eigenvalues --   -0.51414  -0.51213  -0.50750  -0.50627  -0.50306
 Alpha  occ. eigenvalues --   -0.49879  -0.49468  -0.48663  -0.48659  -0.46729
 Alpha  occ. eigenvalues --   -0.46070  -0.45833  -0.45492  -0.45184  -0.44527
 Alpha  occ. eigenvalues --   -0.44286  -0.43850  -0.43162  -0.42603  -0.42428
 Alpha  occ. eigenvalues --   -0.42055  -0.42005  -0.41877  -0.41560  -0.41392
 Alpha  occ. eigenvalues --   -0.41124  -0.41013  -0.40690  -0.40381  -0.40204
 Alpha  occ. eigenvalues --   -0.40111  -0.39835  -0.39763  -0.39480  -0.39302
 Alpha  occ. eigenvalues --   -0.39132  -0.38803  -0.38626  -0.38360  -0.38205
 Alpha  occ. eigenvalues --   -0.38002  -0.37910  -0.37838  -0.37737  -0.37501
 Alpha  occ. eigenvalues --   -0.37314  -0.37187  -0.36938  -0.36879  -0.36609
 Alpha  occ. eigenvalues --   -0.36325  -0.36158  -0.35898  -0.35789  -0.35757
 Alpha  occ. eigenvalues --   -0.35434  -0.35325  -0.35190  -0.35134  -0.35006
 Alpha  occ. eigenvalues --   -0.34844  -0.34718  -0.34547  -0.34444  -0.34235
 Alpha  occ. eigenvalues --   -0.34026  -0.33962  -0.33654  -0.33581  -0.33439
 Alpha  occ. eigenvalues --   -0.32944  -0.32936  -0.32892  -0.32402  -0.32370
 Alpha  occ. eigenvalues --   -0.32135  -0.31987  -0.31802  -0.31563  -0.31497
 Alpha  occ. eigenvalues --   -0.31403  -0.31236  -0.30946  -0.30826  -0.30759
 Alpha  occ. eigenvalues --   -0.30512  -0.30368  -0.29970  -0.29894  -0.29770
 Alpha  occ. eigenvalues --   -0.29729  -0.29600  -0.29485  -0.29430  -0.29243
 Alpha  occ. eigenvalues --   -0.29144  -0.29010  -0.28382  -0.28263  -0.27541
 Alpha  occ. eigenvalues --   -0.27493  -0.27038  -0.26634  -0.26398  -0.26285
 Alpha  occ. eigenvalues --   -0.26237  -0.26222  -0.25667  -0.25448  -0.25302
 Alpha  occ. eigenvalues --   -0.25232  -0.25138  -0.24885  -0.23765  -0.23475
 Alpha  occ. eigenvalues --   -0.23115  -0.22438  -0.22163  -0.21335  -0.20570
 Alpha  occ. eigenvalues --   -0.20443  -0.20034  -0.18440  -0.18168  -0.17085
 Alpha  occ. eigenvalues --   -0.16005
 Alpha virt. eigenvalues --   -0.11605  -0.06990  -0.06039  -0.04566  -0.03402
 Alpha virt. eigenvalues --   -0.02441  -0.02174  -0.01972  -0.01056   0.00026
 Alpha virt. eigenvalues --    0.00711   0.00957   0.01578   0.02124   0.02386

 Mulliken charges:
               1
     1  Mg   0.689356
     2  C   -0.018991
     3  C   -0.043573
     4  C   -0.049480
     5  C   -0.093681
     6  N   -0.194127
     7  C   -0.096916
     8  C    0.080729
     9  C   -0.022234
    10  C    0.001609
    11  C    0.103764
    12  C    0.112244
    13  C    0.169667
    14  C    0.037233
    15  O   -0.149616
    16  O   -0.311706
    17  N   -0.335095
    18  C    0.151437
    19  C   -0.136835
    20  C    0.003313
    21  C    0.129055
    22  C    0.181756
    23  C   -0.038956
    24  O   -0.184609
    25  C    0.121419
    26  N   -0.229742
    27  C   -0.031922
    28  C    0.035614
    29  C    0.066535
    30  C    0.019193
    31  C    0.112330
    32  C    0.099197
    33  C    0.058899
    34  N   -0.282877
    35  C    0.142825
    36  C   -0.191829
    37  C    0.110734
    38  C    0.100727
    39  C    0.155624
    40  C   -0.058288
    41  O   -0.138530
    42  C    0.074082
    43  C    0.110474
    44  O   -0.182988
    45  O   -0.279103
    46  C    0.219356
    47  C    0.330454
    48  C   -0.096690
    49  C   -0.152854
    50  C    0.108765
    51  C    0.149687
    52  C    0.082658
    53  C    0.142693
    54  C   -0.059045
    55  C    0.099856
    56  C    0.141506
    57  C    0.073259
    58  C    0.098336
    59  C   -0.091314
    60  C    0.123362
    61  C    0.122081
    62  C    0.097889
    63  C    0.044475
    64  C   -0.134949
    65  C    0.101792
    66  C    0.096567
    67  H   -0.064883
    68  H   -0.051131
    69  H   -0.057581
    70  H   -0.024400
    71  H   -0.017780
    72  H    0.002446
    73  H   -0.001840
    74  H   -0.011867
    75  H   -0.008853
    76  H   -0.014624
    77  H   -0.005415
    78  H    0.002437
    79  H    0.007510
    80  H   -0.016017
    81  H   -0.006288
    82  H   -0.004499
    83  H    0.000511
    84  H    0.012728
    85  H   -0.013579
    86  H   -0.017782
    87  H   -0.007017
    88  H    0.004496
    89  H    0.008092
    90  H   -0.015279
    91  H   -0.020896
    92  H    0.002485
    93  H   -0.009883
    94  H   -0.022363
    95  H    0.002558
    96  H    0.008171
    97  H    0.010069
    98  H   -0.013461
    99  H    0.042491
   100  H    0.018430
   101  H    0.014481
   102  H    0.018417
   103  H   -0.000918
   104  H   -0.042846
   105  H    0.011864
   106  H    0.007696
   107  H   -0.028356
   108  H   -0.043327
   109  H   -0.024532
   110  H   -0.052958
   111  H   -0.042783
   112  H   -0.037261
   113  H   -0.036776
   114  H   -0.037553
   115  H   -0.031017
   116  H   -0.021309
   117  H   -0.020367
   118  H   -0.049792
   119  H   -0.043204
   120  H   -0.050876
   121  H   -0.040040
   122  H   -0.056959
   123  H   -0.043287
   124  H   -0.046823
   125  H   -0.013768
   126  H   -0.005087
   127  H   -0.022351
   128  H   -0.043149
   129  H   -0.022376
   130  H   -0.023954
   131  H   -0.026597
   132  H   -0.007595
   133  H   -0.033588
   134  H   -0.030023
   135  H   -0.019938
   136  H   -0.010965
   137  H   -0.016103
   138  H   -0.009221
   139  H   -0.013169
   140  H   -0.015182
 Sum of Mulliken charges =  -0.00000

 Dipole moment (field-independent basis, Debye):
    X=              4.4126    Y=              2.9506    Z=              0.1704  Tot=              5.3110
 Quadrupole moment (field-independent basis, Debye-Ang):
   XX=           -385.8248   YY=           -436.8528   ZZ=           -417.2913
   XY=            -26.6401   XZ=             13.1963   YZ=             -0.9598

 Normal termination of Gaussian 16 at Fri Apr 29 02:49:05 2022.
