 Gaussian 16, Revision A.03,
 Gaussian 16:  ES64L-G16RevA.03 25-Dec-2016

 -----------------------------------
 #p cam-b3lyp/Def2SVP td=(nstates=5)
 -----------------------------------

 --------------------------------------------------------
 step_1801_chromophore_27 TDDFT with cam-b3lyp functional
 --------------------------------------------------------
 Symbolic Z-matrix:
 Charge =  0 Multiplicity = 1

                         Standard orientation:
 ---------------------------------------------------------------------
 Center     Atomic      Atomic             Coordinates (Angstroms)
 Number     Number       Type             X           Y           Z
 ---------------------------------------------------------------------
      1         12           0       -4.652404    0.859954   -0.097035
      2          6           0       -3.783933   -2.624749    0.378204
      3          6           0       -1.223651    1.447745    0.119464
      4          6           0       -5.440988    4.128592   -0.484771
      5          6           0       -7.939524    0.076774    0.368294
      6          7           0       -2.699953   -0.513663    0.189629
      7          6           0       -2.613221   -1.910427    0.170662
      8          6           0       -1.178772   -2.348700   -0.136924
      9          6           0       -0.335349   -1.003734    0.047571
     10          6           0       -1.437866    0.018826    0.058538
     11          6           0        0.538351   -1.011898    1.389725
     12          6           0       -0.993592   -3.065133   -1.556460
     13          6           0       -0.263516   -4.405555   -1.542782
     14          6           0        1.082446   -4.379919   -2.190445
     15          8           0        1.437268   -4.955320   -3.181556
     16          8           0        1.970050   -3.749945   -1.333093
     17          7           0       -3.514021    2.580535   -0.172355
     18          6           0       -2.135238    2.588682   -0.094465
     19          6           0       -1.781008    3.971796   -0.102466
     20          6           0       -2.946651    4.769587   -0.203588
     21          6           0       -4.067244    3.853566   -0.352212
     22          6           0       -0.422358    4.376099   -0.178997
     23          6           0       -3.221422    6.281647   -0.295289
     24          8           0       -4.327354    6.801744   -0.563310
     25          6           0       -2.039728    7.181849    0.079945
     26          7           0       -6.360629    1.993290   -0.221568
     27          6           0       -6.550435    3.287305   -0.455914
     28          6           0       -7.942896    3.794972   -0.396179
     29          6           0       -8.770216    2.443337   -0.113342
     30          6           0       -7.620260    1.441912    0.002233
     31          6           0       -8.165690    4.903436    0.671676
     32          6           0       -9.811929    2.024670   -1.210979
     33          6           0      -11.224732    1.729049   -0.779514
     34          7           0       -5.708916   -0.881747    0.189879
     35          6           0       -7.048510   -1.008131    0.415714
     36          6           0       -7.338016   -2.355698    0.658107
     37          6           0       -6.123897   -3.002322    0.686457
     38          6           0       -5.108525   -2.108701    0.368761
     39          6           0       -8.781418   -2.881100    0.940933
     40          6           0       -5.514849   -4.296175    0.783201
     41          8           0       -6.016951   -5.380037    1.068617
     42          6           0       -3.933547   -4.130833    0.633389
     43          6           0       -3.292168   -4.563580    1.945725
     44          8           0       -3.825494   -4.440708    3.043065
     45          8           0       -2.042695   -5.055498    1.746791
     46          6           0       -1.307101   -5.555049    2.935005
     47          6           0        3.399529   -4.116574   -1.502641
     48          6           0        4.257432   -2.940586   -1.857025
     49          6           0        5.531306   -2.633154   -1.592875
     50          6           0        6.565576   -3.624415   -0.946136
     51          6           0        6.072725   -1.227879   -1.752816
     52          6           0        6.444141   -0.787577   -3.146640
     53          6           0        7.920981   -0.583093   -3.511359
     54          6           0        8.301761    0.862605   -3.952572
     55          6           0        8.314577    1.138616   -5.414839
     56          6           0        9.534722    1.416142   -3.332804
     57          6           0        9.420961    2.448332   -2.261483
     58          6           0       10.428073    2.323091   -1.146493
     59          6           0        9.856683    1.632522    0.136436
     60          6           0        9.919654    0.131404    0.065049
     61          6           0       10.518025    2.079366    1.500138
     62          6           0        9.617469    2.008447    2.741676
     63          6           0       10.517179    1.494177    3.923674
     64          6           0        9.901320    1.787163    5.337045
     65          6           0       10.980181    1.395330    6.428853
     66          6           0        8.556450    1.012184    5.655428
     67          1           0       -0.163240    1.687463    0.223894
     68          1           0       -5.767161    5.170242   -0.500564
     69          1           0       -8.972341   -0.120787    0.665455
     70          1           0       -0.788173   -3.002843    0.643366
     71          1           0        0.388184   -0.674113   -0.697756
     72          1           0        0.326986   -0.194103    2.079318
     73          1           0        1.589650   -0.974792    1.105266
     74          1           0        0.372568   -1.956197    1.909225
     75          1           0       -0.473982   -2.406566   -2.253425
     76          1           0       -1.992737   -3.219717   -1.964551
     77          1           0       -0.939924   -5.119048   -2.013407
     78          1           0       -0.039032   -4.697718   -0.516943
     79          1           0       -0.331296    5.029085   -1.047318
     80          1           0        0.336901    3.596073   -0.229616
     81          1           0       -0.254500    4.992464    0.704279
     82          1           0       -2.177960    8.262727    0.110730
     83          1           0       -1.240454    6.949675   -0.622951
     84          1           0       -1.842376    6.775747    1.072201
     85          1           0       -8.034986    4.241319   -1.385915
     86          1           0       -9.172326    2.547254    0.893820
     87          1           0       -7.444901    4.790430    1.481625
     88          1           0       -9.167495    5.009346    1.086562
     89          1           0       -7.812393    5.824573    0.207011
     90          1           0       -9.467048    1.100497   -1.675078
     91          1           0       -9.912761    2.742053   -2.025164
     92          1           0      -11.403938    0.653786   -0.774929
     93          1           0      -11.962175    2.284241   -1.358703
     94          1           0      -11.382916    2.112026    0.227745
     95          1           0       -9.565074   -2.682732    0.210803
     96          1           0       -9.069874   -2.572183    1.945864
     97          1           0       -8.493177   -3.932355    0.933426
     98          1           0       -3.514713   -4.729952   -0.174908
     99          1           0       -1.883061   -6.225650    3.573132
    100          1           0       -0.994068   -4.618836    3.396892
    101          1           0       -0.441935   -6.046759    2.492539
    102          1           0        3.621742   -4.823598   -2.302117
    103          1           0        3.619619   -4.536892   -0.521198
    104          1           0        3.671185   -2.117276   -2.264171
    105          1           0        6.990501   -3.208682   -0.032222
    106          1           0        7.214114   -3.872536   -1.786157
    107          1           0        6.255763   -4.624341   -0.642695
    108          1           0        6.970138   -1.162666   -1.137426
    109          1           0        5.392306   -0.490912   -1.326629
    110          1           0        5.916090    0.133653   -3.392934
    111          1           0        5.852239   -1.365044   -3.857209
    112          1           0        8.244761   -1.258055   -4.303477
    113          1           0        8.507498   -0.912947   -2.653522
    114          1           0        7.436208    1.444103   -3.633049
    115          1           0        8.376124    0.170207   -5.910515
    116          1           0        9.126825    1.688460   -5.889883
    117          1           0        7.452711    1.694456   -5.784106
    118          1           0       10.139782    1.923343   -4.084080
    119          1           0       10.244186    0.636196   -3.056697
    120          1           0        8.375758    2.429622   -1.953246
    121          1           0        9.455899    3.503705   -2.531834
    122          1           0       10.839432    3.302549   -0.902238
    123          1           0       11.319457    1.851068   -1.560445
    124          1           0        8.803753    1.903071    0.057347
    125          1           0       10.544925   -0.110266   -0.794647
    126          1           0        8.887504   -0.213520    0.014284
    127          1           0       10.401740   -0.338304    0.922862
    128          1           0       10.713030    3.143761    1.373074
    129          1           0       11.454910    1.540540    1.636323
    130          1           0        8.781495    1.338428    2.545167
    131          1           0        9.234244    2.968824    3.086415
    132          1           0       11.595302    1.654402    3.891483
    133          1           0       10.350185    0.416886    3.896122
    134          1           0        9.673830    2.845174    5.469343
    135          1           0       11.724222    0.833855    5.863540
    136          1           0       10.604389    0.851225    7.295700
    137          1           0       11.421391    2.332211    6.766522
    138          1           0        7.956533    1.794927    6.120057
    139          1           0        8.687372    0.204707    6.375365
    140          1           0        8.161686    0.599316    4.726812
 ---------------------------------------------------------------------

 SCF Done:  E(RCAM-B3LYP) =  -3007.12439079     A.U. after   19 cycles

 Excitation energies and oscillator strengths:

 Excited State   1:      Singlet-A      1.7077 eV  726.02 nm  f=0.3455  <S**2>=0.000
     245 -> 248        0.19343
     246 -> 247        0.68225
     245 <- 248        0.11214
 This state for optimization and/or second-order correction.
 Total Energy, E(TD-HF/TD-DFT) =  -3007.06163285
 Copying the excited state density for this state as the 1-particle RhoCI density.

 Excited State   2:      Singlet-A      2.1807 eV  568.56 nm  f=0.1292  <S**2>=0.000
     245 -> 247        0.64515
     246 -> 248       -0.27806

 Excited State   3:      Singlet-A      3.2353 eV  383.22 nm  f=0.0020  <S**2>=0.000
     243 -> 247        0.23635
     244 -> 247        0.63904
     246 -> 248        0.13001

 Excited State   4:      Singlet-A      3.4800 eV  356.28 nm  f=0.0418  <S**2>=0.000
     242 -> 247        0.45066
     242 -> 249       -0.19363
     242 -> 250       -0.17759
     243 -> 247       -0.32231
     244 -> 247        0.19512
     246 -> 248       -0.23942

 Excited State   5:      Singlet-A      3.4889 eV  355.37 nm  f=0.0309  <S**2>=0.000
     242 -> 247        0.35517
     242 -> 249       -0.19539
     242 -> 250       -0.17814
     243 -> 247        0.44224
     244 -> 247       -0.19214
     246 -> 248        0.20171

 The electronic state is 1-A.
 Alpha  occ. eigenvalues --  -46.88092 -19.25632 -19.24838 -19.20274 -19.19326
 Alpha  occ. eigenvalues --  -19.19153 -19.18044 -14.42264 -14.42124 -14.39301
 Alpha  occ. eigenvalues --  -14.38837 -10.39285 -10.39260 -10.35924 -10.34080
 Alpha  occ. eigenvalues --  -10.32754 -10.32417 -10.31502 -10.31241 -10.31050
 Alpha  occ. eigenvalues --  -10.30748 -10.30466 -10.30449 -10.29096 -10.28766
 Alpha  occ. eigenvalues --  -10.28662 -10.28491 -10.28446 -10.28346 -10.28321
 Alpha  occ. eigenvalues --  -10.28284 -10.28255 -10.28043 -10.27969 -10.27483
 Alpha  occ. eigenvalues --  -10.27442 -10.27184 -10.27042 -10.26766 -10.26605
 Alpha  occ. eigenvalues --  -10.26518 -10.26501 -10.26400 -10.26190 -10.26163
 Alpha  occ. eigenvalues --  -10.26021 -10.25998 -10.25851 -10.25573 -10.25515
 Alpha  occ. eigenvalues --  -10.25424 -10.25395 -10.25383 -10.25247 -10.25190
 Alpha  occ. eigenvalues --  -10.25178 -10.25139 -10.24906 -10.24746 -10.24569
 Alpha  occ. eigenvalues --  -10.24432 -10.24325 -10.24305 -10.24299 -10.24070
 Alpha  occ. eigenvalues --  -10.23932  -3.16689  -1.91601  -1.91181  -1.90953
 Alpha  occ. eigenvalues --   -1.16643  -1.16424  -1.08711  -1.08659  -1.08336
 Alpha  occ. eigenvalues --   -1.07246  -1.04588  -1.03487  -1.02552  -1.01877
 Alpha  occ. eigenvalues --   -0.92327  -0.91300  -0.90295  -0.89527  -0.89171
 Alpha  occ. eigenvalues --   -0.89016  -0.88578  -0.87693  -0.87520  -0.87062
 Alpha  occ. eigenvalues --   -0.85842  -0.85491  -0.84933  -0.84179  -0.83601
 Alpha  occ. eigenvalues --   -0.83074  -0.82583  -0.81443  -0.81073  -0.80489
 Alpha  occ. eigenvalues --   -0.80257  -0.77936  -0.77838  -0.77450  -0.76418
 Alpha  occ. eigenvalues --   -0.76160  -0.75414  -0.75232  -0.75159  -0.74011
 Alpha  occ. eigenvalues --   -0.73702  -0.72850  -0.72044  -0.70992  -0.69207
 Alpha  occ. eigenvalues --   -0.68849  -0.68499  -0.67424  -0.66758  -0.66066
 Alpha  occ. eigenvalues --   -0.65668  -0.65511  -0.64865  -0.64694  -0.64184
 Alpha  occ. eigenvalues --   -0.63581  -0.63469  -0.62598  -0.62314  -0.60258
 Alpha  occ. eigenvalues --   -0.59736  -0.59468  -0.58970  -0.58500  -0.57978
 Alpha  occ. eigenvalues --   -0.57850  -0.57157  -0.56324  -0.55840  -0.55544
 Alpha  occ. eigenvalues --   -0.55066  -0.54970  -0.54786  -0.54578  -0.54195
 Alpha  occ. eigenvalues --   -0.53997  -0.53869  -0.53435  -0.53251  -0.52936
 Alpha  occ. eigenvalues --   -0.52636  -0.52386  -0.52314  -0.52161  -0.52020
 Alpha  occ. eigenvalues --   -0.51607  -0.51483  -0.51318  -0.50859  -0.50650
 Alpha  occ. eigenvalues --   -0.50534  -0.50350  -0.50231  -0.50140  -0.49882
 Alpha  occ. eigenvalues --   -0.49712  -0.49497  -0.49347  -0.48997  -0.48686
 Alpha  occ. eigenvalues --   -0.48559  -0.48287  -0.48121  -0.47839  -0.47774
 Alpha  occ. eigenvalues --   -0.47641  -0.47453  -0.47319  -0.47161  -0.46992
 Alpha  occ. eigenvalues --   -0.46959  -0.46617  -0.46398  -0.46357  -0.46124
 Alpha  occ. eigenvalues --   -0.45987  -0.45776  -0.45426  -0.45304  -0.45256
 Alpha  occ. eigenvalues --   -0.44740  -0.44586  -0.44494  -0.44245  -0.44043
 Alpha  occ. eigenvalues --   -0.43715  -0.43585  -0.43459  -0.43261  -0.43192
 Alpha  occ. eigenvalues --   -0.43040  -0.42795  -0.42518  -0.42285  -0.42237
 Alpha  occ. eigenvalues --   -0.41908  -0.41802  -0.41678  -0.41413  -0.40929
 Alpha  occ. eigenvalues --   -0.40893  -0.40803  -0.40639  -0.40526  -0.40483
 Alpha  occ. eigenvalues --   -0.40286  -0.40074  -0.39366  -0.39187  -0.38649
 Alpha  occ. eigenvalues --   -0.38363  -0.37929  -0.37541  -0.37273  -0.37228
 Alpha  occ. eigenvalues --   -0.37055  -0.37001  -0.36731  -0.36598  -0.36423
 Alpha  occ. eigenvalues --   -0.36369  -0.35926  -0.35485  -0.34678  -0.34303
 Alpha  occ. eigenvalues --   -0.34241  -0.33507  -0.32879  -0.30994  -0.30770
 Alpha  occ. eigenvalues --   -0.30226  -0.30096  -0.29842  -0.29380  -0.23750
 Alpha  occ. eigenvalues --   -0.21381
 Alpha virt. eigenvalues --   -0.08759  -0.01893   0.00487   0.02526   0.03633
 Alpha virt. eigenvalues --    0.04124   0.05173   0.05273   0.05551   0.06435
 Alpha virt. eigenvalues --    0.07625   0.07874   0.08333   0.08432   0.08869

 Mulliken charges:
               1
     1  Mg   0.823009
     2  C   -0.044615
     3  C   -0.059792
     4  C   -0.074615
     5  C   -0.097648
     6  N   -0.254038
     7  C   -0.062868
     8  C    0.034043
     9  C   -0.072195
    10  C    0.023874
    11  C    0.051142
    12  C    0.060260
    13  C    0.094327
    14  C    0.121964
    15  O   -0.192211
    16  O   -0.375089
    17  N   -0.425471
    18  C    0.167363
    19  C   -0.139822
    20  C   -0.061038
    21  C    0.155589
    22  C    0.110458
    23  C    0.043049
    24  O   -0.225540
    25  C    0.043207
    26  N   -0.305249
    27  C    0.002767
    28  C   -0.020348
    29  C    0.003053
    30  C    0.036770
    31  C    0.051906
    32  C    0.042194
    33  C   -0.002591
    34  N   -0.374336
    35  C    0.145546
    36  C   -0.189591
    37  C    0.028887
    38  C    0.131944
    39  C    0.108704
    40  C    0.036139
    41  O   -0.178290
    42  C    0.004799
    43  C    0.200935
    44  O   -0.221418
    45  O   -0.345511
    46  C    0.181196
    47  C    0.293480
    48  C   -0.114996
    49  C   -0.178382
    50  C    0.050551
    51  C    0.093394
    52  C    0.023392
    53  C    0.092016
    54  C   -0.121144
    55  C    0.042487
    56  C    0.080694
    57  C    0.020950
    58  C    0.041525
    59  C   -0.142640
    60  C    0.065839
    61  C    0.065567
    62  C    0.047921
    63  C   -0.014186
    64  C   -0.185123
    65  C    0.043525
    66  C    0.037406
    67  H   -0.031715
    68  H   -0.009551
    69  H   -0.021916
    70  H    0.009212
    71  H    0.016089
    72  H    0.027460
    73  H    0.021998
    74  H    0.010909
    75  H    0.020591
    76  H    0.017328
    77  H    0.028485
    78  H    0.033392
    79  H    0.034206
    80  H    0.015026
    81  H    0.022225
    82  H    0.031205
    83  H    0.026547
    84  H    0.037779
    85  H    0.021500
    86  H    0.017219
    87  H    0.019628
    88  H    0.029844
    89  H    0.030967
    90  H    0.016042
    91  H    0.008006
    92  H    0.023934
    93  H    0.014838
    94  H    0.000695
    95  H    0.026050
    96  H    0.032768
    97  H    0.036386
    98  H    0.027723
    99  H    0.066029
   100  H    0.040207
   101  H    0.036848
   102  H    0.051435
   103  H    0.026670
   104  H   -0.010726
   105  H    0.034273
   106  H    0.030648
   107  H   -0.002123
   108  H   -0.017132
   109  H    0.006908
   110  H   -0.021795
   111  H   -0.010883
   112  H   -0.007580
   113  H   -0.010045
   114  H   -0.005164
   115  H   -0.006994
   116  H    0.004745
   117  H    0.004220
   118  H   -0.016920
   119  H   -0.014366
   120  H   -0.022934
   121  H   -0.009274
   122  H   -0.023831
   123  H   -0.014284
   124  H   -0.014517
   125  H    0.008620
   126  H    0.012635
   127  H    0.003094
   128  H   -0.012979
   129  H    0.005031
   130  H    0.001145
   131  H    0.001339
   132  H    0.020196
   133  H   -0.006531
   134  H   -0.000507
   135  H    0.003706
   136  H    0.012881
   137  H    0.007873
   138  H    0.014461
   139  H    0.010573
   140  H    0.007052
 Sum of Mulliken charges =  -0.00000

 Dipole moment (field-independent basis, Debye):
    X=              5.0943    Y=              3.7230    Z=              0.1354  Tot=              6.3112
 Quadrupole moment (field-independent basis, Debye-Ang):
   XX=           -387.1400   YY=           -432.5755   ZZ=           -417.9064
   XY=            -28.6651   XZ=             14.2095   YZ=             -1.1467

 Normal termination of Gaussian 16 at Fri Apr 29 01:44:36 2022.
