 Gaussian 16, Revision A.03,
 Gaussian 16:  ES64L-G16RevA.03 25-Dec-2016

 ---------------------------------
 #p PBE1PBE/Def2SVP td=(nstates=5)
 ---------------------------------

 ------------------------------------------------------
 step_1801_chromophore_27 TDDFT with PBE1PBE functional
 ------------------------------------------------------
 Symbolic Z-matrix:
 Charge =  0 Multiplicity = 1

                         Standard orientation:
 ---------------------------------------------------------------------
 Center     Atomic      Atomic             Coordinates (Angstroms)
 Number     Number       Type             X           Y           Z
 ---------------------------------------------------------------------
      1         12           0       -4.652404    0.859954   -0.097035
      2          6           0       -3.783933   -2.624749    0.378204
      3          6           0       -1.223651    1.447745    0.119464
      4          6           0       -5.440988    4.128592   -0.484771
      5          6           0       -7.939524    0.076774    0.368294
      6          7           0       -2.699953   -0.513663    0.189629
      7          6           0       -2.613221   -1.910427    0.170662
      8          6           0       -1.178772   -2.348700   -0.136924
      9          6           0       -0.335349   -1.003734    0.047571
     10          6           0       -1.437866    0.018826    0.058538
     11          6           0        0.538351   -1.011898    1.389725
     12          6           0       -0.993592   -3.065133   -1.556460
     13          6           0       -0.263516   -4.405555   -1.542782
     14          6           0        1.082446   -4.379919   -2.190445
     15          8           0        1.437268   -4.955320   -3.181556
     16          8           0        1.970050   -3.749945   -1.333093
     17          7           0       -3.514021    2.580535   -0.172355
     18          6           0       -2.135238    2.588682   -0.094465
     19          6           0       -1.781008    3.971796   -0.102466
     20          6           0       -2.946651    4.769587   -0.203588
     21          6           0       -4.067244    3.853566   -0.352212
     22          6           0       -0.422358    4.376099   -0.178997
     23          6           0       -3.221422    6.281647   -0.295289
     24          8           0       -4.327354    6.801744   -0.563310
     25          6           0       -2.039728    7.181849    0.079945
     26          7           0       -6.360629    1.993290   -0.221568
     27          6           0       -6.550435    3.287305   -0.455914
     28          6           0       -7.942896    3.794972   -0.396179
     29          6           0       -8.770216    2.443337   -0.113342
     30          6           0       -7.620260    1.441912    0.002233
     31          6           0       -8.165690    4.903436    0.671676
     32          6           0       -9.811929    2.024670   -1.210979
     33          6           0      -11.224732    1.729049   -0.779514
     34          7           0       -5.708916   -0.881747    0.189879
     35          6           0       -7.048510   -1.008131    0.415714
     36          6           0       -7.338016   -2.355698    0.658107
     37          6           0       -6.123897   -3.002322    0.686457
     38          6           0       -5.108525   -2.108701    0.368761
     39          6           0       -8.781418   -2.881100    0.940933
     40          6           0       -5.514849   -4.296175    0.783201
     41          8           0       -6.016951   -5.380037    1.068617
     42          6           0       -3.933547   -4.130833    0.633389
     43          6           0       -3.292168   -4.563580    1.945725
     44          8           0       -3.825494   -4.440708    3.043065
     45          8           0       -2.042695   -5.055498    1.746791
     46          6           0       -1.307101   -5.555049    2.935005
     47          6           0        3.399529   -4.116574   -1.502641
     48          6           0        4.257432   -2.940586   -1.857025
     49          6           0        5.531306   -2.633154   -1.592875
     50          6           0        6.565576   -3.624415   -0.946136
     51          6           0        6.072725   -1.227879   -1.752816
     52          6           0        6.444141   -0.787577   -3.146640
     53          6           0        7.920981   -0.583093   -3.511359
     54          6           0        8.301761    0.862605   -3.952572
     55          6           0        8.314577    1.138616   -5.414839
     56          6           0        9.534722    1.416142   -3.332804
     57          6           0        9.420961    2.448332   -2.261483
     58          6           0       10.428073    2.323091   -1.146493
     59          6           0        9.856683    1.632522    0.136436
     60          6           0        9.919654    0.131404    0.065049
     61          6           0       10.518025    2.079366    1.500138
     62          6           0        9.617469    2.008447    2.741676
     63          6           0       10.517179    1.494177    3.923674
     64          6           0        9.901320    1.787163    5.337045
     65          6           0       10.980181    1.395330    6.428853
     66          6           0        8.556450    1.012184    5.655428
     67          1           0       -0.163240    1.687463    0.223894
     68          1           0       -5.767161    5.170242   -0.500564
     69          1           0       -8.972341   -0.120787    0.665455
     70          1           0       -0.788173   -3.002843    0.643366
     71          1           0        0.388184   -0.674113   -0.697756
     72          1           0        0.326986   -0.194103    2.079318
     73          1           0        1.589650   -0.974792    1.105266
     74          1           0        0.372568   -1.956197    1.909225
     75          1           0       -0.473982   -2.406566   -2.253425
     76          1           0       -1.992737   -3.219717   -1.964551
     77          1           0       -0.939924   -5.119048   -2.013407
     78          1           0       -0.039032   -4.697718   -0.516943
     79          1           0       -0.331296    5.029085   -1.047318
     80          1           0        0.336901    3.596073   -0.229616
     81          1           0       -0.254500    4.992464    0.704279
     82          1           0       -2.177960    8.262727    0.110730
     83          1           0       -1.240454    6.949675   -0.622951
     84          1           0       -1.842376    6.775747    1.072201
     85          1           0       -8.034986    4.241319   -1.385915
     86          1           0       -9.172326    2.547254    0.893820
     87          1           0       -7.444901    4.790430    1.481625
     88          1           0       -9.167495    5.009346    1.086562
     89          1           0       -7.812393    5.824573    0.207011
     90          1           0       -9.467048    1.100497   -1.675078
     91          1           0       -9.912761    2.742053   -2.025164
     92          1           0      -11.403938    0.653786   -0.774929
     93          1           0      -11.962175    2.284241   -1.358703
     94          1           0      -11.382916    2.112026    0.227745
     95          1           0       -9.565074   -2.682732    0.210803
     96          1           0       -9.069874   -2.572183    1.945864
     97          1           0       -8.493177   -3.932355    0.933426
     98          1           0       -3.514713   -4.729952   -0.174908
     99          1           0       -1.883061   -6.225650    3.573132
    100          1           0       -0.994068   -4.618836    3.396892
    101          1           0       -0.441935   -6.046759    2.492539
    102          1           0        3.621742   -4.823598   -2.302117
    103          1           0        3.619619   -4.536892   -0.521198
    104          1           0        3.671185   -2.117276   -2.264171
    105          1           0        6.990501   -3.208682   -0.032222
    106          1           0        7.214114   -3.872536   -1.786157
    107          1           0        6.255763   -4.624341   -0.642695
    108          1           0        6.970138   -1.162666   -1.137426
    109          1           0        5.392306   -0.490912   -1.326629
    110          1           0        5.916090    0.133653   -3.392934
    111          1           0        5.852239   -1.365044   -3.857209
    112          1           0        8.244761   -1.258055   -4.303477
    113          1           0        8.507498   -0.912947   -2.653522
    114          1           0        7.436208    1.444103   -3.633049
    115          1           0        8.376124    0.170207   -5.910515
    116          1           0        9.126825    1.688460   -5.889883
    117          1           0        7.452711    1.694456   -5.784106
    118          1           0       10.139782    1.923343   -4.084080
    119          1           0       10.244186    0.636196   -3.056697
    120          1           0        8.375758    2.429622   -1.953246
    121          1           0        9.455899    3.503705   -2.531834
    122          1           0       10.839432    3.302549   -0.902238
    123          1           0       11.319457    1.851068   -1.560445
    124          1           0        8.803753    1.903071    0.057347
    125          1           0       10.544925   -0.110266   -0.794647
    126          1           0        8.887504   -0.213520    0.014284
    127          1           0       10.401740   -0.338304    0.922862
    128          1           0       10.713030    3.143761    1.373074
    129          1           0       11.454910    1.540540    1.636323
    130          1           0        8.781495    1.338428    2.545167
    131          1           0        9.234244    2.968824    3.086415
    132          1           0       11.595302    1.654402    3.891483
    133          1           0       10.350185    0.416886    3.896122
    134          1           0        9.673830    2.845174    5.469343
    135          1           0       11.724222    0.833855    5.863540
    136          1           0       10.604389    0.851225    7.295700
    137          1           0       11.421391    2.332211    6.766522
    138          1           0        7.956533    1.794927    6.120057
    139          1           0        8.687372    0.204707    6.375365
    140          1           0        8.161686    0.599316    4.726812
 ---------------------------------------------------------------------

 SCF Done:  E(RPBE1PBE) =  -3005.31322681     A.U. after   16 cycles

 Excitation energies and oscillator strengths:

 Excited State   1:      Singlet-A      1.8599 eV  666.61 nm  f=0.3325  <S**2>=0.000
     245 -> 248       -0.18829
     246 -> 247        0.68838
 This state for optimization and/or second-order correction.
 Total Energy, E(TD-HF/TD-DFT) =  -3005.24487635
 Copying the excited state density for this state as the 1-particle RhoCI density.

 Excited State   2:      Singlet-A      2.1952 eV  564.79 nm  f=0.1232  <S**2>=0.000
     245 -> 247        0.65453
     246 -> 248        0.25770

 Excited State   3:      Singlet-A      2.9017 eV  427.28 nm  f=0.0011  <S**2>=0.000
     243 -> 247        0.35765
     243 -> 249        0.10243
     244 -> 247        0.57977

 Excited State   4:      Singlet-A      2.9168 eV  425.07 nm  f=0.0008  <S**2>=0.000
     242 -> 247        0.11933
     243 -> 247        0.57424
     243 -> 249        0.10543
     244 -> 247       -0.35153

 Excited State   5:      Singlet-A      3.0236 eV  410.06 nm  f=0.0001  <S**2>=0.000
     240 -> 247        0.36030
     242 -> 247        0.55679
     244 -> 247        0.16274

 The electronic state is 1-A.
 Alpha  occ. eigenvalues --  -46.91499 -19.26310 -19.25567 -19.20563 -19.19611
 Alpha  occ. eigenvalues --  -19.19272 -19.18417 -14.41804 -14.41611 -14.38949
 Alpha  occ. eigenvalues --  -14.38605 -10.36343 -10.36331 -10.32955 -10.31366
 Alpha  occ. eigenvalues --  -10.29995 -10.29838 -10.29147 -10.29109 -10.28894
 Alpha  occ. eigenvalues --  -10.28272 -10.28019 -10.27977 -10.26975 -10.26573
 Alpha  occ. eigenvalues --  -10.26551 -10.26321 -10.26229 -10.26159 -10.26123
 Alpha  occ. eigenvalues --  -10.25948 -10.25851 -10.25663 -10.25635 -10.25153
 Alpha  occ. eigenvalues --  -10.24975 -10.24794 -10.24759 -10.24529 -10.24255
 Alpha  occ. eigenvalues --  -10.23898 -10.23865 -10.23783 -10.23718 -10.23650
 Alpha  occ. eigenvalues --  -10.23567 -10.23545 -10.23373 -10.23234 -10.23105
 Alpha  occ. eigenvalues --  -10.23084 -10.22951 -10.22944 -10.22856 -10.22828
 Alpha  occ. eigenvalues --  -10.22689 -10.22651 -10.22468 -10.22161 -10.22140
 Alpha  occ. eigenvalues --  -10.22131 -10.21839 -10.21836 -10.21673 -10.21468
 Alpha  occ. eigenvalues --  -10.21449  -3.13676  -1.86529  -1.86087  -1.85863
 Alpha  occ. eigenvalues --   -1.11476  -1.11238  -1.03567  -1.03248  -1.03246
 Alpha  occ. eigenvalues --   -1.02119  -0.99223  -0.98275  -0.97125  -0.96441
 Alpha  occ. eigenvalues --   -0.86766  -0.85412  -0.84444  -0.83717  -0.83395
 Alpha  occ. eigenvalues --   -0.83143  -0.82834  -0.81969  -0.81620  -0.81380
 Alpha  occ. eigenvalues --   -0.80097  -0.79949  -0.79122  -0.78503  -0.77839
 Alpha  occ. eigenvalues --   -0.77325  -0.76749  -0.75686  -0.75305  -0.74740
 Alpha  occ. eigenvalues --   -0.74519  -0.72247  -0.72112  -0.71778  -0.70576
 Alpha  occ. eigenvalues --   -0.70515  -0.69538  -0.69515  -0.69307  -0.68196
 Alpha  occ. eigenvalues --   -0.68023  -0.67333  -0.66438  -0.65338  -0.63590
 Alpha  occ. eigenvalues --   -0.63101  -0.62962  -0.61641  -0.61211  -0.60515
 Alpha  occ. eigenvalues --   -0.59969  -0.59864  -0.59262  -0.58990  -0.58782
 Alpha  occ. eigenvalues --   -0.58146  -0.57629  -0.56926  -0.56785  -0.54614
 Alpha  occ. eigenvalues --   -0.54202  -0.53975  -0.53599  -0.53149  -0.52413
 Alpha  occ. eigenvalues --   -0.52299  -0.51810  -0.50929  -0.50305  -0.50037
 Alpha  occ. eigenvalues --   -0.49682  -0.49502  -0.49421  -0.48984  -0.48677
 Alpha  occ. eigenvalues --   -0.48596  -0.48345  -0.47914  -0.47699  -0.47380
 Alpha  occ. eigenvalues --   -0.47170  -0.47015  -0.46846  -0.46751  -0.46531
 Alpha  occ. eigenvalues --   -0.46205  -0.45983  -0.45940  -0.45453  -0.45170
 Alpha  occ. eigenvalues --   -0.45050  -0.44918  -0.44811  -0.44748  -0.44463
 Alpha  occ. eigenvalues --   -0.44299  -0.44049  -0.43966  -0.43577  -0.43336
 Alpha  occ. eigenvalues --   -0.43263  -0.42888  -0.42771  -0.42530  -0.42453
 Alpha  occ. eigenvalues --   -0.42364  -0.42081  -0.41985  -0.41787  -0.41633
 Alpha  occ. eigenvalues --   -0.41576  -0.41276  -0.41157  -0.41008  -0.40798
 Alpha  occ. eigenvalues --   -0.40592  -0.40381  -0.40211  -0.40106  -0.39998
 Alpha  occ. eigenvalues --   -0.39575  -0.39408  -0.39153  -0.39063  -0.38881
 Alpha  occ. eigenvalues --   -0.38583  -0.38285  -0.38142  -0.38022  -0.37952
 Alpha  occ. eigenvalues --   -0.37825  -0.37550  -0.37371  -0.37152  -0.36966
 Alpha  occ. eigenvalues --   -0.36812  -0.36758  -0.36468  -0.36280  -0.35805
 Alpha  occ. eigenvalues --   -0.35657  -0.35576  -0.35559  -0.35366  -0.35327
 Alpha  occ. eigenvalues --   -0.35179  -0.34875  -0.34280  -0.34086  -0.33619
 Alpha  occ. eigenvalues --   -0.33096  -0.32690  -0.32397  -0.32276  -0.32093
 Alpha  occ. eigenvalues --   -0.32027  -0.31874  -0.31649  -0.31624  -0.31455
 Alpha  occ. eigenvalues --   -0.31257  -0.30719  -0.30333  -0.29763  -0.29267
 Alpha  occ. eigenvalues --   -0.29228  -0.28444  -0.28354  -0.26657  -0.25604
 Alpha  occ. eigenvalues --   -0.25479  -0.25433  -0.25063  -0.24918  -0.20732
 Alpha  occ. eigenvalues --   -0.18986
 Alpha virt. eigenvalues --   -0.11217  -0.05383  -0.03743  -0.01950  -0.00311
 Alpha virt. eigenvalues --    0.00573   0.00865   0.00964   0.01267   0.02857
 Alpha virt. eigenvalues --    0.03525   0.04007   0.04370   0.05050   0.05302

 Mulliken charges:
               1
     1  Mg   0.975278
     2  C   -0.060686
     3  C   -0.055421
     4  C   -0.075940
     5  C   -0.081317
     6  N   -0.343435
     7  C    0.008123
     8  C   -0.036183
     9  C   -0.144551
    10  C    0.063754
    11  C   -0.004350
    12  C    0.012393
    13  C    0.011468
    14  C    0.193554
    15  O   -0.228465
    16  O   -0.402395
    17  N   -0.539170
    18  C    0.200104
    19  C   -0.190260
    20  C   -0.100635
    21  C    0.189181
    22  C    0.048124
    23  C    0.094414
    24  O   -0.264644
    25  C   -0.032080
    26  N   -0.411956
    27  C    0.047560
    28  C   -0.094670
    29  C   -0.077523
    30  C    0.067836
    31  C   -0.008961
    32  C   -0.014950
    33  C   -0.073805
    34  N   -0.507834
    35  C    0.167072
    36  C   -0.199604
    37  C   -0.034647
    38  C    0.186212
    39  C    0.051100
    40  C    0.132455
    41  O   -0.221293
    42  C   -0.101337
    43  C    0.294396
    44  O   -0.254814
    45  O   -0.379036
    46  C    0.124975
    47  C    0.250132
    48  C   -0.123302
    49  C   -0.223354
    50  C   -0.012732
    51  C    0.017098
    52  C   -0.033390
    53  C    0.037802
    54  C   -0.215191
    55  C   -0.010870
    56  C    0.025958
    57  C   -0.036911
    58  C   -0.016333
    59  C   -0.224971
    60  C    0.003890
    61  C    0.004091
    62  C   -0.011096
    63  C   -0.078834
    64  C   -0.268884
    65  C   -0.017872
    66  C   -0.024851
    67  H    0.001140
    68  H    0.024655
    69  H    0.011046
    70  H    0.051377
    71  H    0.051202
    72  H    0.054127
    73  H    0.048623
    74  H    0.037822
    75  H    0.053037
    76  H    0.050658
    77  H    0.060939
    78  H    0.066207
    79  H    0.061796
    80  H    0.041116
    81  H    0.050342
    82  H    0.057708
    83  H    0.053624
    84  H    0.065103
    85  H    0.058218
    86  H    0.053876
    87  H    0.048969
    88  H    0.057163
    89  H    0.058292
    90  H    0.049415
    91  H    0.040503
    92  H    0.050068
    93  H    0.042841
    94  H    0.028867
    95  H    0.053240
    96  H    0.061623
    97  H    0.066443
    98  H    0.064935
    99  H    0.086561
   100  H    0.062440
   101  H    0.058218
   102  H    0.078241
   103  H    0.053282
   104  H    0.019298
   105  H    0.059826
   106  H    0.059568
   107  H    0.024772
   108  H    0.025121
   109  H    0.039118
   110  H    0.010270
   111  H    0.021988
   112  H    0.024728
   113  H    0.024307
   114  H    0.033807
   115  H    0.020139
   116  H    0.030895
   117  H    0.030959
   118  H    0.017409
   119  H    0.017630
   120  H    0.009104
   121  H    0.022886
   122  H    0.008975
   123  H    0.018590
   124  H    0.024238
   125  H    0.035023
   126  H    0.044298
   127  H    0.031124
   128  H    0.021481
   129  H    0.036790
   130  H    0.032710
   131  H    0.034229
   132  H    0.050615
   133  H    0.030000
   134  H    0.036516
   135  H    0.031442
   136  H    0.039568
   137  H    0.036240
   138  H    0.041932
   139  H    0.037472
   140  H    0.034796
 Sum of Mulliken charges =  -0.00000

 Dipole moment (field-independent basis, Debye):
    X=              4.8054    Y=              3.4520    Z=              0.1822  Tot=              5.9196
 Quadrupole moment (field-independent basis, Debye-Ang):
   XX=           -379.3782   YY=           -430.7452   ZZ=           -415.5019
   XY=            -28.1547   XZ=             13.8617   YZ=             -1.2913

 Normal termination of Gaussian 16 at Fri Apr 29 02:02:49 2022.
