 Gaussian 16, Revision A.03,
 Gaussian 16:  ES64L-G16RevA.03 25-Dec-2016

 --------------------------------
 #p wB97XD/Def2SVP td=(nstates=5)
 --------------------------------

 -----------------------------------------------------
 step_1801_chromophore_27 TDDFT with wB97XD functional
 -----------------------------------------------------
 Symbolic Z-matrix:
 Charge =  0 Multiplicity = 1

                         Standard orientation:
 ---------------------------------------------------------------------
 Center     Atomic      Atomic             Coordinates (Angstroms)
 Number     Number       Type             X           Y           Z
 ---------------------------------------------------------------------
      1         12           0       -4.652404    0.859954   -0.097035
      2          6           0       -3.783933   -2.624749    0.378204
      3          6           0       -1.223651    1.447745    0.119464
      4          6           0       -5.440988    4.128592   -0.484771
      5          6           0       -7.939524    0.076774    0.368294
      6          7           0       -2.699953   -0.513663    0.189629
      7          6           0       -2.613221   -1.910427    0.170662
      8          6           0       -1.178772   -2.348700   -0.136924
      9          6           0       -0.335349   -1.003734    0.047571
     10          6           0       -1.437866    0.018826    0.058538
     11          6           0        0.538351   -1.011898    1.389725
     12          6           0       -0.993592   -3.065133   -1.556460
     13          6           0       -0.263516   -4.405555   -1.542782
     14          6           0        1.082446   -4.379919   -2.190445
     15          8           0        1.437268   -4.955320   -3.181556
     16          8           0        1.970050   -3.749945   -1.333093
     17          7           0       -3.514021    2.580535   -0.172355
     18          6           0       -2.135238    2.588682   -0.094465
     19          6           0       -1.781008    3.971796   -0.102466
     20          6           0       -2.946651    4.769587   -0.203588
     21          6           0       -4.067244    3.853566   -0.352212
     22          6           0       -0.422358    4.376099   -0.178997
     23          6           0       -3.221422    6.281647   -0.295289
     24          8           0       -4.327354    6.801744   -0.563310
     25          6           0       -2.039728    7.181849    0.079945
     26          7           0       -6.360629    1.993290   -0.221568
     27          6           0       -6.550435    3.287305   -0.455914
     28          6           0       -7.942896    3.794972   -0.396179
     29          6           0       -8.770216    2.443337   -0.113342
     30          6           0       -7.620260    1.441912    0.002233
     31          6           0       -8.165690    4.903436    0.671676
     32          6           0       -9.811929    2.024670   -1.210979
     33          6           0      -11.224732    1.729049   -0.779514
     34          7           0       -5.708916   -0.881747    0.189879
     35          6           0       -7.048510   -1.008131    0.415714
     36          6           0       -7.338016   -2.355698    0.658107
     37          6           0       -6.123897   -3.002322    0.686457
     38          6           0       -5.108525   -2.108701    0.368761
     39          6           0       -8.781418   -2.881100    0.940933
     40          6           0       -5.514849   -4.296175    0.783201
     41          8           0       -6.016951   -5.380037    1.068617
     42          6           0       -3.933547   -4.130833    0.633389
     43          6           0       -3.292168   -4.563580    1.945725
     44          8           0       -3.825494   -4.440708    3.043065
     45          8           0       -2.042695   -5.055498    1.746791
     46          6           0       -1.307101   -5.555049    2.935005
     47          6           0        3.399529   -4.116574   -1.502641
     48          6           0        4.257432   -2.940586   -1.857025
     49          6           0        5.531306   -2.633154   -1.592875
     50          6           0        6.565576   -3.624415   -0.946136
     51          6           0        6.072725   -1.227879   -1.752816
     52          6           0        6.444141   -0.787577   -3.146640
     53          6           0        7.920981   -0.583093   -3.511359
     54          6           0        8.301761    0.862605   -3.952572
     55          6           0        8.314577    1.138616   -5.414839
     56          6           0        9.534722    1.416142   -3.332804
     57          6           0        9.420961    2.448332   -2.261483
     58          6           0       10.428073    2.323091   -1.146493
     59          6           0        9.856683    1.632522    0.136436
     60          6           0        9.919654    0.131404    0.065049
     61          6           0       10.518025    2.079366    1.500138
     62          6           0        9.617469    2.008447    2.741676
     63          6           0       10.517179    1.494177    3.923674
     64          6           0        9.901320    1.787163    5.337045
     65          6           0       10.980181    1.395330    6.428853
     66          6           0        8.556450    1.012184    5.655428
     67          1           0       -0.163240    1.687463    0.223894
     68          1           0       -5.767161    5.170242   -0.500564
     69          1           0       -8.972341   -0.120787    0.665455
     70          1           0       -0.788173   -3.002843    0.643366
     71          1           0        0.388184   -0.674113   -0.697756
     72          1           0        0.326986   -0.194103    2.079318
     73          1           0        1.589650   -0.974792    1.105266
     74          1           0        0.372568   -1.956197    1.909225
     75          1           0       -0.473982   -2.406566   -2.253425
     76          1           0       -1.992737   -3.219717   -1.964551
     77          1           0       -0.939924   -5.119048   -2.013407
     78          1           0       -0.039032   -4.697718   -0.516943
     79          1           0       -0.331296    5.029085   -1.047318
     80          1           0        0.336901    3.596073   -0.229616
     81          1           0       -0.254500    4.992464    0.704279
     82          1           0       -2.177960    8.262727    0.110730
     83          1           0       -1.240454    6.949675   -0.622951
     84          1           0       -1.842376    6.775747    1.072201
     85          1           0       -8.034986    4.241319   -1.385915
     86          1           0       -9.172326    2.547254    0.893820
     87          1           0       -7.444901    4.790430    1.481625
     88          1           0       -9.167495    5.009346    1.086562
     89          1           0       -7.812393    5.824573    0.207011
     90          1           0       -9.467048    1.100497   -1.675078
     91          1           0       -9.912761    2.742053   -2.025164
     92          1           0      -11.403938    0.653786   -0.774929
     93          1           0      -11.962175    2.284241   -1.358703
     94          1           0      -11.382916    2.112026    0.227745
     95          1           0       -9.565074   -2.682732    0.210803
     96          1           0       -9.069874   -2.572183    1.945864
     97          1           0       -8.493177   -3.932355    0.933426
     98          1           0       -3.514713   -4.729952   -0.174908
     99          1           0       -1.883061   -6.225650    3.573132
    100          1           0       -0.994068   -4.618836    3.396892
    101          1           0       -0.441935   -6.046759    2.492539
    102          1           0        3.621742   -4.823598   -2.302117
    103          1           0        3.619619   -4.536892   -0.521198
    104          1           0        3.671185   -2.117276   -2.264171
    105          1           0        6.990501   -3.208682   -0.032222
    106          1           0        7.214114   -3.872536   -1.786157
    107          1           0        6.255763   -4.624341   -0.642695
    108          1           0        6.970138   -1.162666   -1.137426
    109          1           0        5.392306   -0.490912   -1.326629
    110          1           0        5.916090    0.133653   -3.392934
    111          1           0        5.852239   -1.365044   -3.857209
    112          1           0        8.244761   -1.258055   -4.303477
    113          1           0        8.507498   -0.912947   -2.653522
    114          1           0        7.436208    1.444103   -3.633049
    115          1           0        8.376124    0.170207   -5.910515
    116          1           0        9.126825    1.688460   -5.889883
    117          1           0        7.452711    1.694456   -5.784106
    118          1           0       10.139782    1.923343   -4.084080
    119          1           0       10.244186    0.636196   -3.056697
    120          1           0        8.375758    2.429622   -1.953246
    121          1           0        9.455899    3.503705   -2.531834
    122          1           0       10.839432    3.302549   -0.902238
    123          1           0       11.319457    1.851068   -1.560445
    124          1           0        8.803753    1.903071    0.057347
    125          1           0       10.544925   -0.110266   -0.794647
    126          1           0        8.887504   -0.213520    0.014284
    127          1           0       10.401740   -0.338304    0.922862
    128          1           0       10.713030    3.143761    1.373074
    129          1           0       11.454910    1.540540    1.636323
    130          1           0        8.781495    1.338428    2.545167
    131          1           0        9.234244    2.968824    3.086415
    132          1           0       11.595302    1.654402    3.891483
    133          1           0       10.350185    0.416886    3.896122
    134          1           0        9.673830    2.845174    5.469343
    135          1           0       11.724222    0.833855    5.863540
    136          1           0       10.604389    0.851225    7.295700
    137          1           0       11.421391    2.332211    6.766522
    138          1           0        7.956533    1.794927    6.120057
    139          1           0        8.687372    0.204707    6.375365
    140          1           0        8.161686    0.599316    4.726812
 ---------------------------------------------------------------------

 SCF Done:  E(RwB97XD) =  -3007.82100724     A.U. after   19 cycles

 Excitation energies and oscillator strengths:

 Excited State   1:      Singlet-A      1.6547 eV  749.30 nm  f=0.3443  <S**2>=0.000
     245 -> 248        0.19860
     246 -> 247        0.68037
     245 <- 248        0.12164
 This state for optimization and/or second-order correction.
 Total Energy, E(TD-HF/TD-DFT) =  -3007.76019975
 Copying the excited state density for this state as the 1-particle RhoCI density.

 Excited State   2:      Singlet-A      2.1241 eV  583.71 nm  f=0.1259  <S**2>=0.000
     245 -> 247        0.64307
     246 -> 248       -0.27995

 Excited State   3:      Singlet-A      3.2401 eV  382.66 nm  f=0.0031  <S**2>=0.000
     242 -> 247        0.19104
     243 -> 247       -0.23583
     244 -> 247        0.60275
     246 -> 248       -0.14337

 Excited State   4:      Singlet-A      3.5080 eV  353.43 nm  f=0.1150  <S**2>=0.000
     242 -> 247       -0.34237
     243 -> 247        0.33385
     244 -> 247        0.32452
     245 -> 247        0.10539
     246 -> 248        0.35162

 Excited State   5:      Singlet-A      3.5346 eV  350.77 nm  f=0.0022  <S**2>=0.000
     242 -> 247        0.39367
     242 -> 249       -0.23578
     242 -> 250       -0.22106
     243 -> 247        0.39271
     243 -> 249       -0.18094
     243 -> 250       -0.15849

 The electronic state is 1-A.
 Alpha  occ. eigenvalues --  -46.94433 -19.30835 -19.30094 -19.25216 -19.24247
 Alpha  occ. eigenvalues --  -19.24237 -19.23056 -14.46863 -14.46756 -14.43940
 Alpha  occ. eigenvalues --  -14.43412 -10.43092 -10.43083 -10.39954 -10.38066
 Alpha  occ. eigenvalues --  -10.36487 -10.36319 -10.35583 -10.35246 -10.35063
 Alpha  occ. eigenvalues --  -10.34885 -10.34572 -10.34499 -10.33198 -10.32842
 Alpha  occ. eigenvalues --  -10.32638 -10.32598 -10.32465 -10.32463 -10.32462
 Alpha  occ. eigenvalues --  -10.32316 -10.32286 -10.32090 -10.31945 -10.31507
 Alpha  occ. eigenvalues --  -10.31344 -10.31342 -10.31067 -10.30652 -10.30649
 Alpha  occ. eigenvalues --  -10.30478 -10.30349 -10.30296 -10.30107 -10.30056
 Alpha  occ. eigenvalues --  -10.29990 -10.29946 -10.29784 -10.29643 -10.29383
 Alpha  occ. eigenvalues --  -10.29380 -10.29350 -10.29336 -10.29189 -10.29162
 Alpha  occ. eigenvalues --  -10.29075 -10.28985 -10.28854 -10.28574 -10.28500
 Alpha  occ. eigenvalues --  -10.28270 -10.28260 -10.28228 -10.28142 -10.27897
 Alpha  occ. eigenvalues --  -10.27866  -3.20466  -1.94068  -1.93626  -1.93402
 Alpha  occ. eigenvalues --   -1.18822  -1.18585  -1.10910  -1.10897  -1.10560
 Alpha  occ. eigenvalues --   -1.09426  -1.06591  -1.05492  -1.04591  -1.03949
 Alpha  occ. eigenvalues --   -0.94282  -0.93083  -0.92115  -0.91360  -0.91107
 Alpha  occ. eigenvalues --   -0.90815  -0.90474  -0.89638  -0.89299  -0.89005
 Alpha  occ. eigenvalues --   -0.87753  -0.87419  -0.86790  -0.86060  -0.85489
 Alpha  occ. eigenvalues --   -0.84967  -0.84521  -0.83358  -0.82951  -0.82407
 Alpha  occ. eigenvalues --   -0.82168  -0.79853  -0.79833  -0.79383  -0.78263
 Alpha  occ. eigenvalues --   -0.78093  -0.77233  -0.77117  -0.77028  -0.75863
 Alpha  occ. eigenvalues --   -0.75632  -0.74817  -0.74014  -0.72940  -0.71152
 Alpha  occ. eigenvalues --   -0.70726  -0.70454  -0.69293  -0.68778  -0.67982
 Alpha  occ. eigenvalues --   -0.67524  -0.67505  -0.66725  -0.66677  -0.66197
 Alpha  occ. eigenvalues --   -0.65579  -0.65301  -0.64438  -0.64294  -0.62151
 Alpha  occ. eigenvalues --   -0.61720  -0.61447  -0.60992  -0.60493  -0.59872
 Alpha  occ. eigenvalues --   -0.59762  -0.59164  -0.58327  -0.57729  -0.57437
 Alpha  occ. eigenvalues --   -0.57019  -0.56903  -0.56765  -0.56465  -0.56089
 Alpha  occ. eigenvalues --   -0.55935  -0.55763  -0.55326  -0.55208  -0.54882
 Alpha  occ. eigenvalues --   -0.54540  -0.54300  -0.54177  -0.54100  -0.53977
 Alpha  occ. eigenvalues --   -0.53546  -0.53367  -0.53254  -0.52799  -0.52608
 Alpha  occ. eigenvalues --   -0.52436  -0.52297  -0.52180  -0.52066  -0.51782
 Alpha  occ. eigenvalues --   -0.51629  -0.51385  -0.51238  -0.50882  -0.50610
 Alpha  occ. eigenvalues --   -0.50489  -0.50228  -0.50016  -0.49764  -0.49696
 Alpha  occ. eigenvalues --   -0.49558  -0.49397  -0.49221  -0.49030  -0.48917
 Alpha  occ. eigenvalues --   -0.48867  -0.48530  -0.48327  -0.48269  -0.48056
 Alpha  occ. eigenvalues --   -0.47846  -0.47639  -0.47353  -0.47241  -0.47184
 Alpha  occ. eigenvalues --   -0.46662  -0.46514  -0.46370  -0.46192  -0.46002
 Alpha  occ. eigenvalues --   -0.45670  -0.45458  -0.45417  -0.45135  -0.45111
 Alpha  occ. eigenvalues --   -0.44962  -0.44689  -0.44487  -0.44227  -0.44104
 Alpha  occ. eigenvalues --   -0.43891  -0.43750  -0.43671  -0.43336  -0.42832
 Alpha  occ. eigenvalues --   -0.42769  -0.42668  -0.42571  -0.42405  -0.42361
 Alpha  occ. eigenvalues --   -0.42167  -0.41958  -0.41262  -0.41094  -0.40553
 Alpha  occ. eigenvalues --   -0.40204  -0.39784  -0.39460  -0.39172  -0.39140
 Alpha  occ. eigenvalues --   -0.39053  -0.38913  -0.38665  -0.38627  -0.38410
 Alpha  occ. eigenvalues --   -0.38227  -0.37778  -0.37339  -0.36650  -0.36262
 Alpha  occ. eigenvalues --   -0.36236  -0.35350  -0.35091  -0.33205  -0.32769
 Alpha  occ. eigenvalues --   -0.32265  -0.32058  -0.31982  -0.31560  -0.25672
 Alpha  occ. eigenvalues --   -0.23200
 Alpha virt. eigenvalues --   -0.07117   0.00004   0.02533   0.04622   0.06478
 Alpha virt. eigenvalues --    0.06677   0.07587   0.07686   0.07793   0.09189
 Alpha virt. eigenvalues --    0.10183   0.10900   0.11153   0.11749   0.11960

 Mulliken charges:
               1
     1  Mg   0.963925
     2  C   -0.060878
     3  C   -0.070653
     4  C   -0.087118
     5  C   -0.102321
     6  N   -0.313339
     7  C   -0.025130
     8  C   -0.003242
     9  C   -0.122441
    10  C    0.049510
    11  C    0.006048
    12  C    0.020055
    13  C    0.030971
    14  C    0.182007
    15  O   -0.226243
    16  O   -0.402279
    17  N   -0.509757
    18  C    0.189911
    19  C   -0.164284
    20  C   -0.098293
    21  C    0.180915
    22  C    0.057165
    23  C    0.089474
    24  O   -0.257085
    25  C   -0.016494
    26  N   -0.380865
    27  C    0.034897
    28  C   -0.072580
    29  C   -0.051880
    30  C    0.059703
    31  C    0.001835
    32  C   -0.001849
    33  C   -0.058146
    34  N   -0.468394
    35  C    0.158262
    36  C   -0.201286
    37  C   -0.022640
    38  C    0.166445
    39  C    0.063899
    40  C    0.111378
    41  O   -0.212938
    42  C   -0.063274
    43  C    0.270901
    44  O   -0.250727
    45  O   -0.376960
    46  C    0.139214
    47  C    0.263180
    48  C   -0.134609
    49  C   -0.209754
    50  C    0.002411
    51  C    0.049080
    52  C   -0.020571
    53  C    0.055532
    54  C   -0.178214
    55  C   -0.000833
    56  C    0.041007
    57  C   -0.020554
    58  C    0.001065
    59  C   -0.195609
    60  C    0.017669
    61  C    0.024086
    62  C    0.002082
    63  C   -0.055482
    64  C   -0.244493
    65  C   -0.004159
    66  C   -0.011790
    67  H   -0.007065
    68  H    0.015184
    69  H    0.004909
    70  H    0.027538
    71  H    0.042911
    72  H    0.048443
    73  H    0.044127
    74  H    0.032681
    75  H    0.045521
    76  H    0.042650
    77  H    0.057224
    78  H    0.058978
    79  H    0.056732
    80  H    0.039290
    81  H    0.045238
    82  H    0.057946
    83  H    0.046690
    84  H    0.057702
    85  H    0.048920
    86  H    0.042664
    87  H    0.041729
    88  H    0.053370
    89  H    0.052479
    90  H    0.040030
    91  H    0.033241
    92  H    0.044708
    93  H    0.037588
    94  H    0.021254
    95  H    0.048266
    96  H    0.055924
    97  H    0.059913
    98  H    0.058581
    99  H    0.083675
   100  H    0.058396
   101  H    0.054892
   102  H    0.074177
   103  H    0.048954
   104  H    0.015604
   105  H    0.054959
   106  H    0.052414
   107  H    0.020014
   108  H    0.002759
   109  H    0.033065
   110  H    0.001507
   111  H    0.013669
   112  H    0.016998
   113  H    0.008341
   114  H    0.016585
   115  H    0.012763
   116  H    0.025090
   117  H    0.026237
   118  H    0.007997
   119  H    0.005942
   120  H   -0.003491
   121  H    0.016813
   122  H    0.001406
   123  H    0.008522
   124  H    0.009936
   125  H    0.026810
   126  H    0.035291
   127  H    0.025025
   128  H    0.012336
   129  H    0.026704
   130  H    0.022915
   131  H    0.026084
   132  H    0.042042
   133  H    0.015712
   134  H    0.025293
   135  H    0.023775
   136  H    0.034152
   137  H    0.030461
   138  H    0.036610
   139  H    0.031473
   140  H    0.027261
 Sum of Mulliken charges =  -0.00000

 Dipole moment (field-independent basis, Debye):
    X=              5.2036    Y=              3.8999    Z=              0.1620  Tot=              6.5049
 Quadrupole moment (field-independent basis, Debye-Ang):
   XX=           -382.7340   YY=           -428.4430   ZZ=           -415.1872
   XY=            -29.1837   XZ=             14.3867   YZ=             -1.3877

 Normal termination of Gaussian 16 at Fri Apr 29 02:34:34 2022.
