 Gaussian 16, Revision A.03,
 Gaussian 16:  ES64L-G16RevA.03 25-Dec-2016

 --------------------
 #p ZINDO=(nstates=5)
 --------------------

 ------------------------------
 step_1801_chromophore_27 ZINDO
 ------------------------------
 Symbolic Z-matrix:
 Charge =  0 Multiplicity = 1

                         Standard orientation:
 ---------------------------------------------------------------------
 Center     Atomic      Atomic             Coordinates (Angstroms)
 Number     Number       Type             X           Y           Z
 ---------------------------------------------------------------------
      1         12           0       -4.652404    0.859954   -0.097035
      2          6           0       -3.783933   -2.624749    0.378204
      3          6           0       -1.223651    1.447745    0.119464
      4          6           0       -5.440988    4.128592   -0.484771
      5          6           0       -7.939524    0.076774    0.368294
      6          7           0       -2.699953   -0.513663    0.189629
      7          6           0       -2.613221   -1.910427    0.170662
      8          6           0       -1.178772   -2.348700   -0.136924
      9          6           0       -0.335349   -1.003734    0.047571
     10          6           0       -1.437866    0.018826    0.058538
     11          6           0        0.538351   -1.011898    1.389725
     12          6           0       -0.993592   -3.065133   -1.556460
     13          6           0       -0.263516   -4.405555   -1.542782
     14          6           0        1.082446   -4.379919   -2.190445
     15          8           0        1.437268   -4.955320   -3.181556
     16          8           0        1.970050   -3.749945   -1.333093
     17          7           0       -3.514021    2.580535   -0.172355
     18          6           0       -2.135238    2.588682   -0.094465
     19          6           0       -1.781008    3.971796   -0.102466
     20          6           0       -2.946651    4.769587   -0.203588
     21          6           0       -4.067244    3.853566   -0.352212
     22          6           0       -0.422358    4.376099   -0.178997
     23          6           0       -3.221422    6.281647   -0.295289
     24          8           0       -4.327354    6.801744   -0.563310
     25          6           0       -2.039728    7.181849    0.079945
     26          7           0       -6.360629    1.993290   -0.221568
     27          6           0       -6.550435    3.287305   -0.455914
     28          6           0       -7.942896    3.794972   -0.396179
     29          6           0       -8.770216    2.443337   -0.113342
     30          6           0       -7.620260    1.441912    0.002233
     31          6           0       -8.165690    4.903436    0.671676
     32          6           0       -9.811929    2.024670   -1.210979
     33          6           0      -11.224732    1.729049   -0.779514
     34          7           0       -5.708916   -0.881747    0.189879
     35          6           0       -7.048510   -1.008131    0.415714
     36          6           0       -7.338016   -2.355698    0.658107
     37          6           0       -6.123897   -3.002322    0.686457
     38          6           0       -5.108525   -2.108701    0.368761
     39          6           0       -8.781418   -2.881100    0.940933
     40          6           0       -5.514849   -4.296175    0.783201
     41          8           0       -6.016951   -5.380037    1.068617
     42          6           0       -3.933547   -4.130833    0.633389
     43          6           0       -3.292168   -4.563580    1.945725
     44          8           0       -3.825494   -4.440708    3.043065
     45          8           0       -2.042695   -5.055498    1.746791
     46          6           0       -1.307101   -5.555049    2.935005
     47          6           0        3.399529   -4.116574   -1.502641
     48          6           0        4.257432   -2.940586   -1.857025
     49          6           0        5.531306   -2.633154   -1.592875
     50          6           0        6.565576   -3.624415   -0.946136
     51          6           0        6.072725   -1.227879   -1.752816
     52          6           0        6.444141   -0.787577   -3.146640
     53          6           0        7.920981   -0.583093   -3.511359
     54          6           0        8.301761    0.862605   -3.952572
     55          6           0        8.314577    1.138616   -5.414839
     56          6           0        9.534722    1.416142   -3.332804
     57          6           0        9.420961    2.448332   -2.261483
     58          6           0       10.428073    2.323091   -1.146493
     59          6           0        9.856683    1.632522    0.136436
     60          6           0        9.919654    0.131404    0.065049
     61          6           0       10.518025    2.079366    1.500138
     62          6           0        9.617469    2.008447    2.741676
     63          6           0       10.517179    1.494177    3.923674
     64          6           0        9.901320    1.787163    5.337045
     65          6           0       10.980181    1.395330    6.428853
     66          6           0        8.556450    1.012184    5.655428
     67          1           0       -0.163240    1.687463    0.223894
     68          1           0       -5.767161    5.170242   -0.500564
     69          1           0       -8.972341   -0.120787    0.665455
     70          1           0       -0.788173   -3.002843    0.643366
     71          1           0        0.388184   -0.674113   -0.697756
     72          1           0        0.326986   -0.194103    2.079318
     73          1           0        1.589650   -0.974792    1.105266
     74          1           0        0.372568   -1.956197    1.909225
     75          1           0       -0.473982   -2.406566   -2.253425
     76          1           0       -1.992737   -3.219717   -1.964551
     77          1           0       -0.939924   -5.119048   -2.013407
     78          1           0       -0.039032   -4.697718   -0.516943
     79          1           0       -0.331296    5.029085   -1.047318
     80          1           0        0.336901    3.596073   -0.229616
     81          1           0       -0.254500    4.992464    0.704279
     82          1           0       -2.177960    8.262727    0.110730
     83          1           0       -1.240454    6.949675   -0.622951
     84          1           0       -1.842376    6.775747    1.072201
     85          1           0       -8.034986    4.241319   -1.385915
     86          1           0       -9.172326    2.547254    0.893820
     87          1           0       -7.444901    4.790430    1.481625
     88          1           0       -9.167495    5.009346    1.086562
     89          1           0       -7.812393    5.824573    0.207011
     90          1           0       -9.467048    1.100497   -1.675078
     91          1           0       -9.912761    2.742053   -2.025164
     92          1           0      -11.403938    0.653786   -0.774929
     93          1           0      -11.962175    2.284241   -1.358703
     94          1           0      -11.382916    2.112026    0.227745
     95          1           0       -9.565074   -2.682732    0.210803
     96          1           0       -9.069874   -2.572183    1.945864
     97          1           0       -8.493177   -3.932355    0.933426
     98          1           0       -3.514713   -4.729952   -0.174908
     99          1           0       -1.883061   -6.225650    3.573132
    100          1           0       -0.994068   -4.618836    3.396892
    101          1           0       -0.441935   -6.046759    2.492539
    102          1           0        3.621742   -4.823598   -2.302117
    103          1           0        3.619619   -4.536892   -0.521198
    104          1           0        3.671185   -2.117276   -2.264171
    105          1           0        6.990501   -3.208682   -0.032222
    106          1           0        7.214114   -3.872536   -1.786157
    107          1           0        6.255763   -4.624341   -0.642695
    108          1           0        6.970138   -1.162666   -1.137426
    109          1           0        5.392306   -0.490912   -1.326629
    110          1           0        5.916090    0.133653   -3.392934
    111          1           0        5.852239   -1.365044   -3.857209
    112          1           0        8.244761   -1.258055   -4.303477
    113          1           0        8.507498   -0.912947   -2.653522
    114          1           0        7.436208    1.444103   -3.633049
    115          1           0        8.376124    0.170207   -5.910515
    116          1           0        9.126825    1.688460   -5.889883
    117          1           0        7.452711    1.694456   -5.784106
    118          1           0       10.139782    1.923343   -4.084080
    119          1           0       10.244186    0.636196   -3.056697
    120          1           0        8.375758    2.429622   -1.953246
    121          1           0        9.455899    3.503705   -2.531834
    122          1           0       10.839432    3.302549   -0.902238
    123          1           0       11.319457    1.851068   -1.560445
    124          1           0        8.803753    1.903071    0.057347
    125          1           0       10.544925   -0.110266   -0.794647
    126          1           0        8.887504   -0.213520    0.014284
    127          1           0       10.401740   -0.338304    0.922862
    128          1           0       10.713030    3.143761    1.373074
    129          1           0       11.454910    1.540540    1.636323
    130          1           0        8.781495    1.338428    2.545167
    131          1           0        9.234244    2.968824    3.086415
    132          1           0       11.595302    1.654402    3.891483
    133          1           0       10.350185    0.416886    3.896122
    134          1           0        9.673830    2.845174    5.469343
    135          1           0       11.724222    0.833855    5.863540
    136          1           0       10.604389    0.851225    7.295700
    137          1           0       11.421391    2.332211    6.766522
    138          1           0        7.956533    1.794927    6.120057
    139          1           0        8.687372    0.204707    6.375365
    140          1           0        8.161686    0.599316    4.726812
 ---------------------------------------------------------------------

 SCF Done:  E(RZINDO/S) =  -474.272197227     A.U. after   19 cycles

 Excitation energies and oscillator strengths:

 Excited State   1:      Singlet-A      1.2438 eV  996.81 nm  f=0.5418  <S**2>=0.000
     175 ->178        -0.19339
     176 ->177         0.66341
 This state for optimization and/or second-order correction.
 Total Energy, E(CIS/TDA) =  -474.226488098
 Copying the excited state density for this state as the 1-particle RhoCI density.

 Excited State   2:      Singlet-A      1.8940 eV  654.62 nm  f=0.0654  <S**2>=0.000
     175 ->177         0.55898
     176 ->178         0.40828

 Excited State   3:      Singlet-A      2.9670 eV  417.87 nm  f=0.0035  <S**2>=0.000
     167 ->179         0.10996
     168 ->177        -0.28232
     168 ->178         0.10814
     168 ->179         0.38588
     168 ->180        -0.24488
     168 ->186         0.21017
     169 ->177         0.12556
     169 ->179        -0.14096

 Excited State   4:      Singlet-A      2.9844 eV  415.44 nm  f=0.0118  <S**2>=0.000
     170 ->177         0.30466
     170 ->178        -0.13339
     170 ->179         0.30325
     170 ->180         0.34342
     170 ->181         0.16884
     170 ->183         0.11182
     170 ->186         0.20024
     170 ->187         0.17909
     170 ->203        -0.10019

 Excited State   5:      Singlet-A      3.0522 eV  406.21 nm  f=1.2235  <S**2>=0.000
     171 ->177         0.20084
     173 ->177        -0.10018
     175 ->177        -0.35933
     176 ->178         0.51856

 The electronic state is 1-A.
 Alpha  occ. eigenvalues --   -1.84488  -1.82062  -1.78151  -1.73963  -1.71704
 Alpha  occ. eigenvalues --   -1.70485  -1.67591  -1.60931  -1.58642  -1.56528
 Alpha  occ. eigenvalues --   -1.55695  -1.52018  -1.48065  -1.47438  -1.46438
 Alpha  occ. eigenvalues --   -1.45507  -1.43895  -1.42345  -1.40458  -1.40094
 Alpha  occ. eigenvalues --   -1.36144  -1.33625  -1.31969  -1.31450  -1.29518
 Alpha  occ. eigenvalues --   -1.27605  -1.25659  -1.22993  -1.20692  -1.18086
 Alpha  occ. eigenvalues --   -1.16421  -1.15646  -1.15384  -1.14865  -1.14471
 Alpha  occ. eigenvalues --   -1.12015  -1.09815  -1.09702  -1.05128  -1.03496
 Alpha  occ. eigenvalues --   -1.02417  -1.01315  -0.99453  -0.98524  -0.97113
 Alpha  occ. eigenvalues --   -0.95468  -0.95359  -0.94996  -0.94268  -0.92228
 Alpha  occ. eigenvalues --   -0.91461  -0.91420  -0.88837  -0.88559  -0.87438
 Alpha  occ. eigenvalues --   -0.86170  -0.84766  -0.83083  -0.81850  -0.80368
 Alpha  occ. eigenvalues --   -0.79697  -0.79294  -0.78330  -0.76707  -0.75941
 Alpha  occ. eigenvalues --   -0.75583  -0.75303  -0.74999  -0.74255  -0.73405
 Alpha  occ. eigenvalues --   -0.72984  -0.72801  -0.72095  -0.71813  -0.71206
 Alpha  occ. eigenvalues --   -0.70744  -0.69811  -0.69105  -0.68393  -0.68141
 Alpha  occ. eigenvalues --   -0.67724  -0.67518  -0.67091  -0.66731  -0.66620
 Alpha  occ. eigenvalues --   -0.65994  -0.65356  -0.64895  -0.63684  -0.62965
 Alpha  occ. eigenvalues --   -0.62896  -0.62488  -0.62392  -0.62185  -0.62002
 Alpha  occ. eigenvalues --   -0.61460  -0.61288  -0.61047  -0.60701  -0.60613
 Alpha  occ. eigenvalues --   -0.60092  -0.59852  -0.59563  -0.59315  -0.59000
 Alpha  occ. eigenvalues --   -0.57972  -0.57905  -0.57378  -0.56867  -0.56682
 Alpha  occ. eigenvalues --   -0.56550  -0.55657  -0.55536  -0.55459  -0.54293
 Alpha  occ. eigenvalues --   -0.54140  -0.53717  -0.53602  -0.53462  -0.53120
 Alpha  occ. eigenvalues --   -0.52748  -0.52503  -0.52219  -0.52031  -0.51470
 Alpha  occ. eigenvalues --   -0.51395  -0.51222  -0.51048  -0.50763  -0.50354
 Alpha  occ. eigenvalues --   -0.50109  -0.49781  -0.49303  -0.49263  -0.48970
 Alpha  occ. eigenvalues --   -0.48750  -0.48399  -0.48076  -0.47677  -0.47215
 Alpha  occ. eigenvalues --   -0.47062  -0.46743  -0.46666  -0.46558  -0.46134
 Alpha  occ. eigenvalues --   -0.46039  -0.45719  -0.45669  -0.45578  -0.45221
 Alpha  occ. eigenvalues --   -0.45004  -0.44817  -0.44790  -0.44340  -0.44056
 Alpha  occ. eigenvalues --   -0.43917  -0.43329  -0.43293  -0.42907  -0.42504
 Alpha  occ. eigenvalues --   -0.41427  -0.41232  -0.40419  -0.39249  -0.38849
 Alpha  occ. eigenvalues --   -0.37804  -0.37029  -0.35439  -0.34676  -0.34055
 Alpha  occ. eigenvalues --   -0.33234  -0.32499  -0.32396  -0.32146  -0.26466
 Alpha  occ. eigenvalues --   -0.21983
 Alpha virt. eigenvalues --   -0.08651  -0.02195  -0.00374   0.01524   0.01800
 Alpha virt. eigenvalues --    0.02540   0.02782   0.03336   0.04350   0.04564
 Alpha virt. eigenvalues --    0.05864   0.06263   0.06903   0.07230   0.08041

 Mulliken charges:
               1
     1  Mg   0.424848
     2  C   -0.025648
     3  C   -0.100473
     4  C   -0.067812
     5  C   -0.069300
     6  N   -0.305892
     7  C    0.102669
     8  C    0.009944
     9  C    0.001339
    10  C    0.152520
    11  C   -0.053223
    12  C   -0.018807
    13  C    0.010566
    14  C    0.474622
    15  O   -0.505158
    16  O   -0.291982
    17  N   -0.336802
    18  C    0.115740
    19  C    0.048621
    20  C   -0.053119
    21  C    0.136329
    22  C   -0.038231
    23  C    0.326006
    24  O   -0.531412
    25  C   -0.033187
    26  N   -0.254675
    27  C    0.171839
    28  C    0.003353
    29  C    0.000864
    30  C    0.093088
    31  C   -0.051456
    32  C   -0.025144
    33  C   -0.055584
    34  N   -0.325511
    35  C    0.091932
    36  C    0.015343
    37  C   -0.031392
    38  C    0.098626
    39  C   -0.055886
    40  C    0.327068
    41  O   -0.525677
    42  C    0.048045
    43  C    0.485168
    44  O   -0.512594
    45  O   -0.283723
    46  C    0.076383
    47  C    0.110980
    48  C   -0.074617
    49  C   -0.013392
    50  C   -0.055604
    51  C   -0.009578
    52  C   -0.032583
    53  C   -0.026434
    54  C    0.002733
    55  C   -0.053882
    56  C   -0.022515
    57  C   -0.030745
    58  C   -0.032297
    59  C   -0.017840
    60  C   -0.057694
    61  C   -0.034759
    62  C   -0.034043
    63  C   -0.044112
    64  C   -0.026464
    65  C   -0.067891
    66  C   -0.062646
    67  H    0.022410
    68  H    0.046800
    69  H    0.032122
    70  H    0.035912
    71  H    0.038841
    72  H    0.029653
    73  H    0.019158
    74  H    0.023563
    75  H    0.029700
    76  H    0.026128
    77  H    0.039993
    78  H    0.043147
    79  H    0.029252
    80  H    0.029511
    81  H    0.028781
    82  H    0.043233
    83  H    0.035804
    84  H    0.037430
    85  H    0.041090
    86  H    0.039508
    87  H    0.022831
    88  H    0.029139
    89  H    0.022803
    90  H    0.021205
    91  H    0.020419
    92  H    0.024738
    93  H    0.020525
    94  H    0.012300
    95  H    0.034450
    96  H    0.034036
    97  H    0.032582
    98  H    0.050855
    99  H    0.063417
   100  H    0.042674
   101  H    0.028937
   102  H    0.064833
   103  H    0.038293
   104  H    0.022891
   105  H    0.031775
   106  H    0.031893
   107  H    0.015368
   108  H    0.014940
   109  H    0.021176
   110  H    0.009980
   111  H    0.019500
   112  H    0.018346
   113  H    0.016900
   114  H    0.014081
   115  H    0.010162
   116  H    0.017970
   117  H    0.013765
   118  H    0.007319
   119  H    0.017179
   120  H    0.009816
   121  H    0.015151
   122  H    0.007750
   123  H    0.015933
   124  H    0.019451
   125  H    0.021050
   126  H    0.018977
   127  H    0.016626
   128  H    0.008398
   129  H    0.029115
   130  H    0.024893
   131  H    0.022944
   132  H    0.037123
   133  H    0.009783
   134  H    0.018274
   135  H    0.021166
   136  H    0.025869
   137  H    0.013643
   138  H    0.020466
   139  H    0.022806
   140  H    0.022609
 Sum of Mulliken charges =  -0.00000

 Dipole moment (field-independent basis, Debye):
    X=              7.6994    Y=              5.9273    Z=             -0.4389  Tot=              9.7266
 N-N= 4.377007450885D+03 E-N= 0.000000000000D+00  KE=-9.427854588934D+03
 Leave Link  601 at Fri Apr 29 02:49:10 2022, MaxMem=  6710886400 cpu:               0.8 elap:               0.0
 (Enter /sw/apps/gaussian-16.0/g16/l9999.exe)
 1\1\GINC-BP1-COMPUTE165\SP\RZINDO CIS\STO-3G\C55H74Mg1N4O6\OF15641\29-
 Apr-2022\0\\#p ZINDO=(nstates=5)\\step_1801_chromophore_27 ZINDO\\0,1\
 Mg,0,-5.024,24.809,26.707\C,0,-3.764,26.816,29.447\C,0,-6.013,22.564,2
 9.183\C,0,-6.161,22.889,24.162\C,0,-3.399,26.844,24.504\N,0,-4.908,24.
 756,29.108\C,0,-4.516,25.779,29.979\C,0,-5.077,25.526,31.381\C,0,-5.57
 5,24.009,31.31\C,0,-5.561,23.779,29.824\C,0,-4.614,23.014,32.117\C,0,-
 6.192,26.575,31.849\C,0,-5.976,27.221,33.215\C,0,-6.963,26.804,34.256\

 Normal termination of Gaussian 16 at Fri Apr 29 02:49:10 2022.
