 Gaussian 16, Revision A.03,
 Gaussian 16:  ES64L-G16RevA.03 25-Dec-2016

 ------------------------------
 #p blyp/Def2SVP td=(nstates=5)
 ------------------------------

 ---------------------------------------------------
 step_1101_chromophore_25 TDDFT with blyp functional
 ---------------------------------------------------
 Symbolic Z-matrix:
 Charge =  0 Multiplicity = 1

                         Standard orientation:
 ---------------------------------------------------------------------
 Center     Atomic      Atomic             Coordinates (Angstroms)
 Number     Number       Type             X           Y           Z
 ---------------------------------------------------------------------
      1         12           0        5.992248    0.417019    0.178873
      2          6           0        3.462299   -2.268057    0.400698
      3          6           0        3.380455    2.520160   -0.471610
      4          6           0        8.293650    2.800313   -0.379303
      5          6           0        8.445297   -2.029315    0.688337
      6          7           0        3.682757    0.061235    0.118015
      7          6           0        2.881751   -1.037351    0.297176
      8          6           0        1.370758   -0.714933    0.074656
      9          6           0        1.461186    0.842237   -0.456515
     10          6           0        2.955569    1.157897   -0.270412
     11          6           0        0.868657    1.056523   -1.880105
     12          6           0        0.543375   -1.028858    1.346057
     13          6           0       -0.577852   -1.984146    1.101994
     14          6           0       -1.940196   -1.488778    1.577173
     15          8           0       -2.368940   -1.366749    2.699861
     16          8           0       -2.721785   -1.209325    0.432895
     17          7           0        5.867774    2.408297   -0.321622
     18          6           0        4.706736    3.122866   -0.482816
     19          6           0        5.022595    4.514765   -0.808608
     20          6           0        6.484328    4.636147   -0.744331
     21          6           0        6.963003    3.261844   -0.451079
     22          6           0        4.041419    5.552261   -1.076099
     23          6           0        7.435345    5.873688   -0.827736
     24          8           0        8.681182    5.811056   -0.955712
     25          6           0        6.776005    7.187733   -0.895267
     26          7           0        8.049360    0.342436    0.146871
     27          6           0        8.811351    1.457346   -0.158335
     28          6           0       10.244117    1.202413   -0.042811
     29          6           0       10.361772   -0.281009    0.359862
     30          6           0        8.865163   -0.737165    0.360847
     31          6           0       11.076400    1.595891   -1.325182
     32          6           0       11.011912   -0.588122    1.719420
     33          6           0       10.059048   -0.457294    2.975919
     34          7           0        5.970976   -1.705635    0.590985
     35          6           0        7.083135   -2.539566    0.827205
     36          6           0        6.650396   -3.941000    0.975017
     37          6           0        5.253452   -3.851164    0.735199
     38          6           0        4.897212   -2.502700    0.549460
     39          6           0        7.547597   -5.097388    1.177987
     40          6           0        4.080808   -4.637693    0.628823
     41          8           0        3.898854   -5.837922    0.735728
     42          6           0        2.877482   -3.652138    0.287703
     43          6           0        2.415702   -3.983575   -1.078283
     44          8           0        3.053595   -3.833188   -2.168119
     45          8           0        1.153865   -4.394125   -0.976788
     46          6           0        0.501272   -4.530369   -2.268001
     47          6           0       -4.115586   -0.958047    0.650142
     48          6           0       -4.867739   -0.728271   -0.625021
     49          6           0       -6.067129   -0.061710   -0.738006
     50          6           0       -6.844685    0.465063    0.410973
     51          6           0       -6.659199    0.330761   -2.142137
     52          6           0       -7.753103   -0.604610   -2.590388
     53          6           0       -8.883582    0.115645   -3.472241
     54          6           0      -10.275762   -0.625510   -3.493935
     55          6           0      -10.714902   -1.044161   -4.915734
     56          6           0      -11.361061    0.318671   -2.869069
     57          6           0      -11.788427   -0.267517   -1.513356
     58          6           0      -13.067505    0.347226   -0.988798
     59          6           0      -13.478962   -0.095227    0.467241
     60          6           0      -14.468902   -1.345844    0.353456
     61          6           0      -14.111992    1.078520    1.300588
     62          6           0      -13.458223    1.329342    2.640835
     63          6           0      -12.411578    2.404222    2.713547
     64          6           0      -11.223876    2.112449    3.637748
     65          6           0      -11.594182    2.299705    5.165885
     66          6           0      -10.001115    2.979309    3.224580
     67          1           0        2.551519    3.224604   -0.568734
     68          1           0        9.113286    3.474285   -0.636596
     69          1           0        9.219621   -2.785580    0.836688
     70          1           0        1.184652   -1.388489   -0.762726
     71          1           0        0.931609    1.498406    0.233987
     72          1           0        1.508575    1.552107   -2.610262
     73          1           0       -0.098363    1.558844   -1.905494
     74          1           0        0.592924    0.088681   -2.300724
     75          1           0        0.177813   -0.138855    1.858226
     76          1           0        1.286593   -1.446851    2.024816
     77          1           0       -0.334353   -2.857207    1.707844
     78          1           0       -0.596329   -2.301113    0.059310
     79          1           0        4.404151    6.263677   -1.816938
     80          1           0        3.695461    6.064563   -0.178308
     81          1           0        3.066575    5.165812   -1.374394
     82          1           0        6.344698    7.227104   -1.896210
     83          1           0        7.513855    7.989227   -0.862009
     84          1           0        6.031479    7.450735   -0.144308
     85          1           0       10.581940    1.773078    0.823300
     86          1           0       10.900963   -0.892949   -0.363495
     87          1           0       11.587731    2.510337   -1.024199
     88          1           0       10.359770    1.885293   -2.093419
     89          1           0       11.813028    0.875393   -1.681012
     90          1           0       11.848263    0.081935    1.915996
     91          1           0       11.440514   -1.589826    1.748114
     92          1           0       10.561816    0.290378    3.588931
     93          1           0       10.159030   -1.468369    3.371022
     94          1           0        8.982595   -0.285141    2.944596
     95          1           0        8.404987   -4.875609    1.814006
     96          1           0        7.912622   -5.460240    0.216438
     97          1           0        7.016166   -5.984944    1.520147
     98          1           0        2.064019   -3.769484    1.004603
     99          1           0        1.123099   -4.829990   -3.111345
    100          1           0        0.023164   -3.633718   -2.661892
    101          1           0       -0.256364   -5.313812   -2.264426
    102          1           0       -4.125545   -0.050712    1.252509
    103          1           0       -4.578281   -1.774589    1.203286
    104          1           0       -4.400662   -1.220555   -1.478499
    105          1           0       -7.932583    0.403546    0.386015
    106          1           0       -6.527979    1.506113    0.476563
    107          1           0       -6.619777   -0.159703    1.275511
    108          1           0       -5.830999    0.209765   -2.840770
    109          1           0       -6.966781    1.375828   -2.102853
    110          1           0       -8.266131   -1.017312   -1.721263
    111          1           0       -7.360311   -1.374928   -3.254096
    112          1           0       -8.467761    0.206212   -4.475476
    113          1           0       -8.935369    1.117567   -3.046129
    114          1           0      -10.209828   -1.528009   -2.886537
    115          1           0      -10.035651   -0.721956   -5.704701
    116          1           0      -11.677111   -0.663648   -5.258802
    117          1           0      -10.750249   -2.133983   -4.882894
    118          1           0      -12.214108    0.565035   -3.501405
    119          1           0      -10.916277    1.302383   -2.722594
    120          1           0      -10.937468   -0.244611   -0.831792
    121          1           0      -11.956188   -1.344473   -1.534876
    122          1           0      -13.832519   -0.065763   -1.645661
    123          1           0      -12.965312    1.429268   -1.074278
    124          1           0      -12.586540   -0.540338    0.908134
    125          1           0      -14.853085   -1.553935    1.352195
    126          1           0      -13.951568   -2.237084    0.000123
    127          1           0      -15.375821   -1.127065   -0.210273
    128          1           0      -15.192884    1.036186    1.437126
    129          1           0      -13.943555    2.015504    0.768202
    130          1           0      -13.108048    0.348438    2.960023
    131          1           0      -14.231755    1.607135    3.357561
    132          1           0      -12.798471    3.403106    2.912777
    133          1           0      -11.900029    2.543005    1.760804
    134          1           0      -11.037785    1.038792    3.599665
    135          1           0      -12.663258    2.510273    5.204325
    136          1           0      -11.093562    3.176603    5.577852
    137          1           0      -11.283583    1.415309    5.722602
    138          1           0      -10.346785    3.893604    2.742046
    139          1           0       -9.285696    2.383497    2.657356
    140          1           0       -9.417147    3.323806    4.077465
 ---------------------------------------------------------------------

 SCF Done:  E(RB-LYP) =  -3007.39906815     A.U. after   21 cycles

 Excitation energies and oscillator strengths:

 Excited State   1:      Singlet-A      1.7429 eV  711.35 nm  f=0.1825  <S**2>=0.000
     244 -> 247       -0.30810
     245 -> 247        0.23350
     245 -> 248       -0.14884
     246 -> 247        0.57732
     246 <- 247       -0.12334
 This state for optimization and/or second-order correction.
 Total Energy, E(TD-HF/TD-DFT) =  -3007.33501599
 Copying the excited state density for this state as the 1-particle RhoCI density.

 Excited State   2:      Singlet-A      1.8001 eV  688.78 nm  f=0.1460  <S**2>=0.000
     244 -> 247        0.43546
     245 -> 247       -0.38720
     246 -> 247        0.37428
     246 -> 248       -0.10215

 Excited State   3:      Singlet-A      1.9809 eV  625.89 nm  f=0.0653  <S**2>=0.000
     244 -> 247        0.45559
     245 -> 247        0.48439
     246 -> 248        0.18178
     246 -> 249        0.11703

 Excited State   4:      Singlet-A      2.0836 eV  595.04 nm  f=0.0003  <S**2>=0.000
     243 -> 247        0.70480

 Excited State   5:      Singlet-A      2.1276 eV  582.75 nm  f=0.0000  <S**2>=0.000
     242 -> 247        0.70709

 The electronic state is 1-A.
 Alpha  occ. eigenvalues --  -46.27612 -18.83966 -18.81316 -18.77749 -18.76341
 Alpha  occ. eigenvalues --  -18.76297 -18.75252 -14.03526 -14.03407 -14.01643
 Alpha  occ. eigenvalues --  -14.00889 -10.04405 -10.04125 -10.00897  -9.98978
 Alpha  occ. eigenvalues --   -9.97677  -9.97362  -9.97309  -9.96904  -9.96614
 Alpha  occ. eigenvalues --   -9.96492  -9.96483  -9.96356  -9.95797  -9.94869
 Alpha  occ. eigenvalues --   -9.94778  -9.94776  -9.94541  -9.93851  -9.93844
 Alpha  occ. eigenvalues --   -9.93834  -9.93632  -9.93626  -9.93624  -9.93536
 Alpha  occ. eigenvalues --   -9.93496  -9.93465  -9.93409  -9.93253  -9.93209
 Alpha  occ. eigenvalues --   -9.93003  -9.92763  -9.92578  -9.92474  -9.92469
 Alpha  occ. eigenvalues --   -9.92424  -9.92329  -9.92319  -9.92234  -9.92140
 Alpha  occ. eigenvalues --   -9.92100  -9.91873  -9.91684  -9.91564  -9.91410
 Alpha  occ. eigenvalues --   -9.91190  -9.91025  -9.91016  -9.91013  -9.90966
 Alpha  occ. eigenvalues --   -9.90801  -9.90764  -9.90758  -9.90731  -9.90725
 Alpha  occ. eigenvalues --   -9.90560  -2.92130  -1.72570  -1.72005  -1.71844
 Alpha  occ. eigenvalues --   -0.99558  -0.97593  -0.91127  -0.90577  -0.90543
 Alpha  occ. eigenvalues --   -0.88035  -0.86021  -0.85480  -0.84841  -0.84322
 Alpha  occ. eigenvalues --   -0.75254  -0.73532  -0.73139  -0.72857  -0.72129
 Alpha  occ. eigenvalues --   -0.72020  -0.71769  -0.70814  -0.70683  -0.70400
 Alpha  occ. eigenvalues --   -0.69723  -0.68988  -0.68232  -0.67698  -0.67350
 Alpha  occ. eigenvalues --   -0.66725  -0.66383  -0.65664  -0.65062  -0.64494
 Alpha  occ. eigenvalues --   -0.64205  -0.62663  -0.62449  -0.61472  -0.60964
 Alpha  occ. eigenvalues --   -0.60213  -0.60030  -0.59918  -0.59370  -0.59054
 Alpha  occ. eigenvalues --   -0.58228  -0.57630  -0.56871  -0.55370  -0.55010
 Alpha  occ. eigenvalues --   -0.53925  -0.53717  -0.52683  -0.51929  -0.51869
 Alpha  occ. eigenvalues --   -0.51172  -0.51066  -0.50640  -0.50170  -0.50083
 Alpha  occ. eigenvalues --   -0.49507  -0.49306  -0.48936  -0.48708  -0.46725
 Alpha  occ. eigenvalues --   -0.46547  -0.45804  -0.45612  -0.45035  -0.44609
 Alpha  occ. eigenvalues --   -0.44216  -0.43936  -0.43192  -0.42915  -0.42599
 Alpha  occ. eigenvalues --   -0.42378  -0.42233  -0.41660  -0.41490  -0.41444
 Alpha  occ. eigenvalues --   -0.41185  -0.40696  -0.40553  -0.40469  -0.40301
 Alpha  occ. eigenvalues --   -0.40063  -0.39787  -0.39640  -0.39537  -0.39338
 Alpha  occ. eigenvalues --   -0.38989  -0.38771  -0.38449  -0.38124  -0.38009
 Alpha  occ. eigenvalues --   -0.37861  -0.37800  -0.37614  -0.37425  -0.37184
 Alpha  occ. eigenvalues --   -0.37061  -0.36795  -0.36765  -0.36644  -0.36378
 Alpha  occ. eigenvalues --   -0.36347  -0.36176  -0.35857  -0.35754  -0.35675
 Alpha  occ. eigenvalues --   -0.35462  -0.35324  -0.34904  -0.34819  -0.34755
 Alpha  occ. eigenvalues --   -0.34744  -0.34579  -0.34228  -0.34082  -0.33973
 Alpha  occ. eigenvalues --   -0.33779  -0.33520  -0.33375  -0.33329  -0.33141
 Alpha  occ. eigenvalues --   -0.33032  -0.32826  -0.32720  -0.32585  -0.32384
 Alpha  occ. eigenvalues --   -0.32340  -0.32060  -0.31980  -0.31804  -0.31734
 Alpha  occ. eigenvalues --   -0.31649  -0.31529  -0.31271  -0.31119  -0.30903
 Alpha  occ. eigenvalues --   -0.30641  -0.30199  -0.30058  -0.30012  -0.29820
 Alpha  occ. eigenvalues --   -0.29621  -0.29364  -0.29295  -0.28938  -0.28770
 Alpha  occ. eigenvalues --   -0.28388  -0.28369  -0.27857  -0.27624  -0.27533
 Alpha  occ. eigenvalues --   -0.27397  -0.27211  -0.26905  -0.26762  -0.26473
 Alpha  occ. eigenvalues --   -0.26385  -0.26205  -0.25953  -0.25624  -0.25558
 Alpha  occ. eigenvalues --   -0.25356  -0.25155  -0.24937  -0.23721  -0.23574
 Alpha  occ. eigenvalues --   -0.23410  -0.22553  -0.22132  -0.21358  -0.20736
 Alpha  occ. eigenvalues --   -0.20295  -0.19679  -0.19418  -0.18539  -0.17096
 Alpha  occ. eigenvalues --   -0.16010
 Alpha virt. eigenvalues --   -0.11860  -0.07272  -0.06307  -0.04841  -0.03310
 Alpha virt. eigenvalues --   -0.03180  -0.02426  -0.01864  -0.01021  -0.00645
 Alpha virt. eigenvalues --    0.00521   0.01179   0.01431   0.01902   0.02322

 Mulliken charges:
               1
     1  Mg   0.693358
     2  C    0.033152
     3  C   -0.061214
     4  C   -0.042626
     5  C   -0.043119
     6  N   -0.180881
     7  C   -0.159703
     8  C    0.007057
     9  C    0.002462
    10  C    0.027690
    11  C    0.124249
    12  C    0.147944
    13  C    0.163768
    14  C    0.059000
    15  O   -0.164041
    16  O   -0.301954
    17  N   -0.324261
    18  C    0.144333
    19  C   -0.131309
    20  C    0.002743
    21  C    0.125277
    22  C    0.172857
    23  C   -0.028817
    24  O   -0.183854
    25  C    0.123473
    26  N   -0.262263
    27  C    0.006907
    28  C    0.047964
    29  C    0.075363
    30  C    0.014735
    31  C    0.118540
    32  C    0.035453
    33  C    0.049254
    34  N   -0.229778
    35  C    0.077907
    36  C   -0.159958
    37  C    0.130307
    38  C    0.054252
    39  C    0.174046
    40  C   -0.095764
    41  O   -0.129476
    42  C    0.072819
    43  C    0.131280
    44  O   -0.231478
    45  O   -0.219733
    46  C    0.209014
    47  C    0.306419
    48  C   -0.095178
    49  C   -0.178040
    50  C    0.135846
    51  C    0.161808
    52  C    0.038193
    53  C    0.081352
    54  C   -0.053799
    55  C    0.106797
    56  C    0.123507
    57  C    0.000876
    58  C    0.127836
    59  C   -0.041971
    60  C    0.068205
    61  C    0.129965
    62  C    0.085412
    63  C    0.098745
    64  C   -0.120800
    65  C    0.098818
    66  C    0.117643
    67  H   -0.057525
    68  H   -0.043918
    69  H   -0.067532
    70  H   -0.004096
    71  H   -0.020317
    72  H   -0.000083
    73  H   -0.013015
    74  H   -0.018678
    75  H   -0.011532
    76  H   -0.017247
    77  H    0.005673
    78  H   -0.003772
    79  H   -0.001188
    80  H    0.000232
    81  H   -0.022246
    82  H    0.018494
    83  H   -0.012503
    84  H    0.012861
    85  H   -0.014653
    86  H   -0.034746
    87  H    0.001296
    88  H    0.004600
    89  H    0.002470
    90  H   -0.022723
    91  H   -0.019063
    92  H   -0.005902
    93  H   -0.012228
    94  H    0.026062
    95  H   -0.000437
    96  H    0.001846
    97  H   -0.000322
    98  H   -0.017793
    99  H    0.018624
   100  H    0.006418
   101  H    0.008986
   102  H   -0.009711
   103  H    0.004249
   104  H   -0.035773
   105  H    0.000771
   106  H    0.015422
   107  H   -0.005246
   108  H   -0.037591
   109  H   -0.027748
   110  H   -0.020772
   111  H   -0.019147
   112  H   -0.033594
   113  H   -0.033759
   114  H   -0.021131
   115  H   -0.023179
   116  H   -0.017028
   117  H   -0.015031
   118  H   -0.036624
   119  H   -0.039675
   120  H   -0.038997
   121  H   -0.039786
   122  H   -0.033092
   123  H   -0.031072
   124  H   -0.035943
   125  H   -0.023046
   126  H   -0.007721
   127  H   -0.009574
   128  H   -0.039363
   129  H   -0.046018
   130  H   -0.034526
   131  H   -0.041312
   132  H   -0.033494
   133  H   -0.042948
   134  H   -0.038600
   135  H   -0.018998
   136  H   -0.023537
   137  H   -0.007768
   138  H   -0.012194
   139  H   -0.008867
   140  H   -0.030232
 Sum of Mulliken charges =  -0.00000

 Dipole moment (field-independent basis, Debye):
    X=             -1.8801    Y=              3.9207    Z=             -0.8994  Tot=              4.4402
 Quadrupole moment (field-independent basis, Debye-Ang):
   XX=           -376.6683   YY=           -422.2804   ZZ=           -415.0565
   XY=             -5.0162   XZ=             18.6504   YZ=              3.7533

 Normal termination of Gaussian 16 at Wed Apr 27 08:43:24 2022.
