 Gaussian 16, Revision A.03,
 Gaussian 16:  ES64L-G16RevA.03 25-Dec-2016

 -----------------------------------
 #p cam-b3lyp/Def2SVP td=(nstates=5)
 -----------------------------------

 --------------------------------------------------------
 step_1101_chromophore_25 TDDFT with cam-b3lyp functional
 --------------------------------------------------------
 Symbolic Z-matrix:
 Charge =  0 Multiplicity = 1

                         Standard orientation:
 ---------------------------------------------------------------------
 Center     Atomic      Atomic             Coordinates (Angstroms)
 Number     Number       Type             X           Y           Z
 ---------------------------------------------------------------------
      1         12           0        5.992248    0.417019    0.178873
      2          6           0        3.462299   -2.268057    0.400698
      3          6           0        3.380455    2.520160   -0.471610
      4          6           0        8.293650    2.800313   -0.379303
      5          6           0        8.445297   -2.029315    0.688337
      6          7           0        3.682757    0.061235    0.118015
      7          6           0        2.881751   -1.037351    0.297176
      8          6           0        1.370758   -0.714933    0.074656
      9          6           0        1.461186    0.842237   -0.456515
     10          6           0        2.955569    1.157897   -0.270412
     11          6           0        0.868657    1.056523   -1.880105
     12          6           0        0.543375   -1.028858    1.346057
     13          6           0       -0.577852   -1.984146    1.101994
     14          6           0       -1.940196   -1.488778    1.577173
     15          8           0       -2.368940   -1.366749    2.699861
     16          8           0       -2.721785   -1.209325    0.432895
     17          7           0        5.867774    2.408297   -0.321622
     18          6           0        4.706736    3.122866   -0.482816
     19          6           0        5.022595    4.514765   -0.808608
     20          6           0        6.484328    4.636147   -0.744331
     21          6           0        6.963003    3.261844   -0.451079
     22          6           0        4.041419    5.552261   -1.076099
     23          6           0        7.435345    5.873688   -0.827736
     24          8           0        8.681182    5.811056   -0.955712
     25          6           0        6.776005    7.187733   -0.895267
     26          7           0        8.049360    0.342436    0.146871
     27          6           0        8.811351    1.457346   -0.158335
     28          6           0       10.244117    1.202413   -0.042811
     29          6           0       10.361772   -0.281009    0.359862
     30          6           0        8.865163   -0.737165    0.360847
     31          6           0       11.076400    1.595891   -1.325182
     32          6           0       11.011912   -0.588122    1.719420
     33          6           0       10.059048   -0.457294    2.975919
     34          7           0        5.970976   -1.705635    0.590985
     35          6           0        7.083135   -2.539566    0.827205
     36          6           0        6.650396   -3.941000    0.975017
     37          6           0        5.253452   -3.851164    0.735199
     38          6           0        4.897212   -2.502700    0.549460
     39          6           0        7.547597   -5.097388    1.177987
     40          6           0        4.080808   -4.637693    0.628823
     41          8           0        3.898854   -5.837922    0.735728
     42          6           0        2.877482   -3.652138    0.287703
     43          6           0        2.415702   -3.983575   -1.078283
     44          8           0        3.053595   -3.833188   -2.168119
     45          8           0        1.153865   -4.394125   -0.976788
     46          6           0        0.501272   -4.530369   -2.268001
     47          6           0       -4.115586   -0.958047    0.650142
     48          6           0       -4.867739   -0.728271   -0.625021
     49          6           0       -6.067129   -0.061710   -0.738006
     50          6           0       -6.844685    0.465063    0.410973
     51          6           0       -6.659199    0.330761   -2.142137
     52          6           0       -7.753103   -0.604610   -2.590388
     53          6           0       -8.883582    0.115645   -3.472241
     54          6           0      -10.275762   -0.625510   -3.493935
     55          6           0      -10.714902   -1.044161   -4.915734
     56          6           0      -11.361061    0.318671   -2.869069
     57          6           0      -11.788427   -0.267517   -1.513356
     58          6           0      -13.067505    0.347226   -0.988798
     59          6           0      -13.478962   -0.095227    0.467241
     60          6           0      -14.468902   -1.345844    0.353456
     61          6           0      -14.111992    1.078520    1.300588
     62          6           0      -13.458223    1.329342    2.640835
     63          6           0      -12.411578    2.404222    2.713547
     64          6           0      -11.223876    2.112449    3.637748
     65          6           0      -11.594182    2.299705    5.165885
     66          6           0      -10.001115    2.979309    3.224580
     67          1           0        2.551519    3.224604   -0.568734
     68          1           0        9.113286    3.474285   -0.636596
     69          1           0        9.219621   -2.785580    0.836688
     70          1           0        1.184652   -1.388489   -0.762726
     71          1           0        0.931609    1.498406    0.233987
     72          1           0        1.508575    1.552107   -2.610262
     73          1           0       -0.098363    1.558844   -1.905494
     74          1           0        0.592924    0.088681   -2.300724
     75          1           0        0.177813   -0.138855    1.858226
     76          1           0        1.286593   -1.446851    2.024816
     77          1           0       -0.334353   -2.857207    1.707844
     78          1           0       -0.596329   -2.301113    0.059310
     79          1           0        4.404151    6.263677   -1.816938
     80          1           0        3.695461    6.064563   -0.178308
     81          1           0        3.066575    5.165812   -1.374394
     82          1           0        6.344698    7.227104   -1.896210
     83          1           0        7.513855    7.989227   -0.862009
     84          1           0        6.031479    7.450735   -0.144308
     85          1           0       10.581940    1.773078    0.823300
     86          1           0       10.900963   -0.892949   -0.363495
     87          1           0       11.587731    2.510337   -1.024199
     88          1           0       10.359770    1.885293   -2.093419
     89          1           0       11.813028    0.875393   -1.681012
     90          1           0       11.848263    0.081935    1.915996
     91          1           0       11.440514   -1.589826    1.748114
     92          1           0       10.561816    0.290378    3.588931
     93          1           0       10.159030   -1.468369    3.371022
     94          1           0        8.982595   -0.285141    2.944596
     95          1           0        8.404987   -4.875609    1.814006
     96          1           0        7.912622   -5.460240    0.216438
     97          1           0        7.016166   -5.984944    1.520147
     98          1           0        2.064019   -3.769484    1.004603
     99          1           0        1.123099   -4.829990   -3.111345
    100          1           0        0.023164   -3.633718   -2.661892
    101          1           0       -0.256364   -5.313812   -2.264426
    102          1           0       -4.125545   -0.050712    1.252509
    103          1           0       -4.578281   -1.774589    1.203286
    104          1           0       -4.400662   -1.220555   -1.478499
    105          1           0       -7.932583    0.403546    0.386015
    106          1           0       -6.527979    1.506113    0.476563
    107          1           0       -6.619777   -0.159703    1.275511
    108          1           0       -5.830999    0.209765   -2.840770
    109          1           0       -6.966781    1.375828   -2.102853
    110          1           0       -8.266131   -1.017312   -1.721263
    111          1           0       -7.360311   -1.374928   -3.254096
    112          1           0       -8.467761    0.206212   -4.475476
    113          1           0       -8.935369    1.117567   -3.046129
    114          1           0      -10.209828   -1.528009   -2.886537
    115          1           0      -10.035651   -0.721956   -5.704701
    116          1           0      -11.677111   -0.663648   -5.258802
    117          1           0      -10.750249   -2.133983   -4.882894
    118          1           0      -12.214108    0.565035   -3.501405
    119          1           0      -10.916277    1.302383   -2.722594
    120          1           0      -10.937468   -0.244611   -0.831792
    121          1           0      -11.956188   -1.344473   -1.534876
    122          1           0      -13.832519   -0.065763   -1.645661
    123          1           0      -12.965312    1.429268   -1.074278
    124          1           0      -12.586540   -0.540338    0.908134
    125          1           0      -14.853085   -1.553935    1.352195
    126          1           0      -13.951568   -2.237084    0.000123
    127          1           0      -15.375821   -1.127065   -0.210273
    128          1           0      -15.192884    1.036186    1.437126
    129          1           0      -13.943555    2.015504    0.768202
    130          1           0      -13.108048    0.348438    2.960023
    131          1           0      -14.231755    1.607135    3.357561
    132          1           0      -12.798471    3.403106    2.912777
    133          1           0      -11.900029    2.543005    1.760804
    134          1           0      -11.037785    1.038792    3.599665
    135          1           0      -12.663258    2.510273    5.204325
    136          1           0      -11.093562    3.176603    5.577852
    137          1           0      -11.283583    1.415309    5.722602
    138          1           0      -10.346785    3.893604    2.742046
    139          1           0       -9.285696    2.383497    2.657356
    140          1           0       -9.417147    3.323806    4.077465
 ---------------------------------------------------------------------

 SCF Done:  E(RCAM-B3LYP) =  -3007.17885696     A.U. after   19 cycles

 Excitation energies and oscillator strengths:

 Excited State   1:      Singlet-A      1.6747 eV  740.34 nm  f=0.3782  <S**2>=0.000
     245 -> 248        0.17030
     246 -> 247        0.68655
     245 <- 248        0.10296
 This state for optimization and/or second-order correction.
 Total Energy, E(TD-HF/TD-DFT) =  -3007.11731290
 Copying the excited state density for this state as the 1-particle RhoCI density.

 Excited State   2:      Singlet-A      2.1387 eV  579.71 nm  f=0.1457  <S**2>=0.000
     245 -> 247        0.65172
     246 -> 248       -0.25654

 Excited State   3:      Singlet-A      3.2978 eV  375.96 nm  f=0.0096  <S**2>=0.000
     241 -> 247       -0.31558
     242 -> 247       -0.20811
     244 -> 247        0.57825

 Excited State   4:      Singlet-A      3.4151 eV  363.04 nm  f=0.0681  <S**2>=0.000
     241 -> 247        0.47041
     244 -> 247        0.32456
     246 -> 248        0.37223

 Excited State   5:      Singlet-A      3.4930 eV  354.95 nm  f=0.0970  <S**2>=0.000
     240 -> 247        0.12109
     242 -> 247        0.53846
     242 -> 249        0.17575
     242 -> 250        0.19553
     244 -> 247        0.18347
     245 -> 247       -0.10916
     246 -> 248       -0.20459

 The electronic state is 1-A.
 Alpha  occ. eigenvalues --  -46.89161 -19.26938 -19.24097 -19.20808 -19.19969
 Alpha  occ. eigenvalues --  -19.19218 -19.17968 -14.42467 -14.42267 -14.40316
 Alpha  occ. eigenvalues --  -14.39056 -10.39784 -10.39497 -10.36598 -10.33932
 Alpha  occ. eigenvalues --  -10.32158 -10.31756 -10.31650 -10.31544 -10.31382
 Alpha  occ. eigenvalues --  -10.31276 -10.30576 -10.30560 -10.30010 -10.29537
 Alpha  occ. eigenvalues --  -10.29021 -10.28885 -10.28871 -10.28450 -10.28143
 Alpha  occ. eigenvalues --  -10.27783 -10.27695 -10.27649 -10.27597 -10.27542
 Alpha  occ. eigenvalues --  -10.27472 -10.27448 -10.27397 -10.27374 -10.27183
 Alpha  occ. eigenvalues --  -10.27087 -10.26658 -10.26651 -10.26366 -10.26278
 Alpha  occ. eigenvalues --  -10.26195 -10.26087 -10.26079 -10.26011 -10.25894
 Alpha  occ. eigenvalues --  -10.25652 -10.25614 -10.25384 -10.25174 -10.25064
 Alpha  occ. eigenvalues --  -10.24820 -10.24697 -10.24690 -10.24630 -10.24619
 Alpha  occ. eigenvalues --  -10.24424 -10.24404 -10.24354 -10.24329 -10.24298
 Alpha  occ. eigenvalues --  -10.24174  -3.17581  -1.92500  -1.92032  -1.91883
 Alpha  occ. eigenvalues --   -1.18025  -1.16070  -1.09273  -1.09140  -1.08425
 Alpha  occ. eigenvalues --   -1.05851  -1.03712  -1.03091  -1.02510  -1.01709
 Alpha  occ. eigenvalues --   -0.92151  -0.90368  -0.89940  -0.89648  -0.88759
 Alpha  occ. eigenvalues --   -0.88733  -0.88704  -0.87654  -0.87255  -0.86957
 Alpha  occ. eigenvalues --   -0.85951  -0.85421  -0.84542  -0.83724  -0.83605
 Alpha  occ. eigenvalues --   -0.82943  -0.82677  -0.81454  -0.80839  -0.80349
 Alpha  occ. eigenvalues --   -0.80013  -0.78572  -0.78092  -0.76911  -0.76326
 Alpha  occ. eigenvalues --   -0.75560  -0.75318  -0.75274  -0.74641  -0.74301
 Alpha  occ. eigenvalues --   -0.73215  -0.72540  -0.71808  -0.70204  -0.69543
 Alpha  occ. eigenvalues --   -0.68508  -0.68262  -0.67212  -0.66206  -0.65990
 Alpha  occ. eigenvalues --   -0.65285  -0.65257  -0.64517  -0.64177  -0.64172
 Alpha  occ. eigenvalues --   -0.63337  -0.63227  -0.62628  -0.62616  -0.60644
 Alpha  occ. eigenvalues --   -0.60052  -0.59236  -0.59167  -0.58387  -0.58086
 Alpha  occ. eigenvalues --   -0.57517  -0.57319  -0.56458  -0.56103  -0.55737
 Alpha  occ. eigenvalues --   -0.55572  -0.55171  -0.54800  -0.54510  -0.54277
 Alpha  occ. eigenvalues --   -0.54035  -0.53752  -0.53523  -0.53190  -0.52961
 Alpha  occ. eigenvalues --   -0.52580  -0.52415  -0.52403  -0.52201  -0.51826
 Alpha  occ. eigenvalues --   -0.51535  -0.51270  -0.50933  -0.50745  -0.50393
 Alpha  occ. eigenvalues --   -0.50295  -0.50236  -0.49978  -0.49824  -0.49547
 Alpha  occ. eigenvalues --   -0.49368  -0.49212  -0.48922  -0.48877  -0.48815
 Alpha  occ. eigenvalues --   -0.48427  -0.48395  -0.48239  -0.48203  -0.47730
 Alpha  occ. eigenvalues --   -0.47650  -0.47632  -0.46868  -0.46749  -0.46510
 Alpha  occ. eigenvalues --   -0.46484  -0.46427  -0.46130  -0.45850  -0.45799
 Alpha  occ. eigenvalues --   -0.45583  -0.45282  -0.45137  -0.45035  -0.44819
 Alpha  occ. eigenvalues --   -0.44736  -0.44402  -0.44331  -0.44176  -0.44087
 Alpha  occ. eigenvalues --   -0.44007  -0.43592  -0.43497  -0.43383  -0.43366
 Alpha  occ. eigenvalues --   -0.43130  -0.43127  -0.42755  -0.42545  -0.42367
 Alpha  occ. eigenvalues --   -0.42119  -0.42082  -0.41641  -0.41351  -0.41163
 Alpha  occ. eigenvalues --   -0.40956  -0.40749  -0.40431  -0.40073  -0.39972
 Alpha  occ. eigenvalues --   -0.39423  -0.39243  -0.38764  -0.38720  -0.38398
 Alpha  occ. eigenvalues --   -0.38374  -0.38042  -0.37716  -0.37672  -0.37536
 Alpha  occ. eigenvalues --   -0.37140  -0.37040  -0.36676  -0.36646  -0.36554
 Alpha  occ. eigenvalues --   -0.36218  -0.35975  -0.35674  -0.34812  -0.34142
 Alpha  occ. eigenvalues --   -0.34084  -0.33952  -0.32685  -0.32151  -0.31178
 Alpha  occ. eigenvalues --   -0.30375  -0.29983  -0.29243  -0.29156  -0.23867
 Alpha  occ. eigenvalues --   -0.21328
 Alpha virt. eigenvalues --   -0.09109  -0.01938  -0.00061   0.02180   0.03514
 Alpha virt. eigenvalues --    0.04389   0.04697   0.05057   0.05490   0.06238
 Alpha virt. eigenvalues --    0.06926   0.06955   0.08016   0.08306   0.08774

 Mulliken charges:
               1
     1  Mg   0.824890
     2  C    0.007987
     3  C   -0.080554
     4  C   -0.060679
     5  C   -0.050422
     6  N   -0.249443
     7  C   -0.118370
     8  C   -0.036877
     9  C   -0.050465
    10  C    0.052743
    11  C    0.064588
    12  C    0.090209
    13  C    0.090677
    14  C    0.143798
    15  O   -0.203771
    16  O   -0.367580
    17  N   -0.414844
    18  C    0.161448
    19  C   -0.136299
    20  C   -0.055636
    21  C    0.147840
    22  C    0.108294
    23  C    0.053871
    24  O   -0.221665
    25  C    0.034710
    26  N   -0.334496
    27  C    0.035992
    28  C   -0.021920
    29  C    0.029339
    30  C    0.022626
    31  C    0.059567
    32  C   -0.016249
    33  C   -0.012423
    34  N   -0.315468
    35  C    0.079998
    36  C   -0.154324
    37  C    0.044472
    38  C    0.094247
    39  C    0.118483
    40  C   -0.000878
    41  O   -0.172962
    42  C   -0.003913
    43  C    0.220770
    44  O   -0.270856
    45  O   -0.281679
    46  C    0.167194
    47  C    0.271831
    48  C   -0.113991
    49  C   -0.198933
    50  C    0.073926
    51  C    0.100136
    52  C   -0.008473
    53  C    0.035292
    54  C   -0.117160
    55  C    0.051150
    56  C    0.070186
    57  C   -0.040544
    58  C    0.072410
    59  C   -0.102224
    60  C    0.016712
    61  C    0.073877
    62  C    0.030788
    63  C    0.039665
    64  C   -0.174814
    65  C    0.041170
    66  C    0.056351
    67  H   -0.023905
    68  H   -0.003013
    69  H   -0.031610
    70  H    0.024654
    71  H    0.013946
    72  H    0.025832
    73  H    0.013326
    74  H    0.006857
    75  H    0.019555
    76  H    0.017671
    77  H    0.037949
    78  H    0.029829
    79  H    0.025805
    80  H    0.030709
    81  H    0.008875
    82  H    0.045370
    83  H    0.025457
    84  H    0.042647
    85  H    0.021763
    86  H    0.001527
    87  H    0.024660
    88  H    0.029799
    89  H    0.028354
    90  H    0.005212
    91  H    0.008864
    92  H    0.016560
    93  H    0.011153
    94  H    0.048005
    95  H    0.021334
    96  H    0.027701
    97  H    0.027192
    98  H    0.025050
    99  H    0.047017
   100  H    0.026143
   101  H    0.033045
   102  H    0.017933
   103  H    0.030554
   104  H   -0.000245
   105  H    0.022804
   106  H    0.038712
   107  H    0.018319
   108  H   -0.006036
   109  H    0.001974
   110  H    0.003260
   111  H    0.008157
   112  H   -0.005665
   113  H   -0.007795
   114  H    0.010180
   115  H    0.000908
   116  H    0.007108
   117  H    0.008598
   118  H   -0.007423
   119  H   -0.010900
   120  H   -0.015134
   121  H   -0.014016
   122  H   -0.005167
   123  H   -0.004101
   124  H   -0.005119
   125  H    0.000826
   126  H    0.015099
   127  H    0.012955
   128  H   -0.008077
   129  H   -0.015986
   130  H   -0.007185
   131  H   -0.011277
   132  H   -0.004764
   133  H   -0.014397
   134  H   -0.006892
   135  H    0.003763
   136  H    0.000517
   137  H    0.015801
   138  H    0.011516
   139  H    0.012704
   140  H   -0.004169
 Sum of Mulliken charges =  -0.00000

 Dipole moment (field-independent basis, Debye):
    X=             -1.9727    Y=              5.3867    Z=             -1.2355  Tot=              5.8681
 Quadrupole moment (field-independent basis, Debye-Ang):
   XX=           -375.5299   YY=           -417.2587   ZZ=           -415.3206
   XY=              2.5739   XZ=             18.1624   YZ=              3.4529

 Normal termination of Gaussian 16 at Wed Apr 27 07:38:53 2022.
