 Gaussian 16, Revision A.03,
 Gaussian 16:  ES64L-G16RevA.03 25-Dec-2016

 ---------------------------------
 #p PBE1PBE/Def2SVP td=(nstates=5)
 ---------------------------------

 ------------------------------------------------------
 step_1101_chromophore_25 TDDFT with PBE1PBE functional
 ------------------------------------------------------
 Symbolic Z-matrix:
 Charge =  0 Multiplicity = 1

                         Standard orientation:
 ---------------------------------------------------------------------
 Center     Atomic      Atomic             Coordinates (Angstroms)
 Number     Number       Type             X           Y           Z
 ---------------------------------------------------------------------
      1         12           0        5.992248    0.417019    0.178873
      2          6           0        3.462299   -2.268057    0.400698
      3          6           0        3.380455    2.520160   -0.471610
      4          6           0        8.293650    2.800313   -0.379303
      5          6           0        8.445297   -2.029315    0.688337
      6          7           0        3.682757    0.061235    0.118015
      7          6           0        2.881751   -1.037351    0.297176
      8          6           0        1.370758   -0.714933    0.074656
      9          6           0        1.461186    0.842237   -0.456515
     10          6           0        2.955569    1.157897   -0.270412
     11          6           0        0.868657    1.056523   -1.880105
     12          6           0        0.543375   -1.028858    1.346057
     13          6           0       -0.577852   -1.984146    1.101994
     14          6           0       -1.940196   -1.488778    1.577173
     15          8           0       -2.368940   -1.366749    2.699861
     16          8           0       -2.721785   -1.209325    0.432895
     17          7           0        5.867774    2.408297   -0.321622
     18          6           0        4.706736    3.122866   -0.482816
     19          6           0        5.022595    4.514765   -0.808608
     20          6           0        6.484328    4.636147   -0.744331
     21          6           0        6.963003    3.261844   -0.451079
     22          6           0        4.041419    5.552261   -1.076099
     23          6           0        7.435345    5.873688   -0.827736
     24          8           0        8.681182    5.811056   -0.955712
     25          6           0        6.776005    7.187733   -0.895267
     26          7           0        8.049360    0.342436    0.146871
     27          6           0        8.811351    1.457346   -0.158335
     28          6           0       10.244117    1.202413   -0.042811
     29          6           0       10.361772   -0.281009    0.359862
     30          6           0        8.865163   -0.737165    0.360847
     31          6           0       11.076400    1.595891   -1.325182
     32          6           0       11.011912   -0.588122    1.719420
     33          6           0       10.059048   -0.457294    2.975919
     34          7           0        5.970976   -1.705635    0.590985
     35          6           0        7.083135   -2.539566    0.827205
     36          6           0        6.650396   -3.941000    0.975017
     37          6           0        5.253452   -3.851164    0.735199
     38          6           0        4.897212   -2.502700    0.549460
     39          6           0        7.547597   -5.097388    1.177987
     40          6           0        4.080808   -4.637693    0.628823
     41          8           0        3.898854   -5.837922    0.735728
     42          6           0        2.877482   -3.652138    0.287703
     43          6           0        2.415702   -3.983575   -1.078283
     44          8           0        3.053595   -3.833188   -2.168119
     45          8           0        1.153865   -4.394125   -0.976788
     46          6           0        0.501272   -4.530369   -2.268001
     47          6           0       -4.115586   -0.958047    0.650142
     48          6           0       -4.867739   -0.728271   -0.625021
     49          6           0       -6.067129   -0.061710   -0.738006
     50          6           0       -6.844685    0.465063    0.410973
     51          6           0       -6.659199    0.330761   -2.142137
     52          6           0       -7.753103   -0.604610   -2.590388
     53          6           0       -8.883582    0.115645   -3.472241
     54          6           0      -10.275762   -0.625510   -3.493935
     55          6           0      -10.714902   -1.044161   -4.915734
     56          6           0      -11.361061    0.318671   -2.869069
     57          6           0      -11.788427   -0.267517   -1.513356
     58          6           0      -13.067505    0.347226   -0.988798
     59          6           0      -13.478962   -0.095227    0.467241
     60          6           0      -14.468902   -1.345844    0.353456
     61          6           0      -14.111992    1.078520    1.300588
     62          6           0      -13.458223    1.329342    2.640835
     63          6           0      -12.411578    2.404222    2.713547
     64          6           0      -11.223876    2.112449    3.637748
     65          6           0      -11.594182    2.299705    5.165885
     66          6           0      -10.001115    2.979309    3.224580
     67          1           0        2.551519    3.224604   -0.568734
     68          1           0        9.113286    3.474285   -0.636596
     69          1           0        9.219621   -2.785580    0.836688
     70          1           0        1.184652   -1.388489   -0.762726
     71          1           0        0.931609    1.498406    0.233987
     72          1           0        1.508575    1.552107   -2.610262
     73          1           0       -0.098363    1.558844   -1.905494
     74          1           0        0.592924    0.088681   -2.300724
     75          1           0        0.177813   -0.138855    1.858226
     76          1           0        1.286593   -1.446851    2.024816
     77          1           0       -0.334353   -2.857207    1.707844
     78          1           0       -0.596329   -2.301113    0.059310
     79          1           0        4.404151    6.263677   -1.816938
     80          1           0        3.695461    6.064563   -0.178308
     81          1           0        3.066575    5.165812   -1.374394
     82          1           0        6.344698    7.227104   -1.896210
     83          1           0        7.513855    7.989227   -0.862009
     84          1           0        6.031479    7.450735   -0.144308
     85          1           0       10.581940    1.773078    0.823300
     86          1           0       10.900963   -0.892949   -0.363495
     87          1           0       11.587731    2.510337   -1.024199
     88          1           0       10.359770    1.885293   -2.093419
     89          1           0       11.813028    0.875393   -1.681012
     90          1           0       11.848263    0.081935    1.915996
     91          1           0       11.440514   -1.589826    1.748114
     92          1           0       10.561816    0.290378    3.588931
     93          1           0       10.159030   -1.468369    3.371022
     94          1           0        8.982595   -0.285141    2.944596
     95          1           0        8.404987   -4.875609    1.814006
     96          1           0        7.912622   -5.460240    0.216438
     97          1           0        7.016166   -5.984944    1.520147
     98          1           0        2.064019   -3.769484    1.004603
     99          1           0        1.123099   -4.829990   -3.111345
    100          1           0        0.023164   -3.633718   -2.661892
    101          1           0       -0.256364   -5.313812   -2.264426
    102          1           0       -4.125545   -0.050712    1.252509
    103          1           0       -4.578281   -1.774589    1.203286
    104          1           0       -4.400662   -1.220555   -1.478499
    105          1           0       -7.932583    0.403546    0.386015
    106          1           0       -6.527979    1.506113    0.476563
    107          1           0       -6.619777   -0.159703    1.275511
    108          1           0       -5.830999    0.209765   -2.840770
    109          1           0       -6.966781    1.375828   -2.102853
    110          1           0       -8.266131   -1.017312   -1.721263
    111          1           0       -7.360311   -1.374928   -3.254096
    112          1           0       -8.467761    0.206212   -4.475476
    113          1           0       -8.935369    1.117567   -3.046129
    114          1           0      -10.209828   -1.528009   -2.886537
    115          1           0      -10.035651   -0.721956   -5.704701
    116          1           0      -11.677111   -0.663648   -5.258802
    117          1           0      -10.750249   -2.133983   -4.882894
    118          1           0      -12.214108    0.565035   -3.501405
    119          1           0      -10.916277    1.302383   -2.722594
    120          1           0      -10.937468   -0.244611   -0.831792
    121          1           0      -11.956188   -1.344473   -1.534876
    122          1           0      -13.832519   -0.065763   -1.645661
    123          1           0      -12.965312    1.429268   -1.074278
    124          1           0      -12.586540   -0.540338    0.908134
    125          1           0      -14.853085   -1.553935    1.352195
    126          1           0      -13.951568   -2.237084    0.000123
    127          1           0      -15.375821   -1.127065   -0.210273
    128          1           0      -15.192884    1.036186    1.437126
    129          1           0      -13.943555    2.015504    0.768202
    130          1           0      -13.108048    0.348438    2.960023
    131          1           0      -14.231755    1.607135    3.357561
    132          1           0      -12.798471    3.403106    2.912777
    133          1           0      -11.900029    2.543005    1.760804
    134          1           0      -11.037785    1.038792    3.599665
    135          1           0      -12.663258    2.510273    5.204325
    136          1           0      -11.093562    3.176603    5.577852
    137          1           0      -11.283583    1.415309    5.722602
    138          1           0      -10.346785    3.893604    2.742046
    139          1           0       -9.285696    2.383497    2.657356
    140          1           0       -9.417147    3.323806    4.077465
 ---------------------------------------------------------------------

 SCF Done:  E(RPBE1PBE) =  -3005.36923559     A.U. after   16 cycles

 Excitation energies and oscillator strengths:

 Excited State   1:      Singlet-A      1.8119 eV  684.28 nm  f=0.3627  <S**2>=0.000
     245 -> 248        0.16365
     246 -> 247        0.69296
     246 <- 247       -0.10818
 This state for optimization and/or second-order correction.
 Total Energy, E(TD-HF/TD-DFT) =  -3005.30264943
 Copying the excited state density for this state as the 1-particle RhoCI density.

 Excited State   2:      Singlet-A      2.1372 eV  580.13 nm  f=0.1362  <S**2>=0.000
     245 -> 247        0.66156
     246 -> 248       -0.22811

 Excited State   3:      Singlet-A      2.8857 eV  429.66 nm  f=0.0012  <S**2>=0.000
     242 -> 247        0.47141
     243 -> 247        0.49346

 Excited State   4:      Singlet-A      2.9658 eV  418.04 nm  f=0.0046  <S**2>=0.000
     241 -> 247        0.12994
     242 -> 247       -0.47981
     243 -> 247        0.48696

 Excited State   5:      Singlet-A      3.1113 eV  398.50 nm  f=0.0012  <S**2>=0.000
     240 -> 247       -0.13136
     241 -> 247        0.65194
     242 -> 247        0.10483
     246 -> 248        0.17190

 The electronic state is 1-A.
 Alpha  occ. eigenvalues --  -46.92557 -19.27621 -19.24854 -19.21086 -19.19945
 Alpha  occ. eigenvalues --  -19.19591 -19.18486 -14.41959 -14.41777 -14.39845
 Alpha  occ. eigenvalues --  -14.38897 -10.36861 -10.36594 -10.33485 -10.31311
 Alpha  occ. eigenvalues --  -10.29669 -10.29261 -10.28935 -10.28893 -10.28781
 Alpha  occ. eigenvalues --  -10.28685 -10.28572 -10.28480 -10.27711 -10.27288
 Alpha  occ. eigenvalues --  -10.26773 -10.26764 -10.26435 -10.26289 -10.25833
 Alpha  occ. eigenvalues --  -10.25756 -10.25626 -10.25412 -10.25339 -10.25297
 Alpha  occ. eigenvalues --  -10.25286 -10.25009 -10.24944 -10.24913 -10.24652
 Alpha  occ. eigenvalues --  -10.24640 -10.24366 -10.24005 -10.23768 -10.23747
 Alpha  occ. eigenvalues --  -10.23741 -10.23656 -10.23643 -10.23482 -10.23443
 Alpha  occ. eigenvalues --  -10.23315 -10.23282 -10.22925 -10.22779 -10.22581
 Alpha  occ. eigenvalues --  -10.22363 -10.22282 -10.22243 -10.22236 -10.22137
 Alpha  occ. eigenvalues --  -10.22023 -10.21950 -10.21945 -10.21834 -10.21760
 Alpha  occ. eigenvalues --  -10.21557  -3.14562  -1.87422  -1.86931  -1.86786
 Alpha  occ. eigenvalues --   -1.12894  -1.10906  -1.04140  -1.03737  -1.03346
 Alpha  occ. eigenvalues --   -1.00708  -0.98296  -0.97707  -0.97068  -0.96460
 Alpha  occ. eigenvalues --   -0.86646  -0.84548  -0.84099  -0.83758  -0.83034
 Alpha  occ. eigenvalues --   -0.82849  -0.82835  -0.81786  -0.81574  -0.81062
 Alpha  occ. eigenvalues --   -0.80459  -0.79639  -0.78710  -0.78070  -0.77829
 Alpha  occ. eigenvalues --   -0.77041  -0.76821  -0.75821  -0.75114  -0.74684
 Alpha  occ. eigenvalues --   -0.74171  -0.72741  -0.72387  -0.71243  -0.70704
 Alpha  occ. eigenvalues --   -0.69754  -0.69634  -0.69346  -0.68789  -0.68476
 Alpha  occ. eigenvalues --   -0.67646  -0.66972  -0.66199  -0.64490  -0.63968
 Alpha  occ. eigenvalues --   -0.62928  -0.62549  -0.61618  -0.60538  -0.60411
 Alpha  occ. eigenvalues --   -0.59797  -0.59405  -0.59024  -0.58742  -0.58363
 Alpha  occ. eigenvalues --   -0.57790  -0.57417  -0.57280  -0.56818  -0.54981
 Alpha  occ. eigenvalues --   -0.54476  -0.53887  -0.53688  -0.52965  -0.52642
 Alpha  occ. eigenvalues --   -0.52157  -0.51806  -0.50966  -0.50549  -0.50295
 Alpha  occ. eigenvalues --   -0.50177  -0.49669  -0.49374  -0.49144  -0.48687
 Alpha  occ. eigenvalues --   -0.48478  -0.48259  -0.47888  -0.47562  -0.47494
 Alpha  occ. eigenvalues --   -0.47089  -0.47040  -0.46971  -0.46755  -0.46330
 Alpha  occ. eigenvalues --   -0.46062  -0.45808  -0.45488  -0.45283  -0.45089
 Alpha  occ. eigenvalues --   -0.44940  -0.44758  -0.44547  -0.44356  -0.44073
 Alpha  occ. eigenvalues --   -0.43941  -0.43871  -0.43578  -0.43426  -0.43347
 Alpha  occ. eigenvalues --   -0.43056  -0.43027  -0.42891  -0.42826  -0.42365
 Alpha  occ. eigenvalues --   -0.42285  -0.42252  -0.41532  -0.41459  -0.41190
 Alpha  occ. eigenvalues --   -0.41144  -0.41041  -0.40811  -0.40655  -0.40542
 Alpha  occ. eigenvalues --   -0.40364  -0.40075  -0.39827  -0.39774  -0.39595
 Alpha  occ. eigenvalues --   -0.39421  -0.39268  -0.39130  -0.38906  -0.38832
 Alpha  occ. eigenvalues --   -0.38791  -0.38408  -0.38249  -0.38217  -0.38079
 Alpha  occ. eigenvalues --   -0.37948  -0.37814  -0.37647  -0.37398  -0.37173
 Alpha  occ. eigenvalues --   -0.36935  -0.36858  -0.36464  -0.36116  -0.35923
 Alpha  occ. eigenvalues --   -0.35746  -0.35547  -0.35351  -0.34950  -0.34824
 Alpha  occ. eigenvalues --   -0.34162  -0.34155  -0.33664  -0.33546  -0.33340
 Alpha  occ. eigenvalues --   -0.33148  -0.32842  -0.32748  -0.32443  -0.32375
 Alpha  occ. eigenvalues --   -0.32090  -0.32010  -0.31705  -0.31558  -0.31428
 Alpha  occ. eigenvalues --   -0.31307  -0.30904  -0.30566  -0.29835  -0.29261
 Alpha  occ. eigenvalues --   -0.29072  -0.28808  -0.28352  -0.26855  -0.26599
 Alpha  occ. eigenvalues --   -0.25767  -0.25184  -0.25068  -0.24556  -0.20791
 Alpha  occ. eigenvalues --   -0.18944
 Alpha virt. eigenvalues --   -0.11513  -0.05503  -0.04153  -0.02266  -0.00240
 Alpha virt. eigenvalues --   -0.00056   0.00566   0.00705   0.01741   0.02081
 Alpha virt. eigenvalues --    0.03102   0.03869   0.04494   0.04801   0.05233

 Mulliken charges:
               1
     1  Mg   0.975211
     2  C   -0.000516
     3  C   -0.068064
     4  C   -0.049540
     5  C   -0.049247
     6  N   -0.350750
     7  C   -0.048844
     8  C   -0.108408
     9  C   -0.122925
    10  C    0.083158
    11  C    0.008473
    12  C    0.043326
    13  C    0.007186
    14  C    0.211785
    15  O   -0.238536
    16  O   -0.398710
    17  N   -0.528084
    18  C    0.184630
    19  C   -0.174442
    20  C   -0.089925
    21  C    0.169522
    22  C    0.049477
    23  C    0.097604
    24  O   -0.259824
    25  C   -0.036420
    26  N   -0.442961
    27  C    0.069730
    28  C   -0.104287
    29  C   -0.037293
    30  C    0.057482
    31  C    0.000860
    32  C   -0.077430
    33  C   -0.084159
    34  N   -0.438893
    35  C    0.108695
    36  C   -0.163489
    37  C   -0.010947
    38  C    0.158150
    39  C    0.065352
    40  C    0.089520
    41  O   -0.217509
    42  C   -0.118230
    43  C    0.311518
    44  O   -0.303722
    45  O   -0.314352
    46  C    0.111114
    47  C    0.234128
    48  C   -0.124240
    49  C   -0.243080
    50  C    0.010890
    51  C    0.035263
    52  C   -0.072079
    53  C   -0.012827
    54  C   -0.209671
    55  C   -0.003198
    56  C    0.020710
    57  C   -0.104337
    58  C    0.015287
    59  C   -0.186859
    60  C   -0.044381
    61  C    0.020526
    62  C   -0.031500
    63  C   -0.022500
    64  C   -0.261255
    65  C   -0.018176
    66  C   -0.008996
    67  H    0.007776
    68  H    0.028494
    69  H    0.000641
    70  H    0.067801
    71  H    0.050076
    72  H    0.052593
    73  H    0.040381
    74  H    0.033278
    75  H    0.051120
    76  H    0.051170
    77  H    0.070718
    78  H    0.063714
    79  H    0.052203
    80  H    0.057083
    81  H    0.035057
    82  H    0.071908
    83  H    0.052356
    84  H    0.067632
    85  H    0.059754
    86  H    0.038842
    87  H    0.051638
    88  H    0.058227
    89  H    0.054155
    90  H    0.039088
    91  H    0.040281
    92  H    0.045069
    93  H    0.038760
    94  H    0.076383
    95  H    0.048367
    96  H    0.057418
    97  H    0.056203
    98  H    0.065571
    99  H    0.068619
   100  H    0.047854
   101  H    0.055422
   102  H    0.045454
   103  H    0.057012
   104  H    0.029591
   105  H    0.049936
   106  H    0.066499
   107  H    0.045501
   108  H    0.027244
   109  H    0.033304
   110  H    0.037360
   111  H    0.041363
   112  H    0.026578
   113  H    0.023752
   114  H    0.046351
   115  H    0.027434
   116  H    0.033385
   117  H    0.035884
   118  H    0.023382
   119  H    0.021739
   120  H    0.019729
   121  H    0.019702
   122  H    0.028779
   123  H    0.027775
   124  H    0.031856
   125  H    0.029947
   126  H    0.042684
   127  H    0.040024
   128  H    0.023372
   129  H    0.017422
   130  H    0.025017
   131  H    0.021971
   132  H    0.027878
   133  H    0.021352
   134  H    0.030703
   135  H    0.031722
   136  H    0.027928
   137  H    0.042510
   138  H    0.038560
   139  H    0.040941
   140  H    0.023715
 Sum of Mulliken charges =  -0.00000

 Dipole moment (field-independent basis, Debye):
    X=             -1.9155    Y=              4.6899    Z=             -1.0932  Tot=              5.1826
 Quadrupole moment (field-independent basis, Debye-Ang):
   XX=           -369.0498   YY=           -415.0167   ZZ=           -412.7771
   XY=             -2.3896   XZ=             19.3886   YZ=              3.4548

 Normal termination of Gaussian 16 at Wed Apr 27 08:01:21 2022.
