 Gaussian 16, Revision A.03,
 Gaussian 16:  ES64L-G16RevA.03 25-Dec-2016

 --------------------------------
 #p wB97XD/Def2SVP td=(nstates=5)
 --------------------------------

 -----------------------------------------------------
 step_1101_chromophore_25 TDDFT with wB97XD functional
 -----------------------------------------------------
 Symbolic Z-matrix:
 Charge =  0 Multiplicity = 1

                         Standard orientation:
 ---------------------------------------------------------------------
 Center     Atomic      Atomic             Coordinates (Angstroms)
 Number     Number       Type             X           Y           Z
 ---------------------------------------------------------------------
      1         12           0        5.992248    0.417019    0.178873
      2          6           0        3.462299   -2.268057    0.400698
      3          6           0        3.380455    2.520160   -0.471610
      4          6           0        8.293650    2.800313   -0.379303
      5          6           0        8.445297   -2.029315    0.688337
      6          7           0        3.682757    0.061235    0.118015
      7          6           0        2.881751   -1.037351    0.297176
      8          6           0        1.370758   -0.714933    0.074656
      9          6           0        1.461186    0.842237   -0.456515
     10          6           0        2.955569    1.157897   -0.270412
     11          6           0        0.868657    1.056523   -1.880105
     12          6           0        0.543375   -1.028858    1.346057
     13          6           0       -0.577852   -1.984146    1.101994
     14          6           0       -1.940196   -1.488778    1.577173
     15          8           0       -2.368940   -1.366749    2.699861
     16          8           0       -2.721785   -1.209325    0.432895
     17          7           0        5.867774    2.408297   -0.321622
     18          6           0        4.706736    3.122866   -0.482816
     19          6           0        5.022595    4.514765   -0.808608
     20          6           0        6.484328    4.636147   -0.744331
     21          6           0        6.963003    3.261844   -0.451079
     22          6           0        4.041419    5.552261   -1.076099
     23          6           0        7.435345    5.873688   -0.827736
     24          8           0        8.681182    5.811056   -0.955712
     25          6           0        6.776005    7.187733   -0.895267
     26          7           0        8.049360    0.342436    0.146871
     27          6           0        8.811351    1.457346   -0.158335
     28          6           0       10.244117    1.202413   -0.042811
     29          6           0       10.361772   -0.281009    0.359862
     30          6           0        8.865163   -0.737165    0.360847
     31          6           0       11.076400    1.595891   -1.325182
     32          6           0       11.011912   -0.588122    1.719420
     33          6           0       10.059048   -0.457294    2.975919
     34          7           0        5.970976   -1.705635    0.590985
     35          6           0        7.083135   -2.539566    0.827205
     36          6           0        6.650396   -3.941000    0.975017
     37          6           0        5.253452   -3.851164    0.735199
     38          6           0        4.897212   -2.502700    0.549460
     39          6           0        7.547597   -5.097388    1.177987
     40          6           0        4.080808   -4.637693    0.628823
     41          8           0        3.898854   -5.837922    0.735728
     42          6           0        2.877482   -3.652138    0.287703
     43          6           0        2.415702   -3.983575   -1.078283
     44          8           0        3.053595   -3.833188   -2.168119
     45          8           0        1.153865   -4.394125   -0.976788
     46          6           0        0.501272   -4.530369   -2.268001
     47          6           0       -4.115586   -0.958047    0.650142
     48          6           0       -4.867739   -0.728271   -0.625021
     49          6           0       -6.067129   -0.061710   -0.738006
     50          6           0       -6.844685    0.465063    0.410973
     51          6           0       -6.659199    0.330761   -2.142137
     52          6           0       -7.753103   -0.604610   -2.590388
     53          6           0       -8.883582    0.115645   -3.472241
     54          6           0      -10.275762   -0.625510   -3.493935
     55          6           0      -10.714902   -1.044161   -4.915734
     56          6           0      -11.361061    0.318671   -2.869069
     57          6           0      -11.788427   -0.267517   -1.513356
     58          6           0      -13.067505    0.347226   -0.988798
     59          6           0      -13.478962   -0.095227    0.467241
     60          6           0      -14.468902   -1.345844    0.353456
     61          6           0      -14.111992    1.078520    1.300588
     62          6           0      -13.458223    1.329342    2.640835
     63          6           0      -12.411578    2.404222    2.713547
     64          6           0      -11.223876    2.112449    3.637748
     65          6           0      -11.594182    2.299705    5.165885
     66          6           0      -10.001115    2.979309    3.224580
     67          1           0        2.551519    3.224604   -0.568734
     68          1           0        9.113286    3.474285   -0.636596
     69          1           0        9.219621   -2.785580    0.836688
     70          1           0        1.184652   -1.388489   -0.762726
     71          1           0        0.931609    1.498406    0.233987
     72          1           0        1.508575    1.552107   -2.610262
     73          1           0       -0.098363    1.558844   -1.905494
     74          1           0        0.592924    0.088681   -2.300724
     75          1           0        0.177813   -0.138855    1.858226
     76          1           0        1.286593   -1.446851    2.024816
     77          1           0       -0.334353   -2.857207    1.707844
     78          1           0       -0.596329   -2.301113    0.059310
     79          1           0        4.404151    6.263677   -1.816938
     80          1           0        3.695461    6.064563   -0.178308
     81          1           0        3.066575    5.165812   -1.374394
     82          1           0        6.344698    7.227104   -1.896210
     83          1           0        7.513855    7.989227   -0.862009
     84          1           0        6.031479    7.450735   -0.144308
     85          1           0       10.581940    1.773078    0.823300
     86          1           0       10.900963   -0.892949   -0.363495
     87          1           0       11.587731    2.510337   -1.024199
     88          1           0       10.359770    1.885293   -2.093419
     89          1           0       11.813028    0.875393   -1.681012
     90          1           0       11.848263    0.081935    1.915996
     91          1           0       11.440514   -1.589826    1.748114
     92          1           0       10.561816    0.290378    3.588931
     93          1           0       10.159030   -1.468369    3.371022
     94          1           0        8.982595   -0.285141    2.944596
     95          1           0        8.404987   -4.875609    1.814006
     96          1           0        7.912622   -5.460240    0.216438
     97          1           0        7.016166   -5.984944    1.520147
     98          1           0        2.064019   -3.769484    1.004603
     99          1           0        1.123099   -4.829990   -3.111345
    100          1           0        0.023164   -3.633718   -2.661892
    101          1           0       -0.256364   -5.313812   -2.264426
    102          1           0       -4.125545   -0.050712    1.252509
    103          1           0       -4.578281   -1.774589    1.203286
    104          1           0       -4.400662   -1.220555   -1.478499
    105          1           0       -7.932583    0.403546    0.386015
    106          1           0       -6.527979    1.506113    0.476563
    107          1           0       -6.619777   -0.159703    1.275511
    108          1           0       -5.830999    0.209765   -2.840770
    109          1           0       -6.966781    1.375828   -2.102853
    110          1           0       -8.266131   -1.017312   -1.721263
    111          1           0       -7.360311   -1.374928   -3.254096
    112          1           0       -8.467761    0.206212   -4.475476
    113          1           0       -8.935369    1.117567   -3.046129
    114          1           0      -10.209828   -1.528009   -2.886537
    115          1           0      -10.035651   -0.721956   -5.704701
    116          1           0      -11.677111   -0.663648   -5.258802
    117          1           0      -10.750249   -2.133983   -4.882894
    118          1           0      -12.214108    0.565035   -3.501405
    119          1           0      -10.916277    1.302383   -2.722594
    120          1           0      -10.937468   -0.244611   -0.831792
    121          1           0      -11.956188   -1.344473   -1.534876
    122          1           0      -13.832519   -0.065763   -1.645661
    123          1           0      -12.965312    1.429268   -1.074278
    124          1           0      -12.586540   -0.540338    0.908134
    125          1           0      -14.853085   -1.553935    1.352195
    126          1           0      -13.951568   -2.237084    0.000123
    127          1           0      -15.375821   -1.127065   -0.210273
    128          1           0      -15.192884    1.036186    1.437126
    129          1           0      -13.943555    2.015504    0.768202
    130          1           0      -13.108048    0.348438    2.960023
    131          1           0      -14.231755    1.607135    3.357561
    132          1           0      -12.798471    3.403106    2.912777
    133          1           0      -11.900029    2.543005    1.760804
    134          1           0      -11.037785    1.038792    3.599665
    135          1           0      -12.663258    2.510273    5.204325
    136          1           0      -11.093562    3.176603    5.577852
    137          1           0      -11.283583    1.415309    5.722602
    138          1           0      -10.346785    3.893604    2.742046
    139          1           0       -9.285696    2.383497    2.657356
    140          1           0       -9.417147    3.323806    4.077465
 ---------------------------------------------------------------------

 SCF Done:  E(RwB97XD) =  -3007.87648709     A.U. after   20 cycles

 Excitation energies and oscillator strengths:

 Excited State   1:      Singlet-A      1.6293 eV  760.97 nm  f=0.3771  <S**2>=0.000
     245 -> 248        0.17478
     246 -> 247        0.68430
     245 <- 248        0.11145
 This state for optimization and/or second-order correction.
 Total Energy, E(TD-HF/TD-DFT) =  -3007.81661204
 Copying the excited state density for this state as the 1-particle RhoCI density.

 Excited State   2:      Singlet-A      2.0849 eV  594.69 nm  f=0.1424  <S**2>=0.000
     245 -> 247        0.64920
     246 -> 248       -0.25937

 Excited State   3:      Singlet-A      3.3284 eV  372.51 nm  f=0.0167  <S**2>=0.000
     241 -> 247       -0.45677
     242 -> 247       -0.15181
     244 -> 247        0.47602
     246 -> 248       -0.13145

 Excited State   4:      Singlet-A      3.4459 eV  359.80 nm  f=0.0863  <S**2>=0.000
     240 -> 247        0.10600
     241 -> 247        0.35072
     244 -> 247        0.43046
     246 -> 248        0.38398

 Excited State   5:      Singlet-A      3.5611 eV  348.16 nm  f=0.1614  <S**2>=0.000
     240 -> 247        0.12832
     241 -> 247        0.10121
     242 -> 247        0.48385
     242 -> 249        0.19259
     242 -> 250        0.21753
     244 -> 247        0.21064
     245 -> 247       -0.13865
     246 -> 248       -0.23742

 The electronic state is 1-A.
 Alpha  occ. eigenvalues --  -46.95482 -19.32112 -19.29375 -19.25754 -19.25083
 Alpha  occ. eigenvalues --  -19.24169 -19.22952 -14.47075 -14.46863 -14.44961
 Alpha  occ. eigenvalues --  -14.43605 -10.43620 -10.43315 -10.40652 -10.37877
 Alpha  occ. eigenvalues --  -10.36253 -10.35838 -10.35706 -10.35530 -10.35380
 Alpha  occ. eigenvalues --  -10.35160 -10.34545 -10.34512 -10.34270 -10.33487
 Alpha  occ. eigenvalues --  -10.33094 -10.33090 -10.32962 -10.32368 -10.32267
 Alpha  occ. eigenvalues --  -10.31815 -10.31770 -10.31642 -10.31626 -10.31572
 Alpha  occ. eigenvalues --  -10.31472 -10.31470 -10.31318 -10.31298 -10.31203
 Alpha  occ. eigenvalues --  -10.31196 -10.30577 -10.30572 -10.30283 -10.30233
 Alpha  occ. eigenvalues --  -10.30086 -10.30039 -10.30022 -10.29918 -10.29835
 Alpha  occ. eigenvalues --  -10.29556 -10.29459 -10.29311 -10.29138 -10.28885
 Alpha  occ. eigenvalues --  -10.28665 -10.28642 -10.28611 -10.28527 -10.28443
 Alpha  occ. eigenvalues --  -10.28329 -10.28324 -10.28246 -10.28222 -10.28185
 Alpha  occ. eigenvalues --  -10.27979  -3.21362  -1.94968  -1.94480  -1.94330
 Alpha  occ. eigenvalues --   -1.20194  -1.18252  -1.11557  -1.11307  -1.10657
 Alpha  occ. eigenvalues --   -1.07999  -1.05705  -1.05079  -1.04584  -1.03703
 Alpha  occ. eigenvalues --   -0.94075  -0.92194  -0.91743  -0.91424  -0.90727
 Alpha  occ. eigenvalues --   -0.90591  -0.90508  -0.89622  -0.89169  -0.88735
 Alpha  occ. eigenvalues --   -0.87844  -0.87326  -0.86395  -0.85630  -0.85512
 Alpha  occ. eigenvalues --   -0.84843  -0.84563  -0.83350  -0.82741  -0.82305
 Alpha  occ. eigenvalues --   -0.81837  -0.80591  -0.79985  -0.78811  -0.78243
 Alpha  occ. eigenvalues --   -0.77411  -0.77258  -0.77053  -0.76459  -0.76143
 Alpha  occ. eigenvalues --   -0.75153  -0.74485  -0.73784  -0.72146  -0.71458
 Alpha  occ. eigenvalues --   -0.70456  -0.70160  -0.69245  -0.68097  -0.67938
 Alpha  occ. eigenvalues --   -0.67291  -0.67079  -0.66454  -0.66169  -0.66022
 Alpha  occ. eigenvalues --   -0.65266  -0.65079  -0.64589  -0.64453  -0.62697
 Alpha  occ. eigenvalues --   -0.61968  -0.61215  -0.61125  -0.60358  -0.59999
 Alpha  occ. eigenvalues --   -0.59498  -0.59262  -0.58449  -0.57986  -0.57613
 Alpha  occ. eigenvalues --   -0.57529  -0.57071  -0.56742  -0.56474  -0.56139
 Alpha  occ. eigenvalues --   -0.55930  -0.55676  -0.55492  -0.55026  -0.54884
 Alpha  occ. eigenvalues --   -0.54460  -0.54370  -0.54323  -0.54134  -0.53751
 Alpha  occ. eigenvalues --   -0.53423  -0.53170  -0.52943  -0.52663  -0.52314
 Alpha  occ. eigenvalues --   -0.52192  -0.52186  -0.51878  -0.51759  -0.51495
 Alpha  occ. eigenvalues --   -0.51257  -0.51138  -0.50835  -0.50821  -0.50703
 Alpha  occ. eigenvalues --   -0.50340  -0.50305  -0.50134  -0.50116  -0.49717
 Alpha  occ. eigenvalues --   -0.49551  -0.49519  -0.48798  -0.48683  -0.48365
 Alpha  occ. eigenvalues --   -0.48336  -0.48316  -0.48065  -0.47752  -0.47699
 Alpha  occ. eigenvalues --   -0.47487  -0.47192  -0.47011  -0.46952  -0.46720
 Alpha  occ. eigenvalues --   -0.46601  -0.46302  -0.46249  -0.46046  -0.45982
 Alpha  occ. eigenvalues --   -0.45898  -0.45485  -0.45436  -0.45334  -0.45253
 Alpha  occ. eigenvalues --   -0.45040  -0.44987  -0.44659  -0.44488  -0.44271
 Alpha  occ. eigenvalues --   -0.44132  -0.44018  -0.43650  -0.43235  -0.43020
 Alpha  occ. eigenvalues --   -0.42830  -0.42646  -0.42331  -0.41949  -0.41869
 Alpha  occ. eigenvalues --   -0.41262  -0.41129  -0.40619  -0.40603  -0.40312
 Alpha  occ. eigenvalues --   -0.40224  -0.39894  -0.39634  -0.39509  -0.39391
 Alpha  occ. eigenvalues --   -0.39111  -0.39023  -0.38653  -0.38585  -0.38428
 Alpha  occ. eigenvalues --   -0.38264  -0.37860  -0.37506  -0.36760  -0.36088
 Alpha  occ. eigenvalues --   -0.35924  -0.35846  -0.34930  -0.34157  -0.33385
 Alpha  occ. eigenvalues --   -0.32596  -0.31945  -0.31284  -0.31264  -0.25781
 Alpha  occ. eigenvalues --   -0.23129
 Alpha virt. eigenvalues --   -0.07461  -0.00004   0.01965   0.04316   0.06389
 Alpha virt. eigenvalues --    0.06788   0.06982   0.07283   0.08255   0.08560
 Alpha virt. eigenvalues --    0.09481   0.10615   0.11353   0.11627   0.12133

 Mulliken charges:
               1
     1  Mg   0.963801
     2  C   -0.003982
     3  C   -0.089502
     4  C   -0.070361
     5  C   -0.060369
     6  N   -0.316706
     7  C   -0.076729
     8  C   -0.078143
     9  C   -0.099621
    10  C    0.074313
    11  C    0.017801
    12  C    0.051372
    13  C    0.026731
    14  C    0.202006
    15  O   -0.235432
    16  O   -0.397691
    17  N   -0.499056
    18  C    0.180490
    19  C   -0.157701
    20  C   -0.089201
    21  C    0.168223
    22  C    0.059512
    23  C    0.098217
    24  O   -0.251666
    25  C   -0.028394
    26  N   -0.409819
    27  C    0.062777
    28  C   -0.081433
    29  C   -0.017381
    30  C    0.045160
    31  C    0.011491
    32  C   -0.061779
    33  C   -0.068006
    34  N   -0.401922
    35  C    0.092567
    36  C   -0.163373
    37  C   -0.006114
    38  C    0.134064
    39  C    0.074050
    40  C    0.073268
    41  O   -0.210649
    42  C   -0.073400
    43  C    0.285847
    44  O   -0.299024
    45  O   -0.312403
    46  C    0.126887
    47  C    0.245774
    48  C   -0.134087
    49  C   -0.227415
    50  C    0.022492
    51  C    0.052795
    52  C   -0.053111
    53  C    0.002457
    54  C   -0.179263
    55  C    0.007884
    56  C    0.033495
    57  C   -0.081339
    58  C    0.033431
    59  C   -0.161180
    60  C   -0.030339
    61  C    0.034934
    62  C   -0.014381
    63  C   -0.004016
    64  C   -0.234182
    65  C   -0.007117
    66  C    0.004399
    67  H    0.000732
    68  H    0.023439
    69  H   -0.005472
    70  H    0.045183
    71  H    0.040750
    72  H    0.047083
    73  H    0.035904
    74  H    0.028226
    75  H    0.044738
    76  H    0.042755
    77  H    0.065738
    78  H    0.055187
    79  H    0.047798
    80  H    0.054775
    81  H    0.032143
    82  H    0.066377
    83  H    0.052441
    84  H    0.064604
    85  H    0.049158
    86  H    0.029626
    87  H    0.046122
    88  H    0.051193
    89  H    0.050975
    90  H    0.030248
    91  H    0.033341
    92  H    0.039330
    93  H    0.032750
    94  H    0.067762
    95  H    0.042033
    96  H    0.050793
    97  H    0.051685
    98  H    0.055563
    99  H    0.064329
   100  H    0.043163
   101  H    0.051825
   102  H    0.039028
   103  H    0.052163
   104  H    0.027612
   105  H    0.044903
   106  H    0.060633
   107  H    0.039568
   108  H    0.020268
   109  H    0.025843
   110  H    0.023468
   111  H    0.034130
   112  H    0.017986
   113  H    0.011184
   114  H    0.032988
   115  H    0.021192
   116  H    0.027524
   117  H    0.030587
   118  H    0.014954
   119  H    0.012048
   120  H    0.007468
   121  H    0.007715
   122  H    0.018034
   123  H    0.017948
   124  H    0.018820
   125  H    0.022889
   126  H    0.037156
   127  H    0.033355
   128  H    0.017785
   129  H    0.006103
   130  H    0.013835
   131  H    0.014527
   132  H    0.019879
   133  H    0.007536
   134  H    0.019004
   135  H    0.024475
   136  H    0.021478
   137  H    0.037934
   138  H    0.032075
   139  H    0.036063
   140  H    0.017594
 Sum of Mulliken charges =  -0.00000

 Dipole moment (field-independent basis, Debye):
    X=             -1.9983    Y=              5.6691    Z=             -1.3036  Tot=              6.1507
 Quadrupole moment (field-independent basis, Debye-Ang):
   XX=           -370.0760   YY=           -412.7050   ZZ=           -412.4299
   XY=              3.7404   XZ=             18.3683   YZ=              3.3304

 Normal termination of Gaussian 16 at Wed Apr 27 08:30:58 2022.
