 Gaussian 16, Revision A.03,
 Gaussian 16:  ES64L-G16RevA.03 25-Dec-2016

 --------------------
 #p ZINDO=(nstates=5)
 --------------------

 ------------------------------
 step_1101_chromophore_25 ZINDO
 ------------------------------
 Symbolic Z-matrix:
 Charge =  0 Multiplicity = 1

                         Standard orientation:
 ---------------------------------------------------------------------
 Center     Atomic      Atomic             Coordinates (Angstroms)
 Number     Number       Type             X           Y           Z
 ---------------------------------------------------------------------
      1         12           0        5.992248    0.417019    0.178873
      2          6           0        3.462299   -2.268057    0.400698
      3          6           0        3.380455    2.520160   -0.471610
      4          6           0        8.293650    2.800313   -0.379303
      5          6           0        8.445297   -2.029315    0.688337
      6          7           0        3.682757    0.061235    0.118015
      7          6           0        2.881751   -1.037351    0.297176
      8          6           0        1.370758   -0.714933    0.074656
      9          6           0        1.461186    0.842237   -0.456515
     10          6           0        2.955569    1.157897   -0.270412
     11          6           0        0.868657    1.056523   -1.880105
     12          6           0        0.543375   -1.028858    1.346057
     13          6           0       -0.577852   -1.984146    1.101994
     14          6           0       -1.940196   -1.488778    1.577173
     15          8           0       -2.368940   -1.366749    2.699861
     16          8           0       -2.721785   -1.209325    0.432895
     17          7           0        5.867774    2.408297   -0.321622
     18          6           0        4.706736    3.122866   -0.482816
     19          6           0        5.022595    4.514765   -0.808608
     20          6           0        6.484328    4.636147   -0.744331
     21          6           0        6.963003    3.261844   -0.451079
     22          6           0        4.041419    5.552261   -1.076099
     23          6           0        7.435345    5.873688   -0.827736
     24          8           0        8.681182    5.811056   -0.955712
     25          6           0        6.776005    7.187733   -0.895267
     26          7           0        8.049360    0.342436    0.146871
     27          6           0        8.811351    1.457346   -0.158335
     28          6           0       10.244117    1.202413   -0.042811
     29          6           0       10.361772   -0.281009    0.359862
     30          6           0        8.865163   -0.737165    0.360847
     31          6           0       11.076400    1.595891   -1.325182
     32          6           0       11.011912   -0.588122    1.719420
     33          6           0       10.059048   -0.457294    2.975919
     34          7           0        5.970976   -1.705635    0.590985
     35          6           0        7.083135   -2.539566    0.827205
     36          6           0        6.650396   -3.941000    0.975017
     37          6           0        5.253452   -3.851164    0.735199
     38          6           0        4.897212   -2.502700    0.549460
     39          6           0        7.547597   -5.097388    1.177987
     40          6           0        4.080808   -4.637693    0.628823
     41          8           0        3.898854   -5.837922    0.735728
     42          6           0        2.877482   -3.652138    0.287703
     43          6           0        2.415702   -3.983575   -1.078283
     44          8           0        3.053595   -3.833188   -2.168119
     45          8           0        1.153865   -4.394125   -0.976788
     46          6           0        0.501272   -4.530369   -2.268001
     47          6           0       -4.115586   -0.958047    0.650142
     48          6           0       -4.867739   -0.728271   -0.625021
     49          6           0       -6.067129   -0.061710   -0.738006
     50          6           0       -6.844685    0.465063    0.410973
     51          6           0       -6.659199    0.330761   -2.142137
     52          6           0       -7.753103   -0.604610   -2.590388
     53          6           0       -8.883582    0.115645   -3.472241
     54          6           0      -10.275762   -0.625510   -3.493935
     55          6           0      -10.714902   -1.044161   -4.915734
     56          6           0      -11.361061    0.318671   -2.869069
     57          6           0      -11.788427   -0.267517   -1.513356
     58          6           0      -13.067505    0.347226   -0.988798
     59          6           0      -13.478962   -0.095227    0.467241
     60          6           0      -14.468902   -1.345844    0.353456
     61          6           0      -14.111992    1.078520    1.300588
     62          6           0      -13.458223    1.329342    2.640835
     63          6           0      -12.411578    2.404222    2.713547
     64          6           0      -11.223876    2.112449    3.637748
     65          6           0      -11.594182    2.299705    5.165885
     66          6           0      -10.001115    2.979309    3.224580
     67          1           0        2.551519    3.224604   -0.568734
     68          1           0        9.113286    3.474285   -0.636596
     69          1           0        9.219621   -2.785580    0.836688
     70          1           0        1.184652   -1.388489   -0.762726
     71          1           0        0.931609    1.498406    0.233987
     72          1           0        1.508575    1.552107   -2.610262
     73          1           0       -0.098363    1.558844   -1.905494
     74          1           0        0.592924    0.088681   -2.300724
     75          1           0        0.177813   -0.138855    1.858226
     76          1           0        1.286593   -1.446851    2.024816
     77          1           0       -0.334353   -2.857207    1.707844
     78          1           0       -0.596329   -2.301113    0.059310
     79          1           0        4.404151    6.263677   -1.816938
     80          1           0        3.695461    6.064563   -0.178308
     81          1           0        3.066575    5.165812   -1.374394
     82          1           0        6.344698    7.227104   -1.896210
     83          1           0        7.513855    7.989227   -0.862009
     84          1           0        6.031479    7.450735   -0.144308
     85          1           0       10.581940    1.773078    0.823300
     86          1           0       10.900963   -0.892949   -0.363495
     87          1           0       11.587731    2.510337   -1.024199
     88          1           0       10.359770    1.885293   -2.093419
     89          1           0       11.813028    0.875393   -1.681012
     90          1           0       11.848263    0.081935    1.915996
     91          1           0       11.440514   -1.589826    1.748114
     92          1           0       10.561816    0.290378    3.588931
     93          1           0       10.159030   -1.468369    3.371022
     94          1           0        8.982595   -0.285141    2.944596
     95          1           0        8.404987   -4.875609    1.814006
     96          1           0        7.912622   -5.460240    0.216438
     97          1           0        7.016166   -5.984944    1.520147
     98          1           0        2.064019   -3.769484    1.004603
     99          1           0        1.123099   -4.829990   -3.111345
    100          1           0        0.023164   -3.633718   -2.661892
    101          1           0       -0.256364   -5.313812   -2.264426
    102          1           0       -4.125545   -0.050712    1.252509
    103          1           0       -4.578281   -1.774589    1.203286
    104          1           0       -4.400662   -1.220555   -1.478499
    105          1           0       -7.932583    0.403546    0.386015
    106          1           0       -6.527979    1.506113    0.476563
    107          1           0       -6.619777   -0.159703    1.275511
    108          1           0       -5.830999    0.209765   -2.840770
    109          1           0       -6.966781    1.375828   -2.102853
    110          1           0       -8.266131   -1.017312   -1.721263
    111          1           0       -7.360311   -1.374928   -3.254096
    112          1           0       -8.467761    0.206212   -4.475476
    113          1           0       -8.935369    1.117567   -3.046129
    114          1           0      -10.209828   -1.528009   -2.886537
    115          1           0      -10.035651   -0.721956   -5.704701
    116          1           0      -11.677111   -0.663648   -5.258802
    117          1           0      -10.750249   -2.133983   -4.882894
    118          1           0      -12.214108    0.565035   -3.501405
    119          1           0      -10.916277    1.302383   -2.722594
    120          1           0      -10.937468   -0.244611   -0.831792
    121          1           0      -11.956188   -1.344473   -1.534876
    122          1           0      -13.832519   -0.065763   -1.645661
    123          1           0      -12.965312    1.429268   -1.074278
    124          1           0      -12.586540   -0.540338    0.908134
    125          1           0      -14.853085   -1.553935    1.352195
    126          1           0      -13.951568   -2.237084    0.000123
    127          1           0      -15.375821   -1.127065   -0.210273
    128          1           0      -15.192884    1.036186    1.437126
    129          1           0      -13.943555    2.015504    0.768202
    130          1           0      -13.108048    0.348438    2.960023
    131          1           0      -14.231755    1.607135    3.357561
    132          1           0      -12.798471    3.403106    2.912777
    133          1           0      -11.900029    2.543005    1.760804
    134          1           0      -11.037785    1.038792    3.599665
    135          1           0      -12.663258    2.510273    5.204325
    136          1           0      -11.093562    3.176603    5.577852
    137          1           0      -11.283583    1.415309    5.722602
    138          1           0      -10.346785    3.893604    2.742046
    139          1           0       -9.285696    2.383497    2.657356
    140          1           0       -9.417147    3.323806    4.077465
 ---------------------------------------------------------------------

 SCF Done:  E(RZINDO/S) =  -474.040561579     A.U. after   20 cycles

 Excitation energies and oscillator strengths:

 Excited State   1:      Singlet-A      1.2468 eV  994.45 nm  f=0.5748  <S**2>=0.000
     175 ->178         0.17212
     176 ->177         0.66714
 This state for optimization and/or second-order correction.
 Total Energy, E(CIS/TDA) =  -473.994743994
 Copying the excited state density for this state as the 1-particle RhoCI density.

 Excited State   2:      Singlet-A      1.8775 eV  660.35 nm  f=0.0868  <S**2>=0.000
     175 ->177         0.56713
     176 ->178        -0.38596

 Excited State   3:      Singlet-A      2.9719 eV  417.19 nm  f=1.0023  <S**2>=0.000
     171 ->177        -0.15201
     175 ->177         0.34979
     176 ->178         0.54202

 Excited State   4:      Singlet-A      3.0201 eV  410.53 nm  f=0.0523  <S**2>=0.000
     170 ->177         0.14123
     170 ->179         0.11182
     170 ->180         0.15372
     172 ->177        -0.10461
     176 ->179         0.52611
     176 ->180         0.17570

 Excited State   5:      Singlet-A      3.0309 eV  409.07 nm  f=0.0133  <S**2>=0.000
     167 ->177         0.15812
     167 ->178        -0.10115
     167 ->179        -0.22107
     167 ->180         0.14150
     167 ->185        -0.11863
     168 ->177         0.27064
     168 ->178        -0.16181
     168 ->179        -0.35566
     168 ->180         0.20871
     168 ->185        -0.19114

 The electronic state is 1-A.
 Alpha  occ. eigenvalues --   -1.81832  -1.80434  -1.77271  -1.73545  -1.72958
 Alpha  occ. eigenvalues --   -1.69128  -1.64211  -1.60605  -1.58363  -1.57572
 Alpha  occ. eigenvalues --   -1.54986  -1.51441  -1.48737  -1.46941  -1.45781
 Alpha  occ. eigenvalues --   -1.44871  -1.41628  -1.40116  -1.39736  -1.39422
 Alpha  occ. eigenvalues --   -1.36271  -1.33726  -1.32621  -1.31246  -1.27657
 Alpha  occ. eigenvalues --   -1.26896  -1.24684  -1.23090  -1.20419  -1.18109
 Alpha  occ. eigenvalues --   -1.17488  -1.15692  -1.15308  -1.14407  -1.12524
 Alpha  occ. eigenvalues --   -1.11766  -1.11394  -1.11005  -1.04854  -1.04492
 Alpha  occ. eigenvalues --   -1.02051  -1.01287  -0.99434  -0.98228  -0.97034
 Alpha  occ. eigenvalues --   -0.95990  -0.94706  -0.94024  -0.92479  -0.92212
 Alpha  occ. eigenvalues --   -0.90485  -0.89723  -0.88704  -0.87847  -0.86528
 Alpha  occ. eigenvalues --   -0.85220  -0.84276  -0.84123  -0.81331  -0.80707
 Alpha  occ. eigenvalues --   -0.79766  -0.78922  -0.77139  -0.76692  -0.76314
 Alpha  occ. eigenvalues --   -0.76066  -0.75521  -0.74646  -0.74369  -0.73785
 Alpha  occ. eigenvalues --   -0.73636  -0.72966  -0.72731  -0.72165  -0.70456
 Alpha  occ. eigenvalues --   -0.70296  -0.69618  -0.68502  -0.68304  -0.68083
 Alpha  occ. eigenvalues --   -0.67437  -0.67389  -0.66689  -0.66350  -0.65793
 Alpha  occ. eigenvalues --   -0.65545  -0.65376  -0.64826  -0.64193  -0.63201
 Alpha  occ. eigenvalues --   -0.63157  -0.62806  -0.62530  -0.61999  -0.61899
 Alpha  occ. eigenvalues --   -0.61480  -0.61301  -0.61031  -0.60979  -0.60616
 Alpha  occ. eigenvalues --   -0.60054  -0.60016  -0.59632  -0.59491  -0.59323
 Alpha  occ. eigenvalues --   -0.58000  -0.57807  -0.57321  -0.56649  -0.56193
 Alpha  occ. eigenvalues --   -0.55636  -0.55572  -0.54960  -0.54864  -0.54353
 Alpha  occ. eigenvalues --   -0.54315  -0.54214  -0.54010  -0.53359  -0.52971
 Alpha  occ. eigenvalues --   -0.52562  -0.52386  -0.51909  -0.51603  -0.51265
 Alpha  occ. eigenvalues --   -0.51054  -0.50881  -0.50768  -0.50707  -0.50403
 Alpha  occ. eigenvalues --   -0.50229  -0.49901  -0.49511  -0.48993  -0.48849
 Alpha  occ. eigenvalues --   -0.48561  -0.48423  -0.47986  -0.47455  -0.47365
 Alpha  occ. eigenvalues --   -0.47001  -0.46943  -0.46871  -0.46621  -0.46502
 Alpha  occ. eigenvalues --   -0.46360  -0.46135  -0.45991  -0.45791  -0.45386
 Alpha  occ. eigenvalues --   -0.44923  -0.44783  -0.44702  -0.44546  -0.44376
 Alpha  occ. eigenvalues --   -0.44268  -0.43955  -0.43561  -0.43004  -0.42643
 Alpha  occ. eigenvalues --   -0.42302  -0.41900  -0.40879  -0.39468  -0.38470
 Alpha  occ. eigenvalues --   -0.37937  -0.37276  -0.36671  -0.34380  -0.33896
 Alpha  occ. eigenvalues --   -0.33594  -0.32241  -0.31604  -0.31495  -0.26532
 Alpha  occ. eigenvalues --   -0.21960
 Alpha virt. eigenvalues --   -0.08862  -0.02204  -0.01051   0.00920   0.01731
 Alpha virt. eigenvalues --    0.02632   0.02914   0.03109   0.04029   0.04300
 Alpha virt. eigenvalues --    0.05626   0.05990   0.06503   0.07270   0.07641

 Mulliken charges:
               1
     1  Mg   0.431165
     2  C   -0.032560
     3  C   -0.103485
     4  C   -0.073260
     5  C   -0.055295
     6  N   -0.291287
     7  C    0.102638
     8  C   -0.012109
     9  C    0.005737
    10  C    0.163486
    11  C   -0.049485
    12  C   -0.010498
    13  C    0.012340
    14  C    0.468049
    15  O   -0.500606
    16  O   -0.291889
    17  N   -0.329965
    18  C    0.133229
    19  C    0.031550
    20  C   -0.055398
    21  C    0.142775
    22  C   -0.036475
    23  C    0.341783
    24  O   -0.522450
    25  C   -0.025413
    26  N   -0.263328
    27  C    0.168001
    28  C    0.016647
    29  C    0.002894
    30  C    0.091912
    31  C   -0.053382
    32  C   -0.027069
    33  C   -0.068041
    34  N   -0.316040
    35  C    0.046255
    36  C    0.026125
    37  C   -0.057437
    38  C    0.111771
    39  C   -0.031771
    40  C    0.332298
    41  O   -0.536419
    42  C    0.055374
    43  C    0.497614
    44  O   -0.551668
    45  O   -0.238693
    46  C    0.070187
    47  C    0.110141
    48  C   -0.096645
    49  C   -0.014476
    50  C   -0.041856
    51  C   -0.020428
    52  C   -0.034815
    53  C   -0.048338
    54  C   -0.010927
    55  C   -0.059321
    56  C   -0.036735
    57  C   -0.034447
    58  C   -0.038333
    59  C   -0.018124
    60  C   -0.062725
    61  C   -0.031363
    62  C   -0.027321
    63  C   -0.024170
    64  C   -0.019219
    65  C   -0.065163
    66  C   -0.056936
    67  H    0.025331
    68  H    0.047290
    69  H    0.027108
    70  H    0.041156
    71  H    0.031909
    72  H    0.028729
    73  H    0.019138
    74  H    0.018688
    75  H    0.032064
    76  H    0.026842
    77  H    0.040140
    78  H    0.041634
    79  H    0.031946
    80  H    0.035263
    81  H    0.023028
    82  H    0.044020
    83  H    0.031608
    84  H    0.036530
    85  H    0.037718
    86  H    0.025320
    87  H    0.019789
    88  H    0.028616
    89  H    0.032694
    90  H    0.013072
    91  H    0.020028
    92  H    0.015642
    93  H    0.015460
    94  H    0.040658
    95  H    0.026404
    96  H    0.032377
    97  H    0.030348
    98  H    0.045637
    99  H    0.050012
   100  H    0.034472
   101  H    0.027755
   102  H    0.041750
   103  H    0.050491
   104  H    0.034282
   105  H    0.027070
   106  H    0.035969
   107  H    0.019932
   108  H    0.016765
   109  H    0.029798
   110  H    0.023319
   111  H    0.023690
   112  H    0.018247
   113  H    0.020254
   114  H    0.028222
   115  H    0.017683
   116  H    0.020265
   117  H    0.015123
   118  H    0.022903
   119  H    0.014710
   120  H    0.015052
   121  H    0.012412
   122  H    0.020690
   123  H    0.021304
   124  H    0.025581
   125  H    0.008244
   126  H    0.022838
   127  H    0.022077
   128  H    0.022846
   129  H    0.011152
   130  H    0.018123
   131  H    0.010380
   132  H    0.021624
   133  H    0.005893
   134  H    0.020442
   135  H    0.019888
   136  H    0.017323
   137  H    0.023254
   138  H    0.024138
   139  H    0.019656
   140  H    0.011586
 Sum of Mulliken charges =  -0.00000

 Dipole moment (field-independent basis, Debye):
    X=             -3.7736    Y=              9.0936    Z=             -1.3903  Tot=              9.9432
 N-N= 4.251145763177D+03 E-N= 0.000000000000D+00  KE=-9.176198433692D+03
 Leave Link  601 at Wed Apr 27 08:43:36 2022, MaxMem=  6710886400 cpu:               1.1 elap:               0.1
 (Enter /sw/apps/gaussian-16.0/g16/l9999.exe)
 1\1\GINC-BP1-COMPUTE198\SP\RZINDO CIS\STO-3G\C55H74Mg1N4O6\OF15641\27-
 Apr-2022\0\\#p ZINDO=(nstates=5)\\step_1101_chromophore_25 ZINDO\\0,1\
 Mg,0,-2.658,34.599,27.052\C,0,-3.6,32.663,30.056\C,0,-0.996,36.683,29.
 188\C,0,-2.088,36.568,24.39\C,0,-4.603,32.378,25.169\N,0,-2.306,34.506
 ,29.361\C,0,-2.694,33.64,30.351\C,0,-2.221,34.102,31.765\C,0,-1.578,35
 .577,31.41\C,0,-1.647,35.595,29.873\C,0,-2.262,36.758,32.159\C,0,-1.32
 1,33.029,32.427\C,0,-1.82,32.578,33.76\C,0,-0.788,32.666,34.88\O,0,0.1

 Normal termination of Gaussian 16 at Wed Apr 27 08:43:36 2022.
