 Gaussian 16, Revision A.03,
 Gaussian 16:  ES64L-G16RevA.03 25-Dec-2016

 ------------------------------
 #p blyp/Def2SVP td=(nstates=5)
 ------------------------------

 --------------------------------------------------
 step_1801_chromophore_1 TDDFT with blyp functional
 --------------------------------------------------
 Symbolic Z-matrix:
 Charge =  0 Multiplicity = 1

                         Standard orientation:
 ---------------------------------------------------------------------
 Center     Atomic      Atomic             Coordinates (Angstroms)
 Number     Number       Type             X           Y           Z
 ---------------------------------------------------------------------
      1         12           0        6.005790    0.591171   -0.124590
      2          6           0        4.230838   -2.444515   -0.714249
      3          6           0        3.416046    2.270098   -1.471814
      4          6           0        7.944728    3.199412    0.137451
      5          6           0        8.901362   -1.542545    0.519365
      6          7           0        4.040272   -0.121212   -1.061808
      7          6           0        3.420522   -1.339174   -0.984326
      8          6           0        2.036237   -1.204970   -1.516554
      9          6           0        1.872260    0.334469   -1.904112
     10          6           0        3.178391    0.891915   -1.472685
     11          6           0        1.400704    0.664530   -3.346381
     12          6           0        0.959962   -1.767635   -0.612060
     13          6           0       -0.477129   -1.241649   -0.680330
     14          6           0       -1.736136   -2.122234   -0.530018
     15          8           0       -1.757006   -3.347741   -0.445728
     16          8           0       -2.816914   -1.339844   -0.217538
     17          7           0        5.711979    2.464933   -0.503387
     18          6           0        4.561433    2.991058   -1.025362
     19          6           0        4.699656    4.478275   -0.920118
     20          6           0        5.942932    4.804702   -0.362495
     21          6           0        6.655999    3.488294   -0.251999
     22          6           0        3.647075    5.416908   -1.371209
     23          6           0        6.437888    6.185430    0.082777
     24          8           0        7.603354    6.389522    0.497631
     25          6           0        5.560912    7.288804    0.166846
     26          7           0        8.163500    0.802409    0.297792
     27          6           0        8.702863    2.011631    0.344863
     28          6           0       10.228449    1.998864    0.662436
     29          6           0       10.408589    0.512052    1.053330
     30          6           0        9.124505   -0.149091    0.581678
     31          6           0       11.193502    2.453141   -0.502363
     32          6           0       10.681764    0.236966    2.543717
     33          6           0        9.813404    0.987543    3.567357
     34          7           0        6.592271   -1.575328   -0.127798
     35          6           0        7.757796   -2.222902    0.122330
     36          6           0        7.454271   -3.653131    0.048511
     37          6           0        6.120897   -3.690165   -0.204304
     38          6           0        5.663994   -2.455279   -0.442652
     39          6           0        8.267133   -4.843847    0.424699
     40          6           0        5.117688   -4.697371   -0.267202
     41          8           0        5.212666   -5.968475   -0.103155
     42          6           0        3.862398   -3.880681   -0.587529
     43          6           0        2.896308   -4.115569    0.550280
     44          8           0        2.773420   -3.415438    1.583177
     45          8           0        2.083155   -5.200423    0.344434
     46          6           0        1.144766   -5.442953    1.437074
     47          6           0       -3.953120   -2.030286    0.417462
     48          6           0       -5.255926   -1.435774   -0.084087
     49          6           0       -6.506400   -2.034460   -0.211856
     50          6           0       -6.773729   -3.508908    0.189021
     51          6           0       -7.713443   -1.316011   -0.806173
     52          6           0       -8.636499   -0.651380    0.156641
     53          6           0       -8.193477    0.789980    0.663262
     54          6           0       -9.258394    1.836051    0.415259
     55          6           0       -8.588438    3.182531    0.176732
     56          6           0      -10.193064    2.026824    1.675958
     57          6           0      -11.609835    2.670726    1.377394
     58          6           0      -12.630844    2.226055    2.474704
     59          6           0      -14.029168    1.633604    1.971139
     60          6           0      -15.188279    1.835177    3.006798
     61          6           0      -13.867500    0.123785    1.667665
     62          6           0      -14.383069   -0.467449    0.271105
     63          6           0      -13.237452   -0.502785   -0.779388
     64          6           0      -13.551184    0.495180   -1.906765
     65          6           0      -14.830097    0.055403   -2.709579
     66          6           0      -12.283559    0.516516   -2.776941
     67          1           0        2.566173    2.891692   -1.761515
     68          1           0        8.529586    4.113322    0.268470
     69          1           0        9.724373   -2.200569    0.806192
     70          1           0        2.098885   -1.627800   -2.518803
     71          1           0        1.197816    0.835594   -1.209616
     72          1           0        1.974185    1.530196   -3.678988
     73          1           0        0.389902    1.040957   -3.505740
     74          1           0        1.328793   -0.157986   -4.058572
     75          1           0        1.167357   -1.488379    0.421331
     76          1           0        1.028577   -2.825209   -0.868786
     77          1           0       -0.556394   -0.659202   -1.599155
     78          1           0       -0.580746   -0.500042    0.111094
     79          1           0        2.884191    4.926743   -1.975639
     80          1           0        4.069827    6.245945   -1.937969
     81          1           0        3.221956    5.813376   -0.448606
     82          1           0        4.635262    7.082437    0.702635
     83          1           0        5.347101    7.651809   -0.838814
     84          1           0        6.053959    8.076870    0.737111
     85          1           0       10.325394    2.600614    1.566117
     86          1           0       11.184410    0.042587    0.449125
     87          1           0       11.954026    1.705271   -0.726692
     88          1           0       11.744140    3.365700   -0.272308
     89          1           0       10.465670    2.542454   -1.309431
     90          1           0       11.671655    0.654960    2.725289
     91          1           0       10.744536   -0.842664    2.682254
     92          1           0       10.518556    1.580165    4.149954
     93          1           0        9.347699    0.250965    4.222732
     94          1           0        9.035422    1.678690    3.242146
     95          1           0        9.226481   -4.522606    0.831917
     96          1           0        8.521436   -5.294121   -0.534560
     97          1           0        7.921349   -5.657474    1.062512
     98          1           0        3.563685   -4.183736   -1.591670
     99          1           0        0.229727   -4.930516    1.138361
    100          1           0        1.498338   -5.137559    2.421772
    101          1           0        0.917041   -6.508995    1.461241
    102          1           0       -3.795788   -1.954784    1.493185
    103          1           0       -3.995947   -3.108339    0.261211
    104          1           0       -5.097212   -0.469495   -0.563508
    105          1           0       -5.952015   -4.160597    0.485604
    106          1           0       -7.112671   -3.947131   -0.750420
    107          1           0       -7.488707   -3.503006    1.011951
    108          1           0       -8.318545   -1.972607   -1.430893
    109          1           0       -7.309031   -0.498329   -1.401721
    110          1           0       -8.736331   -1.353351    0.984343
    111          1           0       -9.608409   -0.610106   -0.334839
    112          1           0       -7.251141    1.028454    0.169623
    113          1           0       -7.923838    0.729413    1.718149
    114          1           0       -9.835370    1.562521   -0.468022
    115          1           0       -7.535352    3.088904    0.439731
    116          1           0       -9.027884    3.904253    0.864987
    117          1           0       -8.734340    3.520896   -0.849309
    118          1           0       -9.726204    2.452507    2.564796
    119          1           0      -10.354997    1.011148    2.035635
    120          1           0      -11.981402    2.254423    0.439985
    121          1           0      -11.447417    3.740542    1.247692
    122          1           0      -12.883667    3.168293    2.961532
    123          1           0      -12.226558    1.564011    3.240675
    124          1           0      -14.371113    2.108999    1.051660
    125          1           0      -15.436819    1.024759    3.692969
    126          1           0      -16.043230    2.105365    2.386816
    127          1           0      -14.891052    2.632643    3.686997
    128          1           0      -14.380379   -0.439775    2.446313
    129          1           0      -12.804832   -0.100639    1.764110
    130          1           0      -15.199498    0.174578   -0.057863
    131          1           0      -14.748446   -1.481999    0.432343
    132          1           0      -13.322801   -1.508884   -1.189435
    133          1           0      -12.235095   -0.281004   -0.415332
    134          1           0      -13.761048    1.472485   -1.472671
    135          1           0      -14.826231    0.729774   -3.566758
    136          1           0      -15.822467    0.269204   -2.312532
    137          1           0      -14.743610   -0.940531   -3.144080
    138          1           0      -12.179857    1.502213   -3.230466
    139          1           0      -12.399654   -0.194501   -3.594269
    140          1           0      -11.307640    0.284768   -2.350449
 ---------------------------------------------------------------------

 SCF Done:  E(RB-LYP) =  -3007.35217910     A.U. after   22 cycles

 Excitation energies and oscillator strengths:

 Excited State   1:      Singlet-A      1.7980 eV  689.56 nm  f=0.2855  <S**2>=0.000
     245 -> 248       -0.17979
     245 -> 249        0.10086
     246 -> 247        0.68031
     246 <- 247       -0.13827
 This state for optimization and/or second-order correction.
 Total Energy, E(TD-HF/TD-DFT) =  -3007.28610265
 Copying the excited state density for this state as the 1-particle RhoCI density.

 Excited State   2:      Singlet-A      1.8855 eV  657.57 nm  f=0.0051  <S**2>=0.000
     244 -> 247        0.70070

 Excited State   3:      Singlet-A      2.0164 eV  614.88 nm  f=0.0565  <S**2>=0.000
     245 -> 247        0.64165
     246 -> 248        0.23417
     246 -> 249       -0.12879

 Excited State   4:      Singlet-A      2.1170 eV  585.66 nm  f=0.0004  <S**2>=0.000
     243 -> 247        0.70506

 Excited State   5:      Singlet-A      2.4576 eV  504.49 nm  f=0.0001  <S**2>=0.000
     241 -> 247        0.70706

 The electronic state is 1-A.
 Alpha  occ. eigenvalues --  -46.27662 -18.82463 -18.81258 -18.77290 -18.75758
 Alpha  occ. eigenvalues --  -18.75595 -18.75165 -14.03066 -14.02957 -14.01519
 Alpha  occ. eigenvalues --  -13.99877 -10.04897 -10.03571 -10.00079  -9.98836
 Alpha  occ. eigenvalues --   -9.98198  -9.96594  -9.96547  -9.96517  -9.96426
 Alpha  occ. eigenvalues --   -9.96372  -9.95963  -9.95939  -9.94667  -9.94402
 Alpha  occ. eigenvalues --   -9.94181  -9.94171  -9.94029  -9.94026  -9.93856
 Alpha  occ. eigenvalues --   -9.93789  -9.93549  -9.93409  -9.93346  -9.93335
 Alpha  occ. eigenvalues --   -9.93230  -9.93183  -9.93072  -9.92824  -9.92718
 Alpha  occ. eigenvalues --   -9.92668  -9.92593  -9.92519  -9.92499  -9.92465
 Alpha  occ. eigenvalues --   -9.92329  -9.92230  -9.92152  -9.92135  -9.92020
 Alpha  occ. eigenvalues --   -9.91922  -9.91844  -9.91755  -9.91651  -9.91479
 Alpha  occ. eigenvalues --   -9.91403  -9.91391  -9.91354  -9.91343  -9.91079
 Alpha  occ. eigenvalues --   -9.91026  -9.90796  -9.90715  -9.90570  -9.90455
 Alpha  occ. eigenvalues --   -9.88825  -2.92249  -1.72656  -1.72137  -1.71980
 Alpha  occ. eigenvalues --   -0.98043  -0.96569  -0.90517  -0.89858  -0.88128
 Alpha  occ. eigenvalues --   -0.87502  -0.86805  -0.86132  -0.85525  -0.84526
 Alpha  occ. eigenvalues --   -0.76053  -0.73715  -0.73124  -0.72514  -0.72509
 Alpha  occ. eigenvalues --   -0.71940  -0.71844  -0.71561  -0.70744  -0.70631
 Alpha  occ. eigenvalues --   -0.69574  -0.69277  -0.68285  -0.67325  -0.67225
 Alpha  occ. eigenvalues --   -0.66919  -0.66285  -0.65480  -0.64781  -0.64335
 Alpha  occ. eigenvalues --   -0.64204  -0.62972  -0.62750  -0.61923  -0.60540
 Alpha  occ. eigenvalues --   -0.60465  -0.60219  -0.59776  -0.58979  -0.58824
 Alpha  occ. eigenvalues --   -0.58463  -0.57569  -0.57435  -0.56026  -0.55347
 Alpha  occ. eigenvalues --   -0.53950  -0.53649  -0.53064  -0.52381  -0.51726
 Alpha  occ. eigenvalues --   -0.51299  -0.50902  -0.50519  -0.50189  -0.49919
 Alpha  occ. eigenvalues --   -0.49492  -0.49166  -0.48685  -0.47558  -0.46626
 Alpha  occ. eigenvalues --   -0.46464  -0.46237  -0.45675  -0.45332  -0.44944
 Alpha  occ. eigenvalues --   -0.44570  -0.44229  -0.43089  -0.42967  -0.42425
 Alpha  occ. eigenvalues --   -0.42378  -0.42028  -0.41647  -0.41545  -0.41396
 Alpha  occ. eigenvalues --   -0.41123  -0.40585  -0.40511  -0.40273  -0.39948
 Alpha  occ. eigenvalues --   -0.39872  -0.39567  -0.39452  -0.39307  -0.39069
 Alpha  occ. eigenvalues --   -0.38989  -0.38596  -0.38563  -0.38468  -0.38223
 Alpha  occ. eigenvalues --   -0.38138  -0.38040  -0.37810  -0.37423  -0.37346
 Alpha  occ. eigenvalues --   -0.37206  -0.37129  -0.36694  -0.36530  -0.36481
 Alpha  occ. eigenvalues --   -0.36401  -0.36358  -0.35934  -0.35754  -0.35580
 Alpha  occ. eigenvalues --   -0.35492  -0.35378  -0.35227  -0.35019  -0.34670
 Alpha  occ. eigenvalues --   -0.34651  -0.34515  -0.34220  -0.34095  -0.33930
 Alpha  occ. eigenvalues --   -0.33919  -0.33530  -0.33496  -0.33300  -0.32955
 Alpha  occ. eigenvalues --   -0.32838  -0.32106  -0.31953  -0.31862  -0.31725
 Alpha  occ. eigenvalues --   -0.31640  -0.31506  -0.31428  -0.31211  -0.31167
 Alpha  occ. eigenvalues --   -0.30924  -0.30769  -0.30721  -0.30396  -0.30317
 Alpha  occ. eigenvalues --   -0.30019  -0.29993  -0.29946  -0.29837  -0.29773
 Alpha  occ. eigenvalues --   -0.29467  -0.29418  -0.29115  -0.28725  -0.28611
 Alpha  occ. eigenvalues --   -0.28500  -0.28466  -0.28429  -0.28305  -0.27997
 Alpha  occ. eigenvalues --   -0.27929  -0.27692  -0.27313  -0.27032  -0.26316
 Alpha  occ. eigenvalues --   -0.26281  -0.26147  -0.25741  -0.25401  -0.25295
 Alpha  occ. eigenvalues --   -0.25075  -0.24289  -0.23853  -0.23659  -0.23605
 Alpha  occ. eigenvalues --   -0.23018  -0.22255  -0.21802  -0.21144  -0.21032
 Alpha  occ. eigenvalues --   -0.20251  -0.19775  -0.18900  -0.18038  -0.17090
 Alpha  occ. eigenvalues --   -0.15595
 Alpha virt. eigenvalues --   -0.11219  -0.07220  -0.06345  -0.05038  -0.03596
 Alpha virt. eigenvalues --   -0.02755  -0.02649  -0.02042  -0.01425  -0.00065
 Alpha virt. eigenvalues --    0.01461   0.01692   0.01838   0.02292   0.02927

 Mulliken charges:
               1
     1  Mg   0.702198
     2  C   -0.066025
     3  C   -0.075346
     4  C   -0.032906
     5  C   -0.078424
     6  N   -0.226376
     7  C   -0.070422
     8  C    0.027664
     9  C    0.004023
    10  C    0.010077
    11  C    0.127187
    12  C    0.167381
    13  C    0.087296
    14  C    0.113076
    15  O   -0.185610
    16  O   -0.279483
    17  N   -0.397150
    18  C    0.174438
    19  C   -0.179991
    20  C    0.066367
    21  C    0.113080
    22  C    0.194109
    23  C   -0.076577
    24  O   -0.188954
    25  C    0.161222
    26  N   -0.173931
    27  C   -0.026590
    28  C    0.031144
    29  C    0.038622
    30  C    0.006114
    31  C    0.138146
    32  C    0.091974
    33  C    0.053196
    34  N   -0.181950
    35  C    0.081559
    36  C   -0.171945
    37  C    0.113307
    38  C    0.094282
    39  C    0.184282
    40  C   -0.065140
    41  O   -0.190992
    42  C    0.122293
    43  C    0.150530
    44  O   -0.226660
    45  O   -0.257930
    46  C    0.207429
    47  C    0.307716
    48  C   -0.094418
    49  C   -0.142229
    50  C    0.115988
    51  C    0.128002
    52  C    0.071113
    53  C    0.127063
    54  C   -0.081438
    55  C    0.132835
    56  C    0.036551
    57  C    0.103564
    58  C    0.096213
    59  C   -0.085753
    60  C    0.102362
    61  C    0.096238
    62  C    0.079064
    63  C    0.087670
    64  C   -0.098233
    65  C    0.093351
    66  C    0.101472
    67  H   -0.066459
    68  H   -0.052652
    69  H   -0.065474
    70  H   -0.028821
    71  H   -0.027479
    72  H   -0.011281
    73  H   -0.021622
    74  H   -0.005428
    75  H   -0.013872
    76  H    0.014586
    77  H   -0.007318
    78  H    0.003547
    79  H   -0.006883
    80  H   -0.002528
    81  H    0.000746
    82  H    0.002938
    83  H    0.008091
    84  H   -0.005574
    85  H   -0.023926
    86  H   -0.042126
    87  H   -0.005639
    88  H    0.003130
    89  H    0.004365
    90  H   -0.025204
    91  H   -0.015871
    92  H   -0.012169
    93  H   -0.004125
    94  H    0.014265
    95  H   -0.039782
    96  H   -0.006508
    97  H    0.019336
    98  H    0.004172
    99  H    0.016152
   100  H    0.025719
   101  H    0.006448
   102  H   -0.000891
   103  H    0.005502
   104  H   -0.028103
   105  H   -0.012939
   106  H    0.004503
   107  H    0.010753
   108  H   -0.034114
   109  H   -0.034798
   110  H   -0.041127
   111  H   -0.019077
   112  H   -0.039168
   113  H   -0.035857
   114  H   -0.035074
   115  H   -0.023529
   116  H   -0.023838
   117  H   -0.016168
   118  H   -0.029849
   119  H   -0.043780
   120  H   -0.029673
   121  H   -0.019818
   122  H   -0.041196
   123  H   -0.020621
   124  H   -0.038583
   125  H   -0.011828
   126  H   -0.009943
   127  H   -0.027738
   128  H   -0.042772
   129  H   -0.037894
   130  H   -0.026559
   131  H   -0.038125
   132  H   -0.039970
   133  H   -0.005281
   134  H   -0.023296
   135  H   -0.030654
   136  H   -0.005728
   137  H   -0.010434
   138  H   -0.022920
   139  H   -0.026358
   140  H   -0.011533
 Sum of Mulliken charges =  -0.00000

 Dipole moment (field-independent basis, Debye):
    X=             -3.5538    Y=              4.7249    Z=             -0.7168  Tot=              5.9555
 Quadrupole moment (field-independent basis, Debye-Ang):
   XX=           -375.1742   YY=           -438.6207   ZZ=           -399.9036
   XY=              7.9117   XZ=              6.0524   YZ=             -7.3715

 Normal termination of Gaussian 16 at Wed May  4 14:27:03 2022.
