 Gaussian 16, Revision A.03,
 Gaussian 16:  ES64L-G16RevA.03 25-Dec-2016

 -----------------------------------
 #p cam-b3lyp/Def2SVP td=(nstates=5)
 -----------------------------------

 -------------------------------------------------------
 step_1801_chromophore_1 TDDFT with cam-b3lyp functional
 -------------------------------------------------------
 Symbolic Z-matrix:
 Charge =  0 Multiplicity = 1

                         Standard orientation:
 ---------------------------------------------------------------------
 Center     Atomic      Atomic             Coordinates (Angstroms)
 Number     Number       Type             X           Y           Z
 ---------------------------------------------------------------------
      1         12           0        6.005790    0.591171   -0.124590
      2          6           0        4.230838   -2.444515   -0.714249
      3          6           0        3.416046    2.270098   -1.471814
      4          6           0        7.944728    3.199412    0.137451
      5          6           0        8.901362   -1.542545    0.519365
      6          7           0        4.040272   -0.121212   -1.061808
      7          6           0        3.420522   -1.339174   -0.984326
      8          6           0        2.036237   -1.204970   -1.516554
      9          6           0        1.872260    0.334469   -1.904112
     10          6           0        3.178391    0.891915   -1.472685
     11          6           0        1.400704    0.664530   -3.346381
     12          6           0        0.959962   -1.767635   -0.612060
     13          6           0       -0.477129   -1.241649   -0.680330
     14          6           0       -1.736136   -2.122234   -0.530018
     15          8           0       -1.757006   -3.347741   -0.445728
     16          8           0       -2.816914   -1.339844   -0.217538
     17          7           0        5.711979    2.464933   -0.503387
     18          6           0        4.561433    2.991058   -1.025362
     19          6           0        4.699656    4.478275   -0.920118
     20          6           0        5.942932    4.804702   -0.362495
     21          6           0        6.655999    3.488294   -0.251999
     22          6           0        3.647075    5.416908   -1.371209
     23          6           0        6.437888    6.185430    0.082777
     24          8           0        7.603354    6.389522    0.497631
     25          6           0        5.560912    7.288804    0.166846
     26          7           0        8.163500    0.802409    0.297792
     27          6           0        8.702863    2.011631    0.344863
     28          6           0       10.228449    1.998864    0.662436
     29          6           0       10.408589    0.512052    1.053330
     30          6           0        9.124505   -0.149091    0.581678
     31          6           0       11.193502    2.453141   -0.502363
     32          6           0       10.681764    0.236966    2.543717
     33          6           0        9.813404    0.987543    3.567357
     34          7           0        6.592271   -1.575328   -0.127798
     35          6           0        7.757796   -2.222902    0.122330
     36          6           0        7.454271   -3.653131    0.048511
     37          6           0        6.120897   -3.690165   -0.204304
     38          6           0        5.663994   -2.455279   -0.442652
     39          6           0        8.267133   -4.843847    0.424699
     40          6           0        5.117688   -4.697371   -0.267202
     41          8           0        5.212666   -5.968475   -0.103155
     42          6           0        3.862398   -3.880681   -0.587529
     43          6           0        2.896308   -4.115569    0.550280
     44          8           0        2.773420   -3.415438    1.583177
     45          8           0        2.083155   -5.200423    0.344434
     46          6           0        1.144766   -5.442953    1.437074
     47          6           0       -3.953120   -2.030286    0.417462
     48          6           0       -5.255926   -1.435774   -0.084087
     49          6           0       -6.506400   -2.034460   -0.211856
     50          6           0       -6.773729   -3.508908    0.189021
     51          6           0       -7.713443   -1.316011   -0.806173
     52          6           0       -8.636499   -0.651380    0.156641
     53          6           0       -8.193477    0.789980    0.663262
     54          6           0       -9.258394    1.836051    0.415259
     55          6           0       -8.588438    3.182531    0.176732
     56          6           0      -10.193064    2.026824    1.675958
     57          6           0      -11.609835    2.670726    1.377394
     58          6           0      -12.630844    2.226055    2.474704
     59          6           0      -14.029168    1.633604    1.971139
     60          6           0      -15.188279    1.835177    3.006798
     61          6           0      -13.867500    0.123785    1.667665
     62          6           0      -14.383069   -0.467449    0.271105
     63          6           0      -13.237452   -0.502785   -0.779388
     64          6           0      -13.551184    0.495180   -1.906765
     65          6           0      -14.830097    0.055403   -2.709579
     66          6           0      -12.283559    0.516516   -2.776941
     67          1           0        2.566173    2.891692   -1.761515
     68          1           0        8.529586    4.113322    0.268470
     69          1           0        9.724373   -2.200569    0.806192
     70          1           0        2.098885   -1.627800   -2.518803
     71          1           0        1.197816    0.835594   -1.209616
     72          1           0        1.974185    1.530196   -3.678988
     73          1           0        0.389902    1.040957   -3.505740
     74          1           0        1.328793   -0.157986   -4.058572
     75          1           0        1.167357   -1.488379    0.421331
     76          1           0        1.028577   -2.825209   -0.868786
     77          1           0       -0.556394   -0.659202   -1.599155
     78          1           0       -0.580746   -0.500042    0.111094
     79          1           0        2.884191    4.926743   -1.975639
     80          1           0        4.069827    6.245945   -1.937969
     81          1           0        3.221956    5.813376   -0.448606
     82          1           0        4.635262    7.082437    0.702635
     83          1           0        5.347101    7.651809   -0.838814
     84          1           0        6.053959    8.076870    0.737111
     85          1           0       10.325394    2.600614    1.566117
     86          1           0       11.184410    0.042587    0.449125
     87          1           0       11.954026    1.705271   -0.726692
     88          1           0       11.744140    3.365700   -0.272308
     89          1           0       10.465670    2.542454   -1.309431
     90          1           0       11.671655    0.654960    2.725289
     91          1           0       10.744536   -0.842664    2.682254
     92          1           0       10.518556    1.580165    4.149954
     93          1           0        9.347699    0.250965    4.222732
     94          1           0        9.035422    1.678690    3.242146
     95          1           0        9.226481   -4.522606    0.831917
     96          1           0        8.521436   -5.294121   -0.534560
     97          1           0        7.921349   -5.657474    1.062512
     98          1           0        3.563685   -4.183736   -1.591670
     99          1           0        0.229727   -4.930516    1.138361
    100          1           0        1.498338   -5.137559    2.421772
    101          1           0        0.917041   -6.508995    1.461241
    102          1           0       -3.795788   -1.954784    1.493185
    103          1           0       -3.995947   -3.108339    0.261211
    104          1           0       -5.097212   -0.469495   -0.563508
    105          1           0       -5.952015   -4.160597    0.485604
    106          1           0       -7.112671   -3.947131   -0.750420
    107          1           0       -7.488707   -3.503006    1.011951
    108          1           0       -8.318545   -1.972607   -1.430893
    109          1           0       -7.309031   -0.498329   -1.401721
    110          1           0       -8.736331   -1.353351    0.984343
    111          1           0       -9.608409   -0.610106   -0.334839
    112          1           0       -7.251141    1.028454    0.169623
    113          1           0       -7.923838    0.729413    1.718149
    114          1           0       -9.835370    1.562521   -0.468022
    115          1           0       -7.535352    3.088904    0.439731
    116          1           0       -9.027884    3.904253    0.864987
    117          1           0       -8.734340    3.520896   -0.849309
    118          1           0       -9.726204    2.452507    2.564796
    119          1           0      -10.354997    1.011148    2.035635
    120          1           0      -11.981402    2.254423    0.439985
    121          1           0      -11.447417    3.740542    1.247692
    122          1           0      -12.883667    3.168293    2.961532
    123          1           0      -12.226558    1.564011    3.240675
    124          1           0      -14.371113    2.108999    1.051660
    125          1           0      -15.436819    1.024759    3.692969
    126          1           0      -16.043230    2.105365    2.386816
    127          1           0      -14.891052    2.632643    3.686997
    128          1           0      -14.380379   -0.439775    2.446313
    129          1           0      -12.804832   -0.100639    1.764110
    130          1           0      -15.199498    0.174578   -0.057863
    131          1           0      -14.748446   -1.481999    0.432343
    132          1           0      -13.322801   -1.508884   -1.189435
    133          1           0      -12.235095   -0.281004   -0.415332
    134          1           0      -13.761048    1.472485   -1.472671
    135          1           0      -14.826231    0.729774   -3.566758
    136          1           0      -15.822467    0.269204   -2.312532
    137          1           0      -14.743610   -0.940531   -3.144080
    138          1           0      -12.179857    1.502213   -3.230466
    139          1           0      -12.399654   -0.194501   -3.594269
    140          1           0      -11.307640    0.284768   -2.350449
 ---------------------------------------------------------------------

 SCF Done:  E(RCAM-B3LYP) =  -3007.14367424     A.U. after   19 cycles

 Excitation energies and oscillator strengths:

 Excited State   1:      Singlet-A      1.7611 eV  704.02 nm  f=0.3616  <S**2>=0.000
     245 -> 248       -0.17763
     246 -> 247        0.68285
     245 <- 248       -0.10173
 This state for optimization and/or second-order correction.
 Total Energy, E(TD-HF/TD-DFT) =  -3007.07895569
 Copying the excited state density for this state as the 1-particle RhoCI density.

 Excited State   2:      Singlet-A      2.2707 eV  546.03 nm  f=0.0692  <S**2>=0.000
     245 -> 247        0.62038
     246 -> 248        0.32052

 Excited State   3:      Singlet-A      3.3740 eV  367.47 nm  f=0.0123  <S**2>=0.000
     242 -> 247        0.21937
     242 -> 249        0.18657
     242 -> 250        0.16261
     244 -> 247        0.56653
     244 -> 249        0.10154
     246 -> 248       -0.16461

 Excited State   4:      Singlet-A      3.4452 eV  359.88 nm  f=0.6223  <S**2>=0.000
     242 -> 247        0.18366
     242 -> 249        0.13150
     242 -> 250        0.10825
     245 -> 247       -0.29408
     246 -> 248        0.57586

 Excited State   5:      Singlet-A      3.5136 eV  352.87 nm  f=0.0871  <S**2>=0.000
     241 -> 247        0.10321
     242 -> 247        0.42958
     242 -> 249        0.24465
     242 -> 250        0.19702
     244 -> 247       -0.36374
     245 -> 247        0.10686
     246 -> 248       -0.15675

 The electronic state is 1-A.
 Alpha  occ. eigenvalues --  -46.89303 -19.25329 -19.24004 -19.20238 -19.19276
 Alpha  occ. eigenvalues --  -19.18667 -19.17964 -14.42152 -14.41681 -14.40296
 Alpha  occ. eigenvalues --  -14.37986 -10.40213 -10.38981 -10.35730 -10.33953
 Alpha  occ. eigenvalues --  -10.32234 -10.31664 -10.31398 -10.31389 -10.31152
 Alpha  occ. eigenvalues --  -10.30549 -10.29919 -10.29728 -10.29616 -10.28563
 Alpha  occ. eigenvalues --  -10.28256 -10.28252 -10.28227 -10.28119 -10.28026
 Alpha  occ. eigenvalues --  -10.27904 -10.27898 -10.27693 -10.27364 -10.27317
 Alpha  occ. eigenvalues --  -10.27157 -10.26939 -10.26932 -10.26679 -10.26660
 Alpha  occ. eigenvalues --  -10.26543 -10.26440 -10.26439 -10.26339 -10.26294
 Alpha  occ. eigenvalues --  -10.26229 -10.26227 -10.26218 -10.26001 -10.25837
 Alpha  occ. eigenvalues --  -10.25637 -10.25555 -10.25327 -10.25273 -10.25201
 Alpha  occ. eigenvalues --  -10.25136 -10.25035 -10.24976 -10.24785 -10.24752
 Alpha  occ. eigenvalues --  -10.24641 -10.24404 -10.24385 -10.24266 -10.24030
 Alpha  occ. eigenvalues --  -10.22266  -3.17789  -1.92672  -1.92229  -1.92117
 Alpha  occ. eigenvalues --   -1.16471  -1.14890  -1.09320  -1.07677  -1.05956
 Alpha  occ. eigenvalues --   -1.05224  -1.04394  -1.03738  -1.03226  -1.02343
 Alpha  occ. eigenvalues --   -0.93000  -0.90583  -0.89884  -0.89340  -0.89289
 Alpha  occ. eigenvalues --   -0.88734  -0.88630  -0.88507  -0.87376  -0.87201
 Alpha  occ. eigenvalues --   -0.85846  -0.85569  -0.84590  -0.83838  -0.83375
 Alpha  occ. eigenvalues --   -0.83161  -0.82338  -0.81440  -0.80591  -0.80094
 Alpha  occ. eigenvalues --   -0.79952  -0.78881  -0.78406  -0.77359  -0.75891
 Alpha  occ. eigenvalues --   -0.75741  -0.75553  -0.75028  -0.74220  -0.73939
 Alpha  occ. eigenvalues --   -0.73648  -0.72517  -0.72340  -0.70915  -0.69974
 Alpha  occ. eigenvalues --   -0.68648  -0.68209  -0.67655  -0.66787  -0.65978
 Alpha  occ. eigenvalues --   -0.65465  -0.65014  -0.64446  -0.64113  -0.63936
 Alpha  occ. eigenvalues --   -0.63279  -0.63116  -0.62566  -0.61125  -0.60512
 Alpha  occ. eigenvalues --   -0.59958  -0.59701  -0.59175  -0.58681  -0.58457
 Alpha  occ. eigenvalues --   -0.58024  -0.57550  -0.56412  -0.56139  -0.55363
 Alpha  occ. eigenvalues --   -0.55273  -0.55154  -0.54614  -0.54454  -0.54400
 Alpha  occ. eigenvalues --   -0.54150  -0.53931  -0.53280  -0.52977  -0.52853
 Alpha  occ. eigenvalues --   -0.52733  -0.52392  -0.52016  -0.51762  -0.51596
 Alpha  occ. eigenvalues --   -0.51373  -0.51200  -0.51081  -0.50803  -0.50725
 Alpha  occ. eigenvalues --   -0.50451  -0.50409  -0.50191  -0.50010  -0.49511
 Alpha  occ. eigenvalues --   -0.49486  -0.49464  -0.49272  -0.48785  -0.48616
 Alpha  occ. eigenvalues --   -0.48426  -0.48399  -0.48180  -0.48108  -0.47792
 Alpha  occ. eigenvalues --   -0.47705  -0.47379  -0.47215  -0.47005  -0.46811
 Alpha  occ. eigenvalues --   -0.46556  -0.46459  -0.45968  -0.45884  -0.45728
 Alpha  occ. eigenvalues --   -0.45629  -0.45416  -0.45313  -0.44963  -0.44591
 Alpha  occ. eigenvalues --   -0.44513  -0.44028  -0.43582  -0.43406  -0.43332
 Alpha  occ. eigenvalues --   -0.43129  -0.43060  -0.42931  -0.42873  -0.42512
 Alpha  occ. eigenvalues --   -0.42420  -0.42235  -0.42069  -0.42032  -0.41735
 Alpha  occ. eigenvalues --   -0.41622  -0.41376  -0.41239  -0.41044  -0.40938
 Alpha  occ. eigenvalues --   -0.40844  -0.40661  -0.40490  -0.40300  -0.39649
 Alpha  occ. eigenvalues --   -0.39548  -0.39456  -0.39420  -0.39247  -0.39046
 Alpha  occ. eigenvalues --   -0.38885  -0.38483  -0.38129  -0.37947  -0.37462
 Alpha  occ. eigenvalues --   -0.37084  -0.37077  -0.36827  -0.36313  -0.36264
 Alpha  occ. eigenvalues --   -0.35597  -0.35024  -0.34749  -0.34421  -0.34020
 Alpha  occ. eigenvalues --   -0.33811  -0.33310  -0.33225  -0.31978  -0.31298
 Alpha  occ. eigenvalues --   -0.30674  -0.29984  -0.29758  -0.28646  -0.23913
 Alpha  occ. eigenvalues --   -0.20903
 Alpha virt. eigenvalues --   -0.08126  -0.02055  -0.00028   0.01776   0.02350
 Alpha virt. eigenvalues --    0.04360   0.04709   0.05549   0.06011   0.06641
 Alpha virt. eigenvalues --    0.07668   0.07901   0.08397   0.09001   0.09208

 Mulliken charges:
               1
     1  Mg   0.833455
     2  C   -0.079362
     3  C   -0.099783
     4  C   -0.053937
     5  C   -0.074102
     6  N   -0.298502
     7  C   -0.025435
     8  C   -0.021901
     9  C   -0.058221
    10  C    0.044827
    11  C    0.065951
    12  C    0.107796
    13  C    0.015778
    14  C    0.198578
    15  O   -0.228375
    16  O   -0.344946
    17  N   -0.489080
    18  C    0.194882
    19  C   -0.184510
    20  C    0.000715
    21  C    0.140445
    22  C    0.130673
    23  C    0.012700
    24  O   -0.226721
    25  C    0.065036
    26  N   -0.237230
    27  C   -0.009971
    28  C   -0.025136
    29  C   -0.012845
    30  C    0.012930
    31  C    0.082323
    32  C    0.042415
    33  C   -0.013575
    34  N   -0.265670
    35  C    0.074996
    36  C   -0.166752
    37  C    0.031236
    38  C    0.128295
    39  C    0.128173
    40  C    0.033323
    41  O   -0.232304
    42  C    0.037536
    43  C    0.230857
    44  O   -0.264882
    45  O   -0.318878
    46  C    0.169054
    47  C    0.277938
    48  C   -0.117239
    49  C   -0.167753
    50  C    0.057652
    51  C    0.070008
    52  C    0.024043
    53  C    0.069609
    54  C   -0.134281
    55  C    0.073787
    56  C   -0.014903
    57  C    0.059586
    58  C    0.039586
    59  C   -0.141572
    60  C    0.046643
    61  C    0.048171
    62  C    0.026082
    63  C    0.038078
    64  C   -0.156240
    65  C    0.033448
    66  C    0.043338
    67  H   -0.032995
    68  H   -0.010709
    69  H   -0.030002
    70  H    0.007749
    71  H    0.008229
    72  H    0.014975
    73  H    0.004657
    74  H    0.021617
    75  H    0.020442
    76  H    0.043135
    77  H    0.022423
    78  H    0.035630
    79  H    0.023114
    80  H    0.025355
    81  H    0.029216
    82  H    0.033276
    83  H    0.037430
    84  H    0.033642
    85  H    0.011804
    86  H   -0.005362
    87  H    0.019369
    88  H    0.027196
    89  H    0.028259
    90  H    0.002554
    91  H    0.011588
    92  H    0.011691
    93  H    0.021413
    94  H    0.033462
    95  H   -0.016433
    96  H    0.019422
    97  H    0.046456
    98  H    0.047637
    99  H    0.036523
   100  H    0.050870
   101  H    0.029463
   102  H    0.026524
   103  H    0.035647
   104  H    0.004806
   105  H    0.012711
   106  H    0.027550
   107  H    0.032297
   108  H   -0.002173
   109  H   -0.004549
   110  H   -0.014108
   111  H    0.004426
   112  H   -0.010711
   113  H   -0.005225
   114  H   -0.006604
   115  H    0.001601
   116  H    0.000261
   117  H    0.008368
   118  H   -0.000734
   119  H   -0.018169
   120  H   -0.008024
   121  H    0.007027
   122  H   -0.011169
   123  H    0.007460
   124  H   -0.008290
   125  H    0.011626
   126  H    0.013391
   127  H   -0.003116
   128  H   -0.013466
   129  H   -0.011663
   130  H   -0.001631
   131  H   -0.006796
   132  H   -0.010501
   133  H    0.012468
   134  H    0.004204
   135  H   -0.005213
   136  H    0.019090
   137  H    0.012835
   138  H    0.002707
   139  H   -0.000697
   140  H    0.008900
 Sum of Mulliken charges =  -0.00000

 Dipole moment (field-independent basis, Debye):
    X=             -3.7394    Y=              6.2662    Z=             -0.8746  Tot=              7.3494
 Quadrupole moment (field-independent basis, Debye-Ang):
   XX=           -376.4170   YY=           -434.3224   ZZ=           -399.4256
   XY=             15.8038   XZ=              5.9925   YZ=             -8.2521

 Normal termination of Gaussian 16 at Wed May  4 13:27:17 2022.
