 Gaussian 16, Revision A.03,
 Gaussian 16:  ES64L-G16RevA.03 25-Dec-2016

 ---------------------------------
 #p PBE1PBE/Def2SVP td=(nstates=5)
 ---------------------------------

 -----------------------------------------------------
 step_1801_chromophore_1 TDDFT with PBE1PBE functional
 -----------------------------------------------------
 Symbolic Z-matrix:
 Charge =  0 Multiplicity = 1

                         Standard orientation:
 ---------------------------------------------------------------------
 Center     Atomic      Atomic             Coordinates (Angstroms)
 Number     Number       Type             X           Y           Z
 ---------------------------------------------------------------------
      1         12           0        6.005790    0.591171   -0.124590
      2          6           0        4.230838   -2.444515   -0.714249
      3          6           0        3.416046    2.270098   -1.471814
      4          6           0        7.944728    3.199412    0.137451
      5          6           0        8.901362   -1.542545    0.519365
      6          7           0        4.040272   -0.121212   -1.061808
      7          6           0        3.420522   -1.339174   -0.984326
      8          6           0        2.036237   -1.204970   -1.516554
      9          6           0        1.872260    0.334469   -1.904112
     10          6           0        3.178391    0.891915   -1.472685
     11          6           0        1.400704    0.664530   -3.346381
     12          6           0        0.959962   -1.767635   -0.612060
     13          6           0       -0.477129   -1.241649   -0.680330
     14          6           0       -1.736136   -2.122234   -0.530018
     15          8           0       -1.757006   -3.347741   -0.445728
     16          8           0       -2.816914   -1.339844   -0.217538
     17          7           0        5.711979    2.464933   -0.503387
     18          6           0        4.561433    2.991058   -1.025362
     19          6           0        4.699656    4.478275   -0.920118
     20          6           0        5.942932    4.804702   -0.362495
     21          6           0        6.655999    3.488294   -0.251999
     22          6           0        3.647075    5.416908   -1.371209
     23          6           0        6.437888    6.185430    0.082777
     24          8           0        7.603354    6.389522    0.497631
     25          6           0        5.560912    7.288804    0.166846
     26          7           0        8.163500    0.802409    0.297792
     27          6           0        8.702863    2.011631    0.344863
     28          6           0       10.228449    1.998864    0.662436
     29          6           0       10.408589    0.512052    1.053330
     30          6           0        9.124505   -0.149091    0.581678
     31          6           0       11.193502    2.453141   -0.502363
     32          6           0       10.681764    0.236966    2.543717
     33          6           0        9.813404    0.987543    3.567357
     34          7           0        6.592271   -1.575328   -0.127798
     35          6           0        7.757796   -2.222902    0.122330
     36          6           0        7.454271   -3.653131    0.048511
     37          6           0        6.120897   -3.690165   -0.204304
     38          6           0        5.663994   -2.455279   -0.442652
     39          6           0        8.267133   -4.843847    0.424699
     40          6           0        5.117688   -4.697371   -0.267202
     41          8           0        5.212666   -5.968475   -0.103155
     42          6           0        3.862398   -3.880681   -0.587529
     43          6           0        2.896308   -4.115569    0.550280
     44          8           0        2.773420   -3.415438    1.583177
     45          8           0        2.083155   -5.200423    0.344434
     46          6           0        1.144766   -5.442953    1.437074
     47          6           0       -3.953120   -2.030286    0.417462
     48          6           0       -5.255926   -1.435774   -0.084087
     49          6           0       -6.506400   -2.034460   -0.211856
     50          6           0       -6.773729   -3.508908    0.189021
     51          6           0       -7.713443   -1.316011   -0.806173
     52          6           0       -8.636499   -0.651380    0.156641
     53          6           0       -8.193477    0.789980    0.663262
     54          6           0       -9.258394    1.836051    0.415259
     55          6           0       -8.588438    3.182531    0.176732
     56          6           0      -10.193064    2.026824    1.675958
     57          6           0      -11.609835    2.670726    1.377394
     58          6           0      -12.630844    2.226055    2.474704
     59          6           0      -14.029168    1.633604    1.971139
     60          6           0      -15.188279    1.835177    3.006798
     61          6           0      -13.867500    0.123785    1.667665
     62          6           0      -14.383069   -0.467449    0.271105
     63          6           0      -13.237452   -0.502785   -0.779388
     64          6           0      -13.551184    0.495180   -1.906765
     65          6           0      -14.830097    0.055403   -2.709579
     66          6           0      -12.283559    0.516516   -2.776941
     67          1           0        2.566173    2.891692   -1.761515
     68          1           0        8.529586    4.113322    0.268470
     69          1           0        9.724373   -2.200569    0.806192
     70          1           0        2.098885   -1.627800   -2.518803
     71          1           0        1.197816    0.835594   -1.209616
     72          1           0        1.974185    1.530196   -3.678988
     73          1           0        0.389902    1.040957   -3.505740
     74          1           0        1.328793   -0.157986   -4.058572
     75          1           0        1.167357   -1.488379    0.421331
     76          1           0        1.028577   -2.825209   -0.868786
     77          1           0       -0.556394   -0.659202   -1.599155
     78          1           0       -0.580746   -0.500042    0.111094
     79          1           0        2.884191    4.926743   -1.975639
     80          1           0        4.069827    6.245945   -1.937969
     81          1           0        3.221956    5.813376   -0.448606
     82          1           0        4.635262    7.082437    0.702635
     83          1           0        5.347101    7.651809   -0.838814
     84          1           0        6.053959    8.076870    0.737111
     85          1           0       10.325394    2.600614    1.566117
     86          1           0       11.184410    0.042587    0.449125
     87          1           0       11.954026    1.705271   -0.726692
     88          1           0       11.744140    3.365700   -0.272308
     89          1           0       10.465670    2.542454   -1.309431
     90          1           0       11.671655    0.654960    2.725289
     91          1           0       10.744536   -0.842664    2.682254
     92          1           0       10.518556    1.580165    4.149954
     93          1           0        9.347699    0.250965    4.222732
     94          1           0        9.035422    1.678690    3.242146
     95          1           0        9.226481   -4.522606    0.831917
     96          1           0        8.521436   -5.294121   -0.534560
     97          1           0        7.921349   -5.657474    1.062512
     98          1           0        3.563685   -4.183736   -1.591670
     99          1           0        0.229727   -4.930516    1.138361
    100          1           0        1.498338   -5.137559    2.421772
    101          1           0        0.917041   -6.508995    1.461241
    102          1           0       -3.795788   -1.954784    1.493185
    103          1           0       -3.995947   -3.108339    0.261211
    104          1           0       -5.097212   -0.469495   -0.563508
    105          1           0       -5.952015   -4.160597    0.485604
    106          1           0       -7.112671   -3.947131   -0.750420
    107          1           0       -7.488707   -3.503006    1.011951
    108          1           0       -8.318545   -1.972607   -1.430893
    109          1           0       -7.309031   -0.498329   -1.401721
    110          1           0       -8.736331   -1.353351    0.984343
    111          1           0       -9.608409   -0.610106   -0.334839
    112          1           0       -7.251141    1.028454    0.169623
    113          1           0       -7.923838    0.729413    1.718149
    114          1           0       -9.835370    1.562521   -0.468022
    115          1           0       -7.535352    3.088904    0.439731
    116          1           0       -9.027884    3.904253    0.864987
    117          1           0       -8.734340    3.520896   -0.849309
    118          1           0       -9.726204    2.452507    2.564796
    119          1           0      -10.354997    1.011148    2.035635
    120          1           0      -11.981402    2.254423    0.439985
    121          1           0      -11.447417    3.740542    1.247692
    122          1           0      -12.883667    3.168293    2.961532
    123          1           0      -12.226558    1.564011    3.240675
    124          1           0      -14.371113    2.108999    1.051660
    125          1           0      -15.436819    1.024759    3.692969
    126          1           0      -16.043230    2.105365    2.386816
    127          1           0      -14.891052    2.632643    3.686997
    128          1           0      -14.380379   -0.439775    2.446313
    129          1           0      -12.804832   -0.100639    1.764110
    130          1           0      -15.199498    0.174578   -0.057863
    131          1           0      -14.748446   -1.481999    0.432343
    132          1           0      -13.322801   -1.508884   -1.189435
    133          1           0      -12.235095   -0.281004   -0.415332
    134          1           0      -13.761048    1.472485   -1.472671
    135          1           0      -14.826231    0.729774   -3.566758
    136          1           0      -15.822467    0.269204   -2.312532
    137          1           0      -14.743610   -0.940531   -3.144080
    138          1           0      -12.179857    1.502213   -3.230466
    139          1           0      -12.399654   -0.194501   -3.594269
    140          1           0      -11.307640    0.284768   -2.350449
 ---------------------------------------------------------------------

 SCF Done:  E(RPBE1PBE) =  -3005.33289625     A.U. after   16 cycles

 Excitation energies and oscillator strengths:

 Excited State   1:      Singlet-A      1.8719 eV  662.33 nm  f=0.3520  <S**2>=0.000
     245 -> 248       -0.17207
     246 -> 247        0.68919
 This state for optimization and/or second-order correction.
 Total Energy, E(TD-HF/TD-DFT) =  -3005.26410358
 Copying the excited state density for this state as the 1-particle RhoCI density.

 Excited State   2:      Singlet-A      2.2514 eV  550.70 nm  f=0.0738  <S**2>=0.000
     245 -> 247        0.63814
     246 -> 248        0.28265

 Excited State   3:      Singlet-A      2.9133 eV  425.58 nm  f=0.0032  <S**2>=0.000
     242 -> 247        0.32243
     242 -> 249        0.14627
     242 -> 250       -0.10252
     244 -> 247        0.58954

 Excited State   4:      Singlet-A      3.0765 eV  403.01 nm  f=0.0021  <S**2>=0.000
     242 -> 247        0.56874
     242 -> 249        0.10626
     244 -> 247       -0.34914
     246 -> 248        0.14316

 Excited State   5:      Singlet-A      3.1934 eV  388.25 nm  f=0.3068  <S**2>=0.000
     239 -> 247       -0.10343
     242 -> 247       -0.10430
     245 -> 247       -0.22978
     245 -> 250        0.10418
     246 -> 248        0.58259
     246 -> 249        0.23290
     246 -> 250        0.10061

 The electronic state is 1-A.
 Alpha  occ. eigenvalues --  -46.92680 -19.26044 -19.24736 -19.20524 -19.19235
 Alpha  occ. eigenvalues --  -19.19042 -19.18498 -14.41523 -14.41314 -14.39804
 Alpha  occ. eigenvalues --  -14.37776 -10.37257 -10.36114 -10.32571 -10.31325
 Alpha  occ. eigenvalues --  -10.29663 -10.28953 -10.28865 -10.28838 -10.28711
 Alpha  occ. eigenvalues --  -10.28468 -10.27972 -10.27040 -10.26911 -10.26344
 Alpha  occ. eigenvalues --  -10.26016 -10.25955 -10.25952 -10.25921 -10.25680
 Alpha  occ. eigenvalues --  -10.25643 -10.25548 -10.25317 -10.25095 -10.25021
 Alpha  occ. eigenvalues --  -10.24881 -10.24852 -10.24368 -10.24306 -10.24290
 Alpha  occ. eigenvalues --  -10.24236 -10.24124 -10.24012 -10.23903 -10.23861
 Alpha  occ. eigenvalues --  -10.23753 -10.23713 -10.23658 -10.23516 -10.23385
 Alpha  occ. eigenvalues --  -10.23249 -10.23168 -10.22899 -10.22791 -10.22732
 Alpha  occ. eigenvalues --  -10.22727 -10.22616 -10.22402 -10.22399 -10.22337
 Alpha  occ. eigenvalues --  -10.22044 -10.21938 -10.21838 -10.21813 -10.21416
 Alpha  occ. eigenvalues --  -10.20262  -3.14749  -1.87570  -1.87106  -1.87000
 Alpha  occ. eigenvalues --   -1.11302  -1.09749  -1.03761  -1.02557  -1.00859
 Alpha  occ. eigenvalues --   -1.00129  -0.99222  -0.98455  -0.97805  -0.96816
 Alpha  occ. eigenvalues --   -0.87566  -0.84697  -0.84121  -0.83547  -0.83358
 Alpha  occ. eigenvalues --   -0.82879  -0.82749  -0.82715  -0.81681  -0.81308
 Alpha  occ. eigenvalues --   -0.80353  -0.79881  -0.78821  -0.77875  -0.77690
 Alpha  occ. eigenvalues --   -0.77359  -0.76508  -0.75715  -0.74834  -0.74392
 Alpha  occ. eigenvalues --   -0.74182  -0.73024  -0.72749  -0.71723  -0.70151
 Alpha  occ. eigenvalues --   -0.69980  -0.69714  -0.69388  -0.68371  -0.68216
 Alpha  occ. eigenvalues --   -0.67837  -0.66975  -0.66806  -0.65229  -0.64344
 Alpha  occ. eigenvalues --   -0.63068  -0.62450  -0.62057  -0.61094  -0.60316
 Alpha  occ. eigenvalues --   -0.59816  -0.59552  -0.59007  -0.58636  -0.58063
 Alpha  occ. eigenvalues --   -0.57781  -0.57256  -0.56760  -0.55782  -0.54880
 Alpha  occ. eigenvalues --   -0.54423  -0.54275  -0.53772  -0.53337  -0.52925
 Alpha  occ. eigenvalues --   -0.52517  -0.52072  -0.50869  -0.50716  -0.49876
 Alpha  occ. eigenvalues --   -0.49782  -0.49633  -0.49171  -0.48786  -0.48719
 Alpha  occ. eigenvalues --   -0.48667  -0.48297  -0.47695  -0.47595  -0.47411
 Alpha  occ. eigenvalues --   -0.47290  -0.47025  -0.46625  -0.46301  -0.46225
 Alpha  occ. eigenvalues --   -0.45873  -0.45652  -0.45551  -0.45409  -0.45336
 Alpha  occ. eigenvalues --   -0.45080  -0.44912  -0.44788  -0.44562  -0.44109
 Alpha  occ. eigenvalues --   -0.44056  -0.44007  -0.43819  -0.43371  -0.43271
 Alpha  occ. eigenvalues --   -0.43098  -0.43019  -0.42877  -0.42782  -0.42299
 Alpha  occ. eigenvalues --   -0.42222  -0.42024  -0.41906  -0.41703  -0.41564
 Alpha  occ. eigenvalues --   -0.41346  -0.41178  -0.40776  -0.40589  -0.40485
 Alpha  occ. eigenvalues --   -0.40264  -0.40084  -0.40045  -0.39763  -0.39433
 Alpha  occ. eigenvalues --   -0.39293  -0.38633  -0.38399  -0.38129  -0.38048
 Alpha  occ. eigenvalues --   -0.37883  -0.37803  -0.37704  -0.37642  -0.37251
 Alpha  occ. eigenvalues --   -0.37186  -0.37075  -0.36929  -0.36722  -0.36639
 Alpha  occ. eigenvalues --   -0.36271  -0.36193  -0.36003  -0.35877  -0.35838
 Alpha  occ. eigenvalues --   -0.35760  -0.35508  -0.35280  -0.35204  -0.34538
 Alpha  occ. eigenvalues --   -0.34426  -0.34340  -0.34226  -0.33999  -0.33958
 Alpha  occ. eigenvalues --   -0.33721  -0.33299  -0.32960  -0.32902  -0.32456
 Alpha  occ. eigenvalues --   -0.32119  -0.31857  -0.31817  -0.31299  -0.31226
 Alpha  occ. eigenvalues --   -0.30483  -0.30044  -0.29701  -0.29296  -0.29026
 Alpha  occ. eigenvalues --   -0.28962  -0.28883  -0.28131  -0.26885  -0.26336
 Alpha  occ. eigenvalues --   -0.26157  -0.25097  -0.25080  -0.24449  -0.20796
 Alpha  occ. eigenvalues --   -0.18519
 Alpha virt. eigenvalues --   -0.10726  -0.05559  -0.04178  -0.02575  -0.00492
 Alpha virt. eigenvalues --   -0.00199   0.00262   0.01054   0.01436   0.02836
 Alpha virt. eigenvalues --    0.04154   0.04517   0.04864   0.05105   0.05880

 Mulliken charges:
               1
     1  Mg   0.976087
     2  C   -0.085652
     3  C   -0.087166
     4  C   -0.056231
     5  C   -0.073855
     6  N   -0.398002
     7  C    0.056608
     8  C   -0.101631
     9  C   -0.133516
    10  C    0.080580
    11  C    0.010215
    12  C    0.055912
    13  C   -0.066495
    14  C    0.268473
    15  O   -0.263346
    16  O   -0.375570
    17  N   -0.605009
    18  C    0.219049
    19  C   -0.218679
    20  C   -0.046483
    21  C    0.167031
    22  C    0.067835
    23  C    0.065257
    24  O   -0.265228
    25  C   -0.009627
    26  N   -0.339892
    27  C    0.024002
    28  C   -0.097226
    29  C   -0.088869
    30  C    0.060817
    31  C    0.024190
    32  C   -0.021634
    33  C   -0.085233
    34  N   -0.391657
    35  C    0.105237
    36  C   -0.185416
    37  C   -0.016691
    38  C    0.186939
    39  C    0.073954
    40  C    0.122133
    41  O   -0.275346
    42  C   -0.066429
    43  C    0.311492
    44  O   -0.296689
    45  O   -0.349923
    46  C    0.112655
    47  C    0.239741
    48  C   -0.129382
    49  C   -0.210472
    50  C   -0.003078
    51  C    0.003797
    52  C   -0.047993
    53  C    0.019014
    54  C   -0.230382
    55  C    0.017881
    56  C   -0.072357
    57  C   -0.005617
    58  C   -0.017619
    59  C   -0.229111
    60  C   -0.011075
    61  C   -0.001029
    62  C   -0.036987
    63  C   -0.024260
    64  C   -0.254864
    65  C   -0.024748
    66  C   -0.019868
    67  H   -0.000381
    68  H    0.021385
    69  H    0.001742
    70  H    0.047249
    71  H    0.047042
    72  H    0.042375
    73  H    0.030731
    74  H    0.046883
    75  H    0.054037
    76  H    0.077995
    77  H    0.058063
    78  H    0.066842
    79  H    0.048944
    80  H    0.052838
    81  H    0.057198
    82  H    0.059317
    83  H    0.063839
    84  H    0.060278
    85  H    0.049377
    86  H    0.032835
    87  H    0.045168
    88  H    0.054080
    89  H    0.057238
    90  H    0.037869
    91  H    0.043760
    92  H    0.039668
    93  H    0.049758
    94  H    0.062234
    95  H    0.013709
    96  H    0.050151
    97  H    0.073017
    98  H    0.083837
    99  H    0.061312
   100  H    0.072106
   101  H    0.052115
   102  H    0.053823
   103  H    0.061878
   104  H    0.034225
   105  H    0.038831
   106  H    0.055166
   107  H    0.059222
   108  H    0.029386
   109  H    0.029485
   110  H    0.020471
   111  H    0.044273
   112  H    0.021727
   113  H    0.027345
   114  H    0.034773
   115  H    0.029055
   116  H    0.028804
   117  H    0.035718
   118  H    0.031592
   119  H    0.017250
   120  H    0.031650
   121  H    0.038213
   122  H    0.023065
   123  H    0.038276
   124  H    0.030191
   125  H    0.037441
   126  H    0.040868
   127  H    0.024259
   128  H    0.019024
   129  H    0.023013
   130  H    0.031075
   131  H    0.025942
   132  H    0.023440
   133  H    0.049064
   134  H    0.042564
   135  H    0.024327
   136  H    0.045223
   137  H    0.039596
   138  H    0.031028
   139  H    0.027462
   140  H    0.038082
 Sum of Mulliken charges =  -0.00000

 Dipole moment (field-independent basis, Debye):
    X=             -3.6304    Y=              5.5899    Z=             -0.7377  Tot=              6.7060
 Quadrupole moment (field-independent basis, Debye-Ang):
   XX=           -368.9002   YY=           -432.2159   ZZ=           -396.8036
   XY=             11.5329   XZ=              7.5861   YZ=             -8.2903

 Normal termination of Gaussian 16 at Wed May  4 13:46:39 2022.
