 Gaussian 16, Revision A.03,
 Gaussian 16:  ES64L-G16RevA.03 25-Dec-2016

 --------------------------------
 #p wB97XD/Def2SVP td=(nstates=5)
 --------------------------------

 ----------------------------------------------------
 step_1801_chromophore_1 TDDFT with wB97XD functional
 ----------------------------------------------------
 Symbolic Z-matrix:
 Charge =  0 Multiplicity = 1

                         Standard orientation:
 ---------------------------------------------------------------------
 Center     Atomic      Atomic             Coordinates (Angstroms)
 Number     Number       Type             X           Y           Z
 ---------------------------------------------------------------------
      1         12           0        6.005790    0.591171   -0.124590
      2          6           0        4.230838   -2.444515   -0.714249
      3          6           0        3.416046    2.270098   -1.471814
      4          6           0        7.944728    3.199412    0.137451
      5          6           0        8.901362   -1.542545    0.519365
      6          7           0        4.040272   -0.121212   -1.061808
      7          6           0        3.420522   -1.339174   -0.984326
      8          6           0        2.036237   -1.204970   -1.516554
      9          6           0        1.872260    0.334469   -1.904112
     10          6           0        3.178391    0.891915   -1.472685
     11          6           0        1.400704    0.664530   -3.346381
     12          6           0        0.959962   -1.767635   -0.612060
     13          6           0       -0.477129   -1.241649   -0.680330
     14          6           0       -1.736136   -2.122234   -0.530018
     15          8           0       -1.757006   -3.347741   -0.445728
     16          8           0       -2.816914   -1.339844   -0.217538
     17          7           0        5.711979    2.464933   -0.503387
     18          6           0        4.561433    2.991058   -1.025362
     19          6           0        4.699656    4.478275   -0.920118
     20          6           0        5.942932    4.804702   -0.362495
     21          6           0        6.655999    3.488294   -0.251999
     22          6           0        3.647075    5.416908   -1.371209
     23          6           0        6.437888    6.185430    0.082777
     24          8           0        7.603354    6.389522    0.497631
     25          6           0        5.560912    7.288804    0.166846
     26          7           0        8.163500    0.802409    0.297792
     27          6           0        8.702863    2.011631    0.344863
     28          6           0       10.228449    1.998864    0.662436
     29          6           0       10.408589    0.512052    1.053330
     30          6           0        9.124505   -0.149091    0.581678
     31          6           0       11.193502    2.453141   -0.502363
     32          6           0       10.681764    0.236966    2.543717
     33          6           0        9.813404    0.987543    3.567357
     34          7           0        6.592271   -1.575328   -0.127798
     35          6           0        7.757796   -2.222902    0.122330
     36          6           0        7.454271   -3.653131    0.048511
     37          6           0        6.120897   -3.690165   -0.204304
     38          6           0        5.663994   -2.455279   -0.442652
     39          6           0        8.267133   -4.843847    0.424699
     40          6           0        5.117688   -4.697371   -0.267202
     41          8           0        5.212666   -5.968475   -0.103155
     42          6           0        3.862398   -3.880681   -0.587529
     43          6           0        2.896308   -4.115569    0.550280
     44          8           0        2.773420   -3.415438    1.583177
     45          8           0        2.083155   -5.200423    0.344434
     46          6           0        1.144766   -5.442953    1.437074
     47          6           0       -3.953120   -2.030286    0.417462
     48          6           0       -5.255926   -1.435774   -0.084087
     49          6           0       -6.506400   -2.034460   -0.211856
     50          6           0       -6.773729   -3.508908    0.189021
     51          6           0       -7.713443   -1.316011   -0.806173
     52          6           0       -8.636499   -0.651380    0.156641
     53          6           0       -8.193477    0.789980    0.663262
     54          6           0       -9.258394    1.836051    0.415259
     55          6           0       -8.588438    3.182531    0.176732
     56          6           0      -10.193064    2.026824    1.675958
     57          6           0      -11.609835    2.670726    1.377394
     58          6           0      -12.630844    2.226055    2.474704
     59          6           0      -14.029168    1.633604    1.971139
     60          6           0      -15.188279    1.835177    3.006798
     61          6           0      -13.867500    0.123785    1.667665
     62          6           0      -14.383069   -0.467449    0.271105
     63          6           0      -13.237452   -0.502785   -0.779388
     64          6           0      -13.551184    0.495180   -1.906765
     65          6           0      -14.830097    0.055403   -2.709579
     66          6           0      -12.283559    0.516516   -2.776941
     67          1           0        2.566173    2.891692   -1.761515
     68          1           0        8.529586    4.113322    0.268470
     69          1           0        9.724373   -2.200569    0.806192
     70          1           0        2.098885   -1.627800   -2.518803
     71          1           0        1.197816    0.835594   -1.209616
     72          1           0        1.974185    1.530196   -3.678988
     73          1           0        0.389902    1.040957   -3.505740
     74          1           0        1.328793   -0.157986   -4.058572
     75          1           0        1.167357   -1.488379    0.421331
     76          1           0        1.028577   -2.825209   -0.868786
     77          1           0       -0.556394   -0.659202   -1.599155
     78          1           0       -0.580746   -0.500042    0.111094
     79          1           0        2.884191    4.926743   -1.975639
     80          1           0        4.069827    6.245945   -1.937969
     81          1           0        3.221956    5.813376   -0.448606
     82          1           0        4.635262    7.082437    0.702635
     83          1           0        5.347101    7.651809   -0.838814
     84          1           0        6.053959    8.076870    0.737111
     85          1           0       10.325394    2.600614    1.566117
     86          1           0       11.184410    0.042587    0.449125
     87          1           0       11.954026    1.705271   -0.726692
     88          1           0       11.744140    3.365700   -0.272308
     89          1           0       10.465670    2.542454   -1.309431
     90          1           0       11.671655    0.654960    2.725289
     91          1           0       10.744536   -0.842664    2.682254
     92          1           0       10.518556    1.580165    4.149954
     93          1           0        9.347699    0.250965    4.222732
     94          1           0        9.035422    1.678690    3.242146
     95          1           0        9.226481   -4.522606    0.831917
     96          1           0        8.521436   -5.294121   -0.534560
     97          1           0        7.921349   -5.657474    1.062512
     98          1           0        3.563685   -4.183736   -1.591670
     99          1           0        0.229727   -4.930516    1.138361
    100          1           0        1.498338   -5.137559    2.421772
    101          1           0        0.917041   -6.508995    1.461241
    102          1           0       -3.795788   -1.954784    1.493185
    103          1           0       -3.995947   -3.108339    0.261211
    104          1           0       -5.097212   -0.469495   -0.563508
    105          1           0       -5.952015   -4.160597    0.485604
    106          1           0       -7.112671   -3.947131   -0.750420
    107          1           0       -7.488707   -3.503006    1.011951
    108          1           0       -8.318545   -1.972607   -1.430893
    109          1           0       -7.309031   -0.498329   -1.401721
    110          1           0       -8.736331   -1.353351    0.984343
    111          1           0       -9.608409   -0.610106   -0.334839
    112          1           0       -7.251141    1.028454    0.169623
    113          1           0       -7.923838    0.729413    1.718149
    114          1           0       -9.835370    1.562521   -0.468022
    115          1           0       -7.535352    3.088904    0.439731
    116          1           0       -9.027884    3.904253    0.864987
    117          1           0       -8.734340    3.520896   -0.849309
    118          1           0       -9.726204    2.452507    2.564796
    119          1           0      -10.354997    1.011148    2.035635
    120          1           0      -11.981402    2.254423    0.439985
    121          1           0      -11.447417    3.740542    1.247692
    122          1           0      -12.883667    3.168293    2.961532
    123          1           0      -12.226558    1.564011    3.240675
    124          1           0      -14.371113    2.108999    1.051660
    125          1           0      -15.436819    1.024759    3.692969
    126          1           0      -16.043230    2.105365    2.386816
    127          1           0      -14.891052    2.632643    3.686997
    128          1           0      -14.380379   -0.439775    2.446313
    129          1           0      -12.804832   -0.100639    1.764110
    130          1           0      -15.199498    0.174578   -0.057863
    131          1           0      -14.748446   -1.481999    0.432343
    132          1           0      -13.322801   -1.508884   -1.189435
    133          1           0      -12.235095   -0.281004   -0.415332
    134          1           0      -13.761048    1.472485   -1.472671
    135          1           0      -14.826231    0.729774   -3.566758
    136          1           0      -15.822467    0.269204   -2.312532
    137          1           0      -14.743610   -0.940531   -3.144080
    138          1           0      -12.179857    1.502213   -3.230466
    139          1           0      -12.399654   -0.194501   -3.594269
    140          1           0      -11.307640    0.284768   -2.350449
 ---------------------------------------------------------------------

 SCF Done:  E(RwB97XD) =  -3007.84427233     A.U. after   20 cycles

 Excitation energies and oscillator strengths:

 Excited State   1:      Singlet-A      1.7216 eV  720.18 nm  f=0.3597  <S**2>=0.000
     245 -> 248       -0.18128
     246 -> 247        0.68055
     245 <- 248       -0.10967
 This state for optimization and/or second-order correction.
 Total Energy, E(TD-HF/TD-DFT) =  -3007.78100576
 Copying the excited state density for this state as the 1-particle RhoCI density.

 Excited State   2:      Singlet-A      2.2251 eV  557.20 nm  f=0.0679  <S**2>=0.000
     245 -> 247        0.61811
     246 -> 248        0.32177

 Excited State   3:      Singlet-A      3.4105 eV  363.54 nm  f=0.0284  <S**2>=0.000
     242 -> 247        0.20086
     242 -> 249       -0.19308
     242 -> 250        0.18625
     244 -> 247        0.54221
     244 -> 249       -0.12903
     246 -> 248       -0.20444

 Excited State   4:      Singlet-A      3.4761 eV  356.68 nm  f=0.6556  <S**2>=0.000
     241 -> 247       -0.10797
     242 -> 247        0.17639
     242 -> 249       -0.14044
     242 -> 250        0.12840
     245 -> 247       -0.29366
     246 -> 248        0.56487
     245 <- 247        0.10093

 Excited State   5:      Singlet-A      3.5564 eV  348.63 nm  f=0.0711  <S**2>=0.000
     241 -> 247        0.16267
     242 -> 247        0.41243
     242 -> 249       -0.24842
     242 -> 250        0.21558
     244 -> 247       -0.36427
     246 -> 248       -0.12479

 The electronic state is 1-A.
 Alpha  occ. eigenvalues --  -46.95635 -19.30582 -19.29198 -19.25149 -19.24374
 Alpha  occ. eigenvalues --  -19.23599 -19.22995 -14.46758 -14.46255 -14.44958
 Alpha  occ. eigenvalues --  -14.42519 -10.44011 -10.42823 -10.39740 -10.37936
 Alpha  occ. eigenvalues --  -10.36133 -10.35819 -10.35529 -10.35482 -10.35210
 Alpha  occ. eigenvalues --  -10.34535 -10.33880 -10.33836 -10.33442 -10.32745
 Alpha  occ. eigenvalues --  -10.32322 -10.32292 -10.32157 -10.32140 -10.31954
 Alpha  occ. eigenvalues --  -10.31952 -10.31888 -10.31686 -10.31438 -10.31392
 Alpha  occ. eigenvalues --  -10.31068 -10.30961 -10.30833 -10.30692 -10.30637
 Alpha  occ. eigenvalues --  -10.30545 -10.30510 -10.30342 -10.30260 -10.30215
 Alpha  occ. eigenvalues --  -10.30186 -10.30183 -10.30081 -10.29994 -10.29765
 Alpha  occ. eigenvalues --  -10.29567 -10.29541 -10.29259 -10.29157 -10.29096
 Alpha  occ. eigenvalues --  -10.29094 -10.28987 -10.28825 -10.28708 -10.28578
 Alpha  occ. eigenvalues --  -10.28467 -10.28308 -10.28240 -10.28203 -10.27851
 Alpha  occ. eigenvalues --  -10.26184  -3.21589  -1.95156  -1.94691  -1.94580
 Alpha  occ. eigenvalues --   -1.18653  -1.17033  -1.11584  -1.09868  -1.08073
 Alpha  occ. eigenvalues --   -1.07385  -1.06414  -1.05761  -1.05248  -1.04416
 Alpha  occ. eigenvalues --   -0.94957  -0.92372  -0.91727  -0.91275  -0.91045
 Alpha  occ. eigenvalues --   -0.90675  -0.90468  -0.90412  -0.89307  -0.88982
 Alpha  occ. eigenvalues --   -0.87756  -0.87456  -0.86497  -0.85802  -0.85270
 Alpha  occ. eigenvalues --   -0.85039  -0.84182  -0.83344  -0.82464  -0.81978
 Alpha  occ. eigenvalues --   -0.81843  -0.80874  -0.80308  -0.79261  -0.77680
 Alpha  occ. eigenvalues --   -0.77672  -0.77393  -0.76961  -0.76050  -0.75834
 Alpha  occ. eigenvalues --   -0.75502  -0.74470  -0.74299  -0.72864  -0.71883
 Alpha  occ. eigenvalues --   -0.70652  -0.70082  -0.69678  -0.68706  -0.67885
 Alpha  occ. eigenvalues --   -0.67368  -0.67031  -0.66415  -0.66057  -0.65749
 Alpha  occ. eigenvalues --   -0.65233  -0.64928  -0.64404  -0.63107  -0.62554
 Alpha  occ. eigenvalues --   -0.61881  -0.61634  -0.61162  -0.60662  -0.60369
 Alpha  occ. eigenvalues --   -0.59970  -0.59481  -0.58412  -0.58068  -0.57273
 Alpha  occ. eigenvalues --   -0.57192  -0.57078  -0.56526  -0.56391  -0.56262
 Alpha  occ. eigenvalues --   -0.56073  -0.55888  -0.55178  -0.54893  -0.54747
 Alpha  occ. eigenvalues --   -0.54651  -0.54326  -0.53914  -0.53626  -0.53501
 Alpha  occ. eigenvalues --   -0.53261  -0.53207  -0.53010  -0.52690  -0.52643
 Alpha  occ. eigenvalues --   -0.52392  -0.52342  -0.52107  -0.51951  -0.51418
 Alpha  occ. eigenvalues --   -0.51368  -0.51344  -0.51245  -0.50673  -0.50527
 Alpha  occ. eigenvalues --   -0.50322  -0.50291  -0.50094  -0.50030  -0.49821
 Alpha  occ. eigenvalues --   -0.49582  -0.49256  -0.49142  -0.48929  -0.48724
 Alpha  occ. eigenvalues --   -0.48462  -0.48347  -0.47862  -0.47765  -0.47627
 Alpha  occ. eigenvalues --   -0.47491  -0.47324  -0.47219  -0.46907  -0.46478
 Alpha  occ. eigenvalues --   -0.46409  -0.45972  -0.45533  -0.45292  -0.45224
 Alpha  occ. eigenvalues --   -0.45028  -0.44937  -0.44845  -0.44765  -0.44360
 Alpha  occ. eigenvalues --   -0.44296  -0.44145  -0.43973  -0.43890  -0.43716
 Alpha  occ. eigenvalues --   -0.43620  -0.43289  -0.43108  -0.42910  -0.42869
 Alpha  occ. eigenvalues --   -0.42777  -0.42579  -0.42341  -0.42262  -0.41555
 Alpha  occ. eigenvalues --   -0.41398  -0.41363  -0.41277  -0.41079  -0.40953
 Alpha  occ. eigenvalues --   -0.40751  -0.40333  -0.39966  -0.39855  -0.39384
 Alpha  occ. eigenvalues --   -0.39137  -0.38921  -0.38846  -0.38271  -0.38164
 Alpha  occ. eigenvalues --   -0.37444  -0.37004  -0.36598  -0.36314  -0.35853
 Alpha  occ. eigenvalues --   -0.35781  -0.35481  -0.35172  -0.33991  -0.33495
 Alpha  occ. eigenvalues --   -0.32907  -0.31900  -0.31803  -0.30746  -0.25856
 Alpha  occ. eigenvalues --   -0.22721
 Alpha virt. eigenvalues --   -0.06445  -0.00140   0.02021   0.03896   0.05512
 Alpha virt. eigenvalues --    0.06638   0.06956   0.07893   0.08263   0.09299
 Alpha virt. eigenvalues --    0.10390   0.11030   0.11705   0.11842   0.12528

 Mulliken charges:
               1
     1  Mg   0.967934
     2  C   -0.083302
     3  C   -0.113663
     4  C   -0.066957
     5  C   -0.081414
     6  N   -0.366811
     7  C    0.016025
     8  C   -0.071156
     9  C   -0.108711
    10  C    0.075680
    11  C    0.019640
    12  C    0.067155
    13  C   -0.044179
    14  C    0.257259
    15  O   -0.260280
    16  O   -0.374943
    17  N   -0.576071
    18  C    0.216257
    19  C   -0.203692
    20  C   -0.040505
    21  C    0.163135
    22  C    0.081300
    23  C    0.063345
    24  O   -0.257180
    25  C   -0.001551
    26  N   -0.304337
    27  C    0.008815
    28  C   -0.075211
    29  C   -0.058936
    30  C    0.034958
    31  C    0.035674
    32  C   -0.004494
    33  C   -0.071257
    34  N   -0.350993
    35  C    0.087462
    36  C   -0.179771
    37  C   -0.012293
    38  C    0.163218
    39  C    0.082856
    40  C    0.101586
    41  O   -0.266069
    42  C   -0.031908
    43  C    0.289743
    44  O   -0.291915
    45  O   -0.348697
    46  C    0.128902
    47  C    0.254729
    48  C   -0.139609
    49  C   -0.198096
    50  C    0.009666
    51  C    0.026198
    52  C   -0.023960
    53  C    0.032765
    54  C   -0.192220
    55  C    0.028116
    56  C   -0.052387
    57  C    0.017752
    58  C   -0.000927
    59  C   -0.200472
    60  C    0.001154
    61  C    0.014664
    62  C   -0.018774
    63  C    0.001661
    64  C   -0.218618
    65  C   -0.015250
    66  C   -0.005263
    67  H   -0.008964
    68  H    0.016869
    69  H   -0.004096
    70  H    0.035208
    71  H    0.033969
    72  H    0.035494
    73  H    0.025955
    74  H    0.043220
    75  H    0.047271
    76  H    0.066213
    77  H    0.046957
    78  H    0.060697
    79  H    0.047055
    80  H    0.047812
    81  H    0.051854
    82  H    0.054887
    83  H    0.059606
    84  H    0.060607
    85  H    0.037960
    86  H    0.022126
    87  H    0.040505
    88  H    0.049516
    89  H    0.049509
    90  H    0.028080
    91  H    0.036194
    92  H    0.034183
    93  H    0.045064
    94  H    0.052154
    95  H    0.005788
    96  H    0.043203
    97  H    0.069523
    98  H    0.078181
    99  H    0.056938
   100  H    0.067740
   101  H    0.048256
   102  H    0.049886
   103  H    0.054026
   104  H    0.030519
   105  H    0.034719
   106  H    0.048632
   107  H    0.053217
   108  H    0.023812
   109  H    0.019266
   110  H    0.010110
   111  H    0.029096
   112  H    0.008027
   113  H    0.019710
   114  H    0.016216
   115  H    0.023056
   116  H    0.020880
   117  H    0.031363
   118  H    0.023474
   119  H    0.001741
   120  H    0.011396
   121  H    0.031552
   122  H    0.013798
   123  H    0.029620
   124  H    0.016261
   125  H    0.031910
   126  H    0.035511
   127  H    0.017638
   128  H    0.010461
   129  H    0.009063
   130  H    0.017824
   131  H    0.020243
   132  H    0.014073
   133  H    0.026046
   134  H    0.028674
   135  H    0.016921
   136  H    0.040853
   137  H    0.033276
   138  H    0.025579
   139  H    0.020931
   140  H    0.029307
 Sum of Mulliken charges =  -0.00000

 Dipole moment (field-independent basis, Debye):
    X=             -3.8148    Y=              6.5214    Z=             -0.8040  Tot=              7.5979
 Quadrupole moment (field-independent basis, Debye-Ang):
   XX=           -371.6053   YY=           -429.7204   ZZ=           -396.4268
   XY=             16.9345   XZ=              6.8090   YZ=             -8.5968

 Normal termination of Gaussian 16 at Wed May  4 14:15:50 2022.
