 Gaussian 16, Revision A.03,
 Gaussian 16:  ES64L-G16RevA.03 25-Dec-2016

 --------------------
 #p ZINDO=(nstates=5)
 --------------------

 -----------------------------
 step_1801_chromophore_1 ZINDO
 -----------------------------
 Symbolic Z-matrix:
 Charge =  0 Multiplicity = 1

                         Standard orientation:
 ---------------------------------------------------------------------
 Center     Atomic      Atomic             Coordinates (Angstroms)
 Number     Number       Type             X           Y           Z
 ---------------------------------------------------------------------
      1         12           0        6.005790    0.591171   -0.124590
      2          6           0        4.230838   -2.444515   -0.714249
      3          6           0        3.416046    2.270098   -1.471814
      4          6           0        7.944728    3.199412    0.137451
      5          6           0        8.901362   -1.542545    0.519365
      6          7           0        4.040272   -0.121212   -1.061808
      7          6           0        3.420522   -1.339174   -0.984326
      8          6           0        2.036237   -1.204970   -1.516554
      9          6           0        1.872260    0.334469   -1.904112
     10          6           0        3.178391    0.891915   -1.472685
     11          6           0        1.400704    0.664530   -3.346381
     12          6           0        0.959962   -1.767635   -0.612060
     13          6           0       -0.477129   -1.241649   -0.680330
     14          6           0       -1.736136   -2.122234   -0.530018
     15          8           0       -1.757006   -3.347741   -0.445728
     16          8           0       -2.816914   -1.339844   -0.217538
     17          7           0        5.711979    2.464933   -0.503387
     18          6           0        4.561433    2.991058   -1.025362
     19          6           0        4.699656    4.478275   -0.920118
     20          6           0        5.942932    4.804702   -0.362495
     21          6           0        6.655999    3.488294   -0.251999
     22          6           0        3.647075    5.416908   -1.371209
     23          6           0        6.437888    6.185430    0.082777
     24          8           0        7.603354    6.389522    0.497631
     25          6           0        5.560912    7.288804    0.166846
     26          7           0        8.163500    0.802409    0.297792
     27          6           0        8.702863    2.011631    0.344863
     28          6           0       10.228449    1.998864    0.662436
     29          6           0       10.408589    0.512052    1.053330
     30          6           0        9.124505   -0.149091    0.581678
     31          6           0       11.193502    2.453141   -0.502363
     32          6           0       10.681764    0.236966    2.543717
     33          6           0        9.813404    0.987543    3.567357
     34          7           0        6.592271   -1.575328   -0.127798
     35          6           0        7.757796   -2.222902    0.122330
     36          6           0        7.454271   -3.653131    0.048511
     37          6           0        6.120897   -3.690165   -0.204304
     38          6           0        5.663994   -2.455279   -0.442652
     39          6           0        8.267133   -4.843847    0.424699
     40          6           0        5.117688   -4.697371   -0.267202
     41          8           0        5.212666   -5.968475   -0.103155
     42          6           0        3.862398   -3.880681   -0.587529
     43          6           0        2.896308   -4.115569    0.550280
     44          8           0        2.773420   -3.415438    1.583177
     45          8           0        2.083155   -5.200423    0.344434
     46          6           0        1.144766   -5.442953    1.437074
     47          6           0       -3.953120   -2.030286    0.417462
     48          6           0       -5.255926   -1.435774   -0.084087
     49          6           0       -6.506400   -2.034460   -0.211856
     50          6           0       -6.773729   -3.508908    0.189021
     51          6           0       -7.713443   -1.316011   -0.806173
     52          6           0       -8.636499   -0.651380    0.156641
     53          6           0       -8.193477    0.789980    0.663262
     54          6           0       -9.258394    1.836051    0.415259
     55          6           0       -8.588438    3.182531    0.176732
     56          6           0      -10.193064    2.026824    1.675958
     57          6           0      -11.609835    2.670726    1.377394
     58          6           0      -12.630844    2.226055    2.474704
     59          6           0      -14.029168    1.633604    1.971139
     60          6           0      -15.188279    1.835177    3.006798
     61          6           0      -13.867500    0.123785    1.667665
     62          6           0      -14.383069   -0.467449    0.271105
     63          6           0      -13.237452   -0.502785   -0.779388
     64          6           0      -13.551184    0.495180   -1.906765
     65          6           0      -14.830097    0.055403   -2.709579
     66          6           0      -12.283559    0.516516   -2.776941
     67          1           0        2.566173    2.891692   -1.761515
     68          1           0        8.529586    4.113322    0.268470
     69          1           0        9.724373   -2.200569    0.806192
     70          1           0        2.098885   -1.627800   -2.518803
     71          1           0        1.197816    0.835594   -1.209616
     72          1           0        1.974185    1.530196   -3.678988
     73          1           0        0.389902    1.040957   -3.505740
     74          1           0        1.328793   -0.157986   -4.058572
     75          1           0        1.167357   -1.488379    0.421331
     76          1           0        1.028577   -2.825209   -0.868786
     77          1           0       -0.556394   -0.659202   -1.599155
     78          1           0       -0.580746   -0.500042    0.111094
     79          1           0        2.884191    4.926743   -1.975639
     80          1           0        4.069827    6.245945   -1.937969
     81          1           0        3.221956    5.813376   -0.448606
     82          1           0        4.635262    7.082437    0.702635
     83          1           0        5.347101    7.651809   -0.838814
     84          1           0        6.053959    8.076870    0.737111
     85          1           0       10.325394    2.600614    1.566117
     86          1           0       11.184410    0.042587    0.449125
     87          1           0       11.954026    1.705271   -0.726692
     88          1           0       11.744140    3.365700   -0.272308
     89          1           0       10.465670    2.542454   -1.309431
     90          1           0       11.671655    0.654960    2.725289
     91          1           0       10.744536   -0.842664    2.682254
     92          1           0       10.518556    1.580165    4.149954
     93          1           0        9.347699    0.250965    4.222732
     94          1           0        9.035422    1.678690    3.242146
     95          1           0        9.226481   -4.522606    0.831917
     96          1           0        8.521436   -5.294121   -0.534560
     97          1           0        7.921349   -5.657474    1.062512
     98          1           0        3.563685   -4.183736   -1.591670
     99          1           0        0.229727   -4.930516    1.138361
    100          1           0        1.498338   -5.137559    2.421772
    101          1           0        0.917041   -6.508995    1.461241
    102          1           0       -3.795788   -1.954784    1.493185
    103          1           0       -3.995947   -3.108339    0.261211
    104          1           0       -5.097212   -0.469495   -0.563508
    105          1           0       -5.952015   -4.160597    0.485604
    106          1           0       -7.112671   -3.947131   -0.750420
    107          1           0       -7.488707   -3.503006    1.011951
    108          1           0       -8.318545   -1.972607   -1.430893
    109          1           0       -7.309031   -0.498329   -1.401721
    110          1           0       -8.736331   -1.353351    0.984343
    111          1           0       -9.608409   -0.610106   -0.334839
    112          1           0       -7.251141    1.028454    0.169623
    113          1           0       -7.923838    0.729413    1.718149
    114          1           0       -9.835370    1.562521   -0.468022
    115          1           0       -7.535352    3.088904    0.439731
    116          1           0       -9.027884    3.904253    0.864987
    117          1           0       -8.734340    3.520896   -0.849309
    118          1           0       -9.726204    2.452507    2.564796
    119          1           0      -10.354997    1.011148    2.035635
    120          1           0      -11.981402    2.254423    0.439985
    121          1           0      -11.447417    3.740542    1.247692
    122          1           0      -12.883667    3.168293    2.961532
    123          1           0      -12.226558    1.564011    3.240675
    124          1           0      -14.371113    2.108999    1.051660
    125          1           0      -15.436819    1.024759    3.692969
    126          1           0      -16.043230    2.105365    2.386816
    127          1           0      -14.891052    2.632643    3.686997
    128          1           0      -14.380379   -0.439775    2.446313
    129          1           0      -12.804832   -0.100639    1.764110
    130          1           0      -15.199498    0.174578   -0.057863
    131          1           0      -14.748446   -1.481999    0.432343
    132          1           0      -13.322801   -1.508884   -1.189435
    133          1           0      -12.235095   -0.281004   -0.415332
    134          1           0      -13.761048    1.472485   -1.472671
    135          1           0      -14.826231    0.729774   -3.566758
    136          1           0      -15.822467    0.269204   -2.312532
    137          1           0      -14.743610   -0.940531   -3.144080
    138          1           0      -12.179857    1.502213   -3.230466
    139          1           0      -12.399654   -0.194501   -3.594269
    140          1           0      -11.307640    0.284768   -2.350449
 ---------------------------------------------------------------------

 SCF Done:  E(RZINDO/S) =  -474.284628492     A.U. after   19 cycles

 Excitation energies and oscillator strengths:

 Excited State   1:      Singlet-A      1.3198 eV  939.42 nm  f=0.5433  <S**2>=0.000
     175 ->178        -0.16237
     176 ->177         0.66743
 This state for optimization and/or second-order correction.
 Total Energy, E(CIS/TDA) =  -474.236126797
 Copying the excited state density for this state as the 1-particle RhoCI density.

 Excited State   2:      Singlet-A      1.9514 eV  635.37 nm  f=0.0133  <S**2>=0.000
     175 ->177         0.50805
     176 ->178         0.45643

 Excited State   3:      Singlet-A      2.8983 eV  427.78 nm  f=0.0002  <S**2>=0.000
     167 ->177         0.24715
     167 ->178        -0.15753
     167 ->179        -0.34146
     167 ->180         0.22489
     167 ->184        -0.10197
     167 ->186        -0.17197
     168 ->177         0.19446
     168 ->178        -0.12014
     168 ->179        -0.25734
     168 ->180         0.16742
     168 ->186        -0.12975

 Excited State   4:      Singlet-A      2.9196 eV  424.66 nm  f=0.3792  <S**2>=0.000
     171 ->179         0.13137
     171 ->180         0.17054
     175 ->177        -0.19887
     176 ->178         0.28703
     176 ->179         0.47070
     176 ->180         0.17739

 Excited State   5:      Singlet-A      2.9528 eV  419.89 nm  f=0.5408  <S**2>=0.000
     171 ->177        -0.16728
     171 ->179        -0.20051
     171 ->180        -0.24070
     174 ->177         0.12549
     175 ->177        -0.32881
     176 ->178         0.37772
     176 ->180        -0.13890

 The electronic state is 1-A.
 Alpha  occ. eigenvalues --   -1.86481  -1.81199  -1.80503  -1.73127  -1.71792
 Alpha  occ. eigenvalues --   -1.71435  -1.64924  -1.60946  -1.60609  -1.57982
 Alpha  occ. eigenvalues --   -1.54219  -1.50709  -1.48739  -1.46581  -1.46297
 Alpha  occ. eigenvalues --   -1.43859  -1.41534  -1.40027  -1.38714  -1.36600
 Alpha  occ. eigenvalues --   -1.36432  -1.32683  -1.32101  -1.31667  -1.29283
 Alpha  occ. eigenvalues --   -1.28524  -1.24869  -1.23088  -1.21675  -1.18462
 Alpha  occ. eigenvalues --   -1.16996  -1.16104  -1.14616  -1.13537  -1.13292
 Alpha  occ. eigenvalues --   -1.11542  -1.10807  -1.09877  -1.05303  -1.04470
 Alpha  occ. eigenvalues --   -1.03318  -1.01542  -0.99590  -0.98486  -0.97140
 Alpha  occ. eigenvalues --   -0.96431  -0.94636  -0.93788  -0.92649  -0.91408
 Alpha  occ. eigenvalues --   -0.90694  -0.89980  -0.89330  -0.87191  -0.86378
 Alpha  occ. eigenvalues --   -0.85980  -0.84068  -0.83105  -0.81655  -0.80619
 Alpha  occ. eigenvalues --   -0.79980  -0.78587  -0.77480  -0.77225  -0.76619
 Alpha  occ. eigenvalues --   -0.76080  -0.75658  -0.75258  -0.74682  -0.74519
 Alpha  occ. eigenvalues --   -0.73495  -0.72857  -0.72096  -0.71896  -0.71457
 Alpha  occ. eigenvalues --   -0.70039  -0.69288  -0.68815  -0.68674  -0.67743
 Alpha  occ. eigenvalues --   -0.67652  -0.67045  -0.66259  -0.65971  -0.65876
 Alpha  occ. eigenvalues --   -0.65654  -0.64360  -0.63907  -0.63407  -0.63319
 Alpha  occ. eigenvalues --   -0.63087  -0.63035  -0.62689  -0.62502  -0.61736
 Alpha  occ. eigenvalues --   -0.61588  -0.61538  -0.61111  -0.60728  -0.60466
 Alpha  occ. eigenvalues --   -0.60037  -0.59574  -0.59229  -0.58931  -0.58400
 Alpha  occ. eigenvalues --   -0.58105  -0.57949  -0.57529  -0.56544  -0.56207
 Alpha  occ. eigenvalues --   -0.56027  -0.55033  -0.54724  -0.54666  -0.54501
 Alpha  occ. eigenvalues --   -0.53813  -0.53110  -0.52860  -0.52726  -0.52566
 Alpha  occ. eigenvalues --   -0.52415  -0.51802  -0.51575  -0.51317  -0.50881
 Alpha  occ. eigenvalues --   -0.50716  -0.50477  -0.50428  -0.50294  -0.49794
 Alpha  occ. eigenvalues --   -0.49489  -0.49301  -0.48982  -0.48884  -0.48821
 Alpha  occ. eigenvalues --   -0.48754  -0.48510  -0.48418  -0.47705  -0.47582
 Alpha  occ. eigenvalues --   -0.47303  -0.46997  -0.46802  -0.46689  -0.46453
 Alpha  occ. eigenvalues --   -0.46271  -0.45751  -0.45665  -0.45265  -0.45120
 Alpha  occ. eigenvalues --   -0.44932  -0.44643  -0.44327  -0.44181  -0.43506
 Alpha  occ. eigenvalues --   -0.43424  -0.42898  -0.42609  -0.42443  -0.41969
 Alpha  occ. eigenvalues --   -0.41848  -0.41453  -0.40119  -0.38798  -0.38770
 Alpha  occ. eigenvalues --   -0.37417  -0.36578  -0.36225  -0.34958  -0.34228
 Alpha  occ. eigenvalues --   -0.33791  -0.32308  -0.31692  -0.31162  -0.26697
 Alpha  occ. eigenvalues --   -0.21571
 Alpha virt. eigenvalues --   -0.07929  -0.02265  -0.00896   0.00699   0.01416
 Alpha virt. eigenvalues --    0.01591   0.02916   0.03359   0.04118   0.04496
 Alpha virt. eigenvalues --    0.05882   0.06624   0.07419   0.07631   0.07883

 Mulliken charges:
               1
     1  Mg   0.438495
     2  C   -0.045526
     3  C   -0.107213
     4  C   -0.055463
     5  C   -0.039221
     6  N   -0.315512
     7  C    0.105888
     8  C    0.014605
     9  C    0.000634
    10  C    0.171942
    11  C   -0.056580
    12  C   -0.017390
    13  C    0.003405
    14  C    0.465867
    15  O   -0.513053
    16  O   -0.271994
    17  N   -0.327102
    18  C    0.142764
    19  C    0.028297
    20  C   -0.034054
    21  C    0.128951
    22  C   -0.041174
    23  C    0.342804
    24  O   -0.534274
    25  C   -0.017602
    26  N   -0.247906
    27  C    0.163248
    28  C    0.003007
    29  C    0.007443
    30  C    0.066521
    31  C   -0.052448
    32  C   -0.021910
    33  C   -0.054174
    34  N   -0.312467
    35  C    0.061734
    36  C    0.022082
    37  C   -0.041239
    38  C    0.108210
    39  C   -0.039588
    40  C    0.318297
    41  O   -0.560603
    42  C    0.071148
    43  C    0.490983
    44  O   -0.551548
    45  O   -0.256413
    46  C    0.076669
    47  C    0.108095
    48  C   -0.100370
    49  C   -0.006724
    50  C   -0.048519
    51  C   -0.011222
    52  C   -0.034475
    53  C   -0.030511
    54  C   -0.008461
    55  C   -0.060686
    56  C   -0.042180
    57  C   -0.036783
    58  C   -0.036051
    59  C   -0.013574
    60  C   -0.062313
    61  C   -0.046107
    62  C   -0.044781
    63  C   -0.037381
    64  C   -0.004495
    65  C   -0.062582
    66  C   -0.058138
    67  H    0.023516
    68  H    0.031638
    69  H    0.023733
    70  H    0.031794
    71  H    0.028918
    72  H    0.022096
    73  H    0.014597
    74  H    0.030880
    75  H    0.042154
    76  H    0.039272
    77  H    0.033588
    78  H    0.035892
    79  H    0.027998
    80  H    0.030152
    81  H    0.035520
    82  H    0.034363
    83  H    0.044124
    84  H    0.036421
    85  H    0.035439
    86  H    0.021842
    87  H    0.025641
    88  H    0.028620
    89  H    0.030075
    90  H    0.007604
    91  H    0.028367
    92  H    0.014473
    93  H    0.018708
    94  H    0.029773
    95  H    0.006369
    96  H    0.026343
    97  H    0.049498
    98  H    0.058391
    99  H    0.040026
   100  H    0.056415
   101  H    0.028728
   102  H    0.043428
   103  H    0.055919
   104  H    0.027788
   105  H    0.026111
   106  H    0.028360
   107  H    0.031108
   108  H    0.023018
   109  H    0.016583
   110  H    0.015664
   111  H    0.016235
   112  H    0.018741
   113  H    0.019567
   114  H    0.027449
   115  H    0.020318
   116  H    0.015885
   117  H    0.018163
   118  H    0.027463
   119  H    0.000869
   120  H    0.019632
   121  H    0.028806
   122  H    0.006583
   123  H    0.030803
   124  H    0.023985
   125  H    0.025485
   126  H    0.020130
   127  H    0.013995
   128  H    0.012998
   129  H    0.014790
   130  H    0.024741
   131  H    0.018460
   132  H    0.018014
   133  H    0.028785
   134  H    0.024450
   135  H    0.001170
   136  H    0.028082
   137  H    0.026319
   138  H    0.008100
   139  H    0.015196
   140  H    0.022555
 Sum of Mulliken charges =  -0.00000

 Dipole moment (field-independent basis, Debye):
    X=             -5.1789    Y=             10.5943    Z=             -3.2082  Tot=             12.2210
 N-N= 4.244149632920D+03 E-N= 0.000000000000D+00  KE=-9.162918268288D+03
 Leave Link  601 at Wed May  4 14:27:12 2022, MaxMem=  6710886400 cpu:               0.8 elap:               0.0
 (Enter /sw/apps/gaussian-16.0/g16/l9999.exe)
 1\1\GINC-BP1-COMPUTE097\SP\RZINDO CIS\STO-3G\C55H74Mg1N4O6\OF15641\04-
 May-2022\0\\#p ZINDO=(nstates=5)\\step_1801_chromophore_1 ZINDO\\0,1\M
 g,0,-1.575,17.649,26.299\C,0,-2.055,15.071,28.715\C,0,-2.6,19.883,28.6
 01\C,0,-1.449,19.791,23.844\C,0,-1.293,14.941,23.862\N,0,-2.32,17.398,
 28.451\C,0,-2.21,16.33,29.3\C,0,-2.591,16.769,30.671\C,0,-2.919,18.326
 ,30.548\C,0,-2.612,18.584,29.119\C,0,-4.295,18.813,31.078\C,0,-1.594,1
 6.396,31.748\C,0,-1.498,17.207,33.044\C,0,-1.24,16.596,34.438\O,0,-1.1

 Normal termination of Gaussian 16 at Wed May  4 14:27:12 2022.
