 Gaussian 16, Revision A.03,
 Gaussian 16:  ES64L-G16RevA.03 25-Dec-2016

 ------------------------------
 #p blyp/Def2SVP td=(nstates=5)
 ------------------------------

 ---------------------------------------------------
 step_1651_chromophore_18 TDDFT with blyp functional
 ---------------------------------------------------
 Symbolic Z-matrix:
 Charge =  0 Multiplicity = 1

                         Standard orientation:
 ---------------------------------------------------------------------
 Center     Atomic      Atomic             Coordinates (Angstroms)
 Number     Number       Type             X           Y           Z
 ---------------------------------------------------------------------
      1         12           0        5.379954    1.317101    0.261605
      2          6           0        4.745842   -2.060638   -0.019850
      3          6           0        2.000920    1.878073   -0.151266
      4          6           0        6.139911    4.464161   -0.451933
      5          6           0        8.627645    0.599876    0.879432
      6          7           0        3.575749    0.080920   -0.045387
      7          6           0        3.568186   -1.295709   -0.105265
      8          6           0        2.193908   -1.856189   -0.039780
      9          6           0        1.312267   -0.591223   -0.368296
     10          6           0        2.320432    0.528987   -0.118381
     11          6           0        0.531288   -0.653547   -1.716170
     12          6           0        1.879561   -2.602720    1.364498
     13          6           0        1.153757   -3.958863    1.242469
     14          6           0        0.410787   -4.424782   -0.037059
     15          8           0        0.864316   -5.115500   -0.903935
     16          8           0       -0.879342   -3.869778    0.048775
     17          7           0        4.227859    2.989689    0.016755
     18          6           0        2.813270    3.002382   -0.149855
     19          6           0        2.392316    4.345213   -0.441436
     20          6           0        3.562225    5.068326   -0.767751
     21          6           0        4.756888    4.174579   -0.461217
     22          6           0        0.969742    4.777128   -0.413266
     23          6           0        3.607576    6.537618   -1.220591
     24          8           0        4.660681    7.100526   -1.400355
     25          6           0        2.437489    7.401897   -1.331836
     26          7           0        7.081643    2.323478    0.111815
     27          6           0        7.165486    3.691958   -0.135235
     28          6           0        8.608540    4.235224    0.022087
     29          6           0        9.283494    3.065721    0.887363
     30          6           0        8.262292    1.932248    0.647651
     31          6           0        9.454165    4.519659   -1.237898
     32          6           0        9.331866    3.300018    2.440848
     33          6           0       10.312560    2.451845    3.198710
     34          7           0        6.560308   -0.421240    0.302526
     35          6           0        7.919862   -0.543296    0.501278
     36          6           0        8.331311   -1.898222    0.402059
     37          6           0        7.077899   -2.574638    0.334937
     38          6           0        6.081403   -1.618996    0.208203
     39          6           0        9.782685   -2.444086    0.412414
     40          6           0        6.460342   -3.888348    0.296221
     41          8           0        6.844649   -5.022108    0.442778
     42          6           0        4.922748   -3.574516    0.001670
     43          6           0        4.394822   -4.242479   -1.194481
     44          8           0        4.243513   -3.768983   -2.298492
     45          8           0        4.054200   -5.528818   -0.873060
     46          6           0        3.645316   -6.471640   -1.863459
     47          6           0       -1.818822   -4.415840   -1.028848
     48          6           0       -2.982773   -3.473768   -0.875288
     49          6           0       -4.334626   -3.792655   -0.824818
     50          6           0       -4.929233   -5.149384   -1.082428
     51          6           0       -5.506011   -2.740776   -0.664051
     52          6           0       -6.169699   -2.751968    0.724346
     53          6           0       -7.131206   -1.441128    0.762408
     54          6           0       -8.500279   -1.690006    1.324793
     55          6           0       -8.449189   -1.872645    2.894379
     56          6           0       -9.421518   -0.493145    1.102854
     57          6           0      -10.305713   -0.717288   -0.132406
     58          6           0      -11.788414   -0.943834    0.281376
     59          6           0      -12.533640    0.412635    0.717742
     60          6           0      -12.793085    0.487038    2.171170
     61          6           0      -13.928825    0.498845   -0.050836
     62          6           0      -14.168430    1.985073   -0.535664
     63          6           0      -15.536733    2.493987   -0.046079
     64          6           0      -15.935234    3.844530   -0.597385
     65          6           0      -16.538824    4.712916    0.531293
     66          6           0      -16.958860    3.706403   -1.758145
     67          1           0        0.927862    2.035769   -0.283878
     68          1           0        6.441209    5.494581   -0.652425
     69          1           0        9.649122    0.408056    1.214717
     70          1           0        2.059318   -2.482222   -0.922579
     71          1           0        0.582652   -0.490589    0.435446
     72          1           0       -0.480897   -0.368831   -1.429653
     73          1           0        0.580055   -1.626922   -2.203070
     74          1           0        0.807139    0.190580   -2.347189
     75          1           0        1.223551   -1.981808    1.973935
     76          1           0        2.801646   -2.673700    1.940204
     77          1           0        0.387762   -3.739394    1.987594
     78          1           0        1.776099   -4.809230    1.522239
     79          1           0        0.557697    4.031546    0.266906
     80          1           0        0.443359    4.805120   -1.367417
     81          1           0        0.842070    5.700846    0.149951
     82          1           0        2.776813    8.410699   -1.567904
     83          1           0        1.898834    7.366584   -0.384076
     84          1           0        1.848104    6.992591   -2.153147
     85          1           0        8.401049    5.116919    0.628036
     86          1           0       10.207202    2.637320    0.498298
     87          1           0       10.428252    4.043212   -1.131276
     88          1           0        9.708690    5.558955   -1.450940
     89          1           0        9.012309    4.072301   -2.128536
     90          1           0        8.341981    3.441595    2.872729
     91          1           0        9.657248    4.330221    2.583892
     92          1           0       10.965669    3.152739    3.717695
     93          1           0       10.889152    1.783899    2.558769
     94          1           0        9.749343    1.815319    3.881491
     95          1           0       10.287322   -2.199460   -0.522039
     96          1           0        9.743178   -3.533104    0.405202
     97          1           0       10.372745   -2.118308    1.268704
     98          1           0        4.271394   -4.079236    0.714755
     99          1           0        4.120884   -7.400525   -1.550854
    100          1           0        4.044797   -6.193109   -2.839392
    101          1           0        2.558855   -6.402877   -1.922007
    102          1           0       -2.205642   -5.426175   -0.896529
    103          1           0       -1.404677   -4.286376   -2.029089
    104          1           0       -2.816560   -2.412210   -0.693750
    105          1           0       -4.135603   -5.708496   -1.577792
    106          1           0       -5.703389   -5.189064   -1.848192
    107          1           0       -5.367429   -5.689098   -0.241751
    108          1           0       -6.257553   -2.709956   -1.452757
    109          1           0       -4.886775   -1.845348   -0.724239
    110          1           0       -5.516896   -2.570357    1.578854
    111          1           0       -6.750482   -3.673634    0.762904
    112          1           0       -7.254695   -0.990404   -0.222357
    113          1           0       -6.620876   -0.780146    1.464004
    114          1           0       -8.920895   -2.552963    0.807814
    115          1           0       -8.391534   -0.863203    3.301481
    116          1           0       -7.665614   -2.529089    3.272469
    117          1           0       -9.391591   -2.325196    3.200967
    118          1           0       -8.676277    0.295705    1.000630
    119          1           0      -10.086931   -0.419208    1.963335
    120          1           0       -9.889116   -1.408103   -0.865378
    121          1           0      -10.312904    0.261096   -0.612326
    122          1           0      -11.953233   -1.636167    1.105859
    123          1           0      -12.323090   -1.415991   -0.543502
    124          1           0      -11.853546    1.225392    0.462798
    125          1           0      -12.083383    1.197581    2.592519
    126          1           0      -12.656467   -0.484753    2.645584
    127          1           0      -13.759050    0.910219    2.445353
    128          1           0      -14.712736    0.133725    0.612309
    129          1           0      -14.025505   -0.057883   -0.982395
    130          1           0      -13.943760    1.995995   -1.602507
    131          1           0      -13.325901    2.520087   -0.097800
    132          1           0      -15.378811    2.537639    1.031721
    133          1           0      -16.326392    1.762639   -0.215872
    134          1           0      -15.101422    4.446689   -0.956639
    135          1           0      -17.365136    5.356229    0.231478
    136          1           0      -15.645263    5.242102    0.861543
    137          1           0      -16.895405    4.099477    1.359244
    138          1           0      -16.582003    3.066950   -2.557357
    139          1           0      -17.145047    4.710390   -2.138195
    140          1           0      -17.899483    3.340440   -1.346912
 ---------------------------------------------------------------------

 SCF Done:  E(RB-LYP) =  -3007.35487221     A.U. after   20 cycles

 Excitation energies and oscillator strengths:

 Excited State   1:      Singlet-A      1.7728 eV  699.35 nm  f=0.2439  <S**2>=0.000
     244 -> 247       -0.21233
     245 -> 247        0.10538
     245 -> 248        0.16391
     246 -> 247        0.65617
     246 <- 247       -0.15286
 This state for optimization and/or second-order correction.
 Total Energy, E(TD-HF/TD-DFT) =  -3007.28972126
 Copying the excited state density for this state as the 1-particle RhoCI density.

 Excited State   2:      Singlet-A      1.7998 eV  688.89 nm  f=0.0434  <S**2>=0.000
     244 -> 247        0.66205
     246 -> 247        0.22424

 Excited State   3:      Singlet-A      1.9520 eV  635.18 nm  f=0.0121  <S**2>=0.000
     243 -> 247        0.66708
     245 -> 247       -0.21263

 Excited State   4:      Singlet-A      2.0462 eV  605.92 nm  f=0.0953  <S**2>=0.000
     243 -> 247        0.22960
     244 -> 247        0.11166
     245 -> 247        0.60250
     246 -> 248       -0.23042

 Excited State   5:      Singlet-A      2.4135 eV  513.72 nm  f=0.0057  <S**2>=0.000
     241 -> 247        0.32831
     242 -> 247        0.61132

 The electronic state is 1-A.
 Alpha  occ. eigenvalues --  -46.25400 -18.82924 -18.79489 -18.78861 -18.75489
 Alpha  occ. eigenvalues --  -18.74854 -18.74697 -14.03044 -14.02238 -14.00992
 Alpha  occ. eigenvalues --  -13.99562 -10.05091 -10.01973  -9.99299  -9.99051
 Alpha  occ. eigenvalues --   -9.98942  -9.96348  -9.96030  -9.95948  -9.95912
 Alpha  occ. eigenvalues --   -9.95440  -9.95390  -9.95237  -9.94396  -9.94382
 Alpha  occ. eigenvalues --   -9.94086  -9.93961  -9.93884  -9.93821  -9.93698
 Alpha  occ. eigenvalues --   -9.93593  -9.93453  -9.93438  -9.93435  -9.93074
 Alpha  occ. eigenvalues --   -9.92939  -9.92885  -9.92786  -9.92631  -9.92599
 Alpha  occ. eigenvalues --   -9.92599  -9.92593  -9.92593  -9.92468  -9.92368
 Alpha  occ. eigenvalues --   -9.92277  -9.92164  -9.92089  -9.91904  -9.91737
 Alpha  occ. eigenvalues --   -9.91617  -9.91555  -9.91554  -9.91482  -9.91447
 Alpha  occ. eigenvalues --   -9.91389  -9.91193  -9.91153  -9.91111  -9.91109
 Alpha  occ. eigenvalues --   -9.91047  -9.90825  -9.90816  -9.90816  -9.90715
 Alpha  occ. eigenvalues --   -9.90601  -2.90366  -1.70794  -1.70241  -1.70083
 Alpha  occ. eigenvalues --   -0.97961  -0.96323  -0.92012  -0.91677  -0.91246
 Alpha  occ. eigenvalues --   -0.88522  -0.87185  -0.86258  -0.85278  -0.83511
 Alpha  occ. eigenvalues --   -0.74816  -0.73889  -0.73003  -0.72564  -0.72423
 Alpha  occ. eigenvalues --   -0.72159  -0.71684  -0.71202  -0.70817  -0.70350
 Alpha  occ. eigenvalues --   -0.69379  -0.69311  -0.68183  -0.67610  -0.67106
 Alpha  occ. eigenvalues --   -0.66651  -0.66073  -0.65369  -0.64843  -0.64667
 Alpha  occ. eigenvalues --   -0.64248  -0.62314  -0.62186  -0.61580  -0.60477
 Alpha  occ. eigenvalues --   -0.60242  -0.59969  -0.59624  -0.59358  -0.58799
 Alpha  occ. eigenvalues --   -0.58217  -0.57855  -0.56570  -0.56105  -0.54400
 Alpha  occ. eigenvalues --   -0.53934  -0.53603  -0.52383  -0.52028  -0.51709
 Alpha  occ. eigenvalues --   -0.51160  -0.51041  -0.50248  -0.50159  -0.49886
 Alpha  occ. eigenvalues --   -0.49690  -0.49137  -0.48769  -0.46804  -0.46334
 Alpha  occ. eigenvalues --   -0.45794  -0.45657  -0.45157  -0.44730  -0.44005
 Alpha  occ. eigenvalues --   -0.43892  -0.43211  -0.42794  -0.42659  -0.42195
 Alpha  occ. eigenvalues --   -0.41918  -0.41674  -0.41569  -0.41453  -0.41346
 Alpha  occ. eigenvalues --   -0.40983  -0.40575  -0.40401  -0.40167  -0.39920
 Alpha  occ. eigenvalues --   -0.39825  -0.39725  -0.39487  -0.39185  -0.38845
 Alpha  occ. eigenvalues --   -0.38733  -0.38661  -0.38535  -0.38449  -0.38339
 Alpha  occ. eigenvalues --   -0.38200  -0.37999  -0.37804  -0.37532  -0.37482
 Alpha  occ. eigenvalues --   -0.37356  -0.37175  -0.36937  -0.36581  -0.36455
 Alpha  occ. eigenvalues --   -0.36322  -0.36007  -0.35794  -0.35620  -0.35394
 Alpha  occ. eigenvalues --   -0.35174  -0.34857  -0.34744  -0.34713  -0.34651
 Alpha  occ. eigenvalues --   -0.34526  -0.34268  -0.34157  -0.34069  -0.33720
 Alpha  occ. eigenvalues --   -0.33693  -0.33570  -0.33417  -0.33077  -0.32958
 Alpha  occ. eigenvalues --   -0.32766  -0.32722  -0.32675  -0.32643  -0.32482
 Alpha  occ. eigenvalues --   -0.32197  -0.32014  -0.32011  -0.31663  -0.31548
 Alpha  occ. eigenvalues --   -0.31499  -0.31231  -0.30962  -0.30946  -0.30699
 Alpha  occ. eigenvalues --   -0.30500  -0.30337  -0.30280  -0.29926  -0.29872
 Alpha  occ. eigenvalues --   -0.29821  -0.29238  -0.29155  -0.29013  -0.28594
 Alpha  occ. eigenvalues --   -0.28550  -0.28206  -0.28122  -0.27884  -0.27735
 Alpha  occ. eigenvalues --   -0.27555  -0.27462  -0.27213  -0.27145  -0.26659
 Alpha  occ. eigenvalues --   -0.26608  -0.26317  -0.25854  -0.25420  -0.25342
 Alpha  occ. eigenvalues --   -0.25180  -0.24661  -0.23795  -0.23495  -0.23196
 Alpha  occ. eigenvalues --   -0.23076  -0.22873  -0.22064  -0.20665  -0.20566
 Alpha  occ. eigenvalues --   -0.20330  -0.20038  -0.18438  -0.17897  -0.17121
 Alpha  occ. eigenvalues --   -0.15404
 Alpha virt. eigenvalues --   -0.11351  -0.06246  -0.05407  -0.04022  -0.03950
 Alpha virt. eigenvalues --   -0.03181  -0.01821  -0.01102  -0.00606   0.01005
 Alpha virt. eigenvalues --    0.01654   0.01999   0.02385   0.02768   0.02852

 Mulliken charges:
               1
     1  Mg   0.698184
     2  C    0.119634
     3  C   -0.073156
     4  C   -0.050210
     5  C   -0.091383
     6  N   -0.188927
     7  C   -0.097515
     8  C   -0.004394
     9  C   -0.002160
    10  C   -0.012872
    11  C    0.151310
    12  C    0.140232
    13  C    0.116624
    14  C    0.091545
    15  O   -0.143759
    16  O   -0.310136
    17  N   -0.339868
    18  C    0.186347
    19  C   -0.163815
    20  C    0.035636
    21  C    0.133821
    22  C    0.184156
    23  C   -0.120602
    24  O   -0.157905
    25  C    0.171653
    26  N   -0.280748
    27  C    0.047885
    28  C    0.048413
    29  C   -0.014198
    30  C    0.051908
    31  C    0.149607
    32  C    0.087936
    33  C    0.108369
    34  N   -0.212041
    35  C    0.113878
    36  C   -0.158535
    37  C    0.058883
    38  C   -0.002635
    39  C    0.159731
    40  C   -0.017572
    41  O   -0.096809
    42  C   -0.014576
    43  C    0.078079
    44  O   -0.177756
    45  O   -0.268916
    46  C    0.213344
    47  C    0.331957
    48  C   -0.077214
    49  C   -0.166125
    50  C    0.129343
    51  C    0.090552
    52  C    0.090890
    53  C    0.088690
    54  C   -0.108845
    55  C    0.089920
    56  C    0.112715
    57  C    0.095111
    58  C    0.102872
    59  C   -0.110344
    60  C    0.138252
    61  C    0.080807
    62  C    0.045937
    63  C    0.114905
    64  C   -0.064322
    65  C    0.088117
    66  C    0.095042
    67  H   -0.074708
    68  H   -0.052071
    69  H   -0.075997
    70  H    0.001241
    71  H   -0.034757
    72  H   -0.013725
    73  H    0.021047
    74  H   -0.011669
    75  H   -0.024540
    76  H   -0.005347
    77  H   -0.011948
    78  H    0.018444
    79  H   -0.012942
    80  H    0.014471
    81  H   -0.011402
    82  H   -0.005094
    83  H    0.005552
    84  H   -0.001155
    85  H   -0.028967
    86  H   -0.027534
    87  H   -0.020023
    88  H   -0.000873
    89  H   -0.001878
    90  H   -0.029565
    91  H   -0.037562
    92  H   -0.004378
    93  H   -0.005693
    94  H   -0.003639
    95  H    0.002143
    96  H   -0.000223
    97  H    0.006002
    98  H   -0.015262
    99  H    0.014543
   100  H   -0.003449
   101  H    0.021285
   102  H    0.015524
   103  H    0.018336
   104  H   -0.039230
   105  H   -0.028044
   106  H   -0.014616
   107  H    0.012180
   108  H   -0.007111
   109  H   -0.043420
   110  H   -0.014460
   111  H   -0.020751
   112  H   -0.028182
   113  H   -0.033712
   114  H   -0.044087
   115  H   -0.009036
   116  H   -0.018969
   117  H   -0.014915
   118  H   -0.040853
   119  H   -0.032120
   120  H   -0.029276
   121  H   -0.042564
   122  H   -0.042533
   123  H   -0.040945
   124  H   -0.021563
   125  H   -0.022742
   126  H   -0.013545
   127  H   -0.017742
   128  H   -0.029794
   129  H   -0.031245
   130  H   -0.030099
   131  H   -0.037122
   132  H   -0.035724
   133  H   -0.027876
   134  H   -0.039056
   135  H   -0.018994
   136  H   -0.014095
   137  H   -0.019202
   138  H   -0.013101
   139  H   -0.018550
   140  H   -0.016037
 Sum of Mulliken charges =  -0.00000

 Dipole moment (field-independent basis, Debye):
    X=             -4.8501    Y=              2.0925    Z=              2.7923  Tot=              5.9748
 Quadrupole moment (field-independent basis, Debye-Ang):
   XX=           -384.7396   YY=           -430.4896   ZZ=           -407.3825
   XY=             28.0001   XZ=             19.3236   YZ=              7.0820

 Normal termination of Gaussian 16 at Thu Apr 28 17:06:44 2022.
