 Gaussian 16, Revision A.03,
 Gaussian 16:  ES64L-G16RevA.03 25-Dec-2016

 -----------------------------------
 #p cam-b3lyp/Def2SVP td=(nstates=5)
 -----------------------------------

 --------------------------------------------------------
 step_1651_chromophore_18 TDDFT with cam-b3lyp functional
 --------------------------------------------------------
 Symbolic Z-matrix:
 Charge =  0 Multiplicity = 1

                         Standard orientation:
 ---------------------------------------------------------------------
 Center     Atomic      Atomic             Coordinates (Angstroms)
 Number     Number       Type             X           Y           Z
 ---------------------------------------------------------------------
      1         12           0        5.379954    1.317101    0.261605
      2          6           0        4.745842   -2.060638   -0.019850
      3          6           0        2.000920    1.878073   -0.151266
      4          6           0        6.139911    4.464161   -0.451933
      5          6           0        8.627645    0.599876    0.879432
      6          7           0        3.575749    0.080920   -0.045387
      7          6           0        3.568186   -1.295709   -0.105265
      8          6           0        2.193908   -1.856189   -0.039780
      9          6           0        1.312267   -0.591223   -0.368296
     10          6           0        2.320432    0.528987   -0.118381
     11          6           0        0.531288   -0.653547   -1.716170
     12          6           0        1.879561   -2.602720    1.364498
     13          6           0        1.153757   -3.958863    1.242469
     14          6           0        0.410787   -4.424782   -0.037059
     15          8           0        0.864316   -5.115500   -0.903935
     16          8           0       -0.879342   -3.869778    0.048775
     17          7           0        4.227859    2.989689    0.016755
     18          6           0        2.813270    3.002382   -0.149855
     19          6           0        2.392316    4.345213   -0.441436
     20          6           0        3.562225    5.068326   -0.767751
     21          6           0        4.756888    4.174579   -0.461217
     22          6           0        0.969742    4.777128   -0.413266
     23          6           0        3.607576    6.537618   -1.220591
     24          8           0        4.660681    7.100526   -1.400355
     25          6           0        2.437489    7.401897   -1.331836
     26          7           0        7.081643    2.323478    0.111815
     27          6           0        7.165486    3.691958   -0.135235
     28          6           0        8.608540    4.235224    0.022087
     29          6           0        9.283494    3.065721    0.887363
     30          6           0        8.262292    1.932248    0.647651
     31          6           0        9.454165    4.519659   -1.237898
     32          6           0        9.331866    3.300018    2.440848
     33          6           0       10.312560    2.451845    3.198710
     34          7           0        6.560308   -0.421240    0.302526
     35          6           0        7.919862   -0.543296    0.501278
     36          6           0        8.331311   -1.898222    0.402059
     37          6           0        7.077899   -2.574638    0.334937
     38          6           0        6.081403   -1.618996    0.208203
     39          6           0        9.782685   -2.444086    0.412414
     40          6           0        6.460342   -3.888348    0.296221
     41          8           0        6.844649   -5.022108    0.442778
     42          6           0        4.922748   -3.574516    0.001670
     43          6           0        4.394822   -4.242479   -1.194481
     44          8           0        4.243513   -3.768983   -2.298492
     45          8           0        4.054200   -5.528818   -0.873060
     46          6           0        3.645316   -6.471640   -1.863459
     47          6           0       -1.818822   -4.415840   -1.028848
     48          6           0       -2.982773   -3.473768   -0.875288
     49          6           0       -4.334626   -3.792655   -0.824818
     50          6           0       -4.929233   -5.149384   -1.082428
     51          6           0       -5.506011   -2.740776   -0.664051
     52          6           0       -6.169699   -2.751968    0.724346
     53          6           0       -7.131206   -1.441128    0.762408
     54          6           0       -8.500279   -1.690006    1.324793
     55          6           0       -8.449189   -1.872645    2.894379
     56          6           0       -9.421518   -0.493145    1.102854
     57          6           0      -10.305713   -0.717288   -0.132406
     58          6           0      -11.788414   -0.943834    0.281376
     59          6           0      -12.533640    0.412635    0.717742
     60          6           0      -12.793085    0.487038    2.171170
     61          6           0      -13.928825    0.498845   -0.050836
     62          6           0      -14.168430    1.985073   -0.535664
     63          6           0      -15.536733    2.493987   -0.046079
     64          6           0      -15.935234    3.844530   -0.597385
     65          6           0      -16.538824    4.712916    0.531293
     66          6           0      -16.958860    3.706403   -1.758145
     67          1           0        0.927862    2.035769   -0.283878
     68          1           0        6.441209    5.494581   -0.652425
     69          1           0        9.649122    0.408056    1.214717
     70          1           0        2.059318   -2.482222   -0.922579
     71          1           0        0.582652   -0.490589    0.435446
     72          1           0       -0.480897   -0.368831   -1.429653
     73          1           0        0.580055   -1.626922   -2.203070
     74          1           0        0.807139    0.190580   -2.347189
     75          1           0        1.223551   -1.981808    1.973935
     76          1           0        2.801646   -2.673700    1.940204
     77          1           0        0.387762   -3.739394    1.987594
     78          1           0        1.776099   -4.809230    1.522239
     79          1           0        0.557697    4.031546    0.266906
     80          1           0        0.443359    4.805120   -1.367417
     81          1           0        0.842070    5.700846    0.149951
     82          1           0        2.776813    8.410699   -1.567904
     83          1           0        1.898834    7.366584   -0.384076
     84          1           0        1.848104    6.992591   -2.153147
     85          1           0        8.401049    5.116919    0.628036
     86          1           0       10.207202    2.637320    0.498298
     87          1           0       10.428252    4.043212   -1.131276
     88          1           0        9.708690    5.558955   -1.450940
     89          1           0        9.012309    4.072301   -2.128536
     90          1           0        8.341981    3.441595    2.872729
     91          1           0        9.657248    4.330221    2.583892
     92          1           0       10.965669    3.152739    3.717695
     93          1           0       10.889152    1.783899    2.558769
     94          1           0        9.749343    1.815319    3.881491
     95          1           0       10.287322   -2.199460   -0.522039
     96          1           0        9.743178   -3.533104    0.405202
     97          1           0       10.372745   -2.118308    1.268704
     98          1           0        4.271394   -4.079236    0.714755
     99          1           0        4.120884   -7.400525   -1.550854
    100          1           0        4.044797   -6.193109   -2.839392
    101          1           0        2.558855   -6.402877   -1.922007
    102          1           0       -2.205642   -5.426175   -0.896529
    103          1           0       -1.404677   -4.286376   -2.029089
    104          1           0       -2.816560   -2.412210   -0.693750
    105          1           0       -4.135603   -5.708496   -1.577792
    106          1           0       -5.703389   -5.189064   -1.848192
    107          1           0       -5.367429   -5.689098   -0.241751
    108          1           0       -6.257553   -2.709956   -1.452757
    109          1           0       -4.886775   -1.845348   -0.724239
    110          1           0       -5.516896   -2.570357    1.578854
    111          1           0       -6.750482   -3.673634    0.762904
    112          1           0       -7.254695   -0.990404   -0.222357
    113          1           0       -6.620876   -0.780146    1.464004
    114          1           0       -8.920895   -2.552963    0.807814
    115          1           0       -8.391534   -0.863203    3.301481
    116          1           0       -7.665614   -2.529089    3.272469
    117          1           0       -9.391591   -2.325196    3.200967
    118          1           0       -8.676277    0.295705    1.000630
    119          1           0      -10.086931   -0.419208    1.963335
    120          1           0       -9.889116   -1.408103   -0.865378
    121          1           0      -10.312904    0.261096   -0.612326
    122          1           0      -11.953233   -1.636167    1.105859
    123          1           0      -12.323090   -1.415991   -0.543502
    124          1           0      -11.853546    1.225392    0.462798
    125          1           0      -12.083383    1.197581    2.592519
    126          1           0      -12.656467   -0.484753    2.645584
    127          1           0      -13.759050    0.910219    2.445353
    128          1           0      -14.712736    0.133725    0.612309
    129          1           0      -14.025505   -0.057883   -0.982395
    130          1           0      -13.943760    1.995995   -1.602507
    131          1           0      -13.325901    2.520087   -0.097800
    132          1           0      -15.378811    2.537639    1.031721
    133          1           0      -16.326392    1.762639   -0.215872
    134          1           0      -15.101422    4.446689   -0.956639
    135          1           0      -17.365136    5.356229    0.231478
    136          1           0      -15.645263    5.242102    0.861543
    137          1           0      -16.895405    4.099477    1.359244
    138          1           0      -16.582003    3.066950   -2.557357
    139          1           0      -17.145047    4.710390   -2.138195
    140          1           0      -17.899483    3.340440   -1.346912
 ---------------------------------------------------------------------

 SCF Done:  E(RCAM-B3LYP) =  -3007.15487998     A.U. after   17 cycles

 Excitation energies and oscillator strengths:

 Excited State   1:      Singlet-A      1.6653 eV  744.50 nm  f=0.3823  <S**2>=0.000
     245 -> 248        0.16164
     246 -> 247        0.69062
     245 <- 248        0.10418
 This state for optimization and/or second-order correction.
 Total Energy, E(TD-HF/TD-DFT) =  -3007.09367980
 Copying the excited state density for this state as the 1-particle RhoCI density.

 Excited State   2:      Singlet-A      2.2493 eV  551.22 nm  f=0.1236  <S**2>=0.000
     245 -> 247        0.64358
     246 -> 248       -0.27911

 Excited State   3:      Singlet-A      3.3377 eV  371.46 nm  f=0.0104  <S**2>=0.000
     243 -> 247       -0.16707
     244 -> 247        0.65299
     246 -> 248        0.14619

 Excited State   4:      Singlet-A      3.4825 eV  356.02 nm  f=0.0119  <S**2>=0.000
     242 -> 247        0.20457
     242 -> 249        0.15995
     243 -> 247        0.58107
     246 -> 248        0.18275

 Excited State   5:      Singlet-A      3.5131 eV  352.92 nm  f=0.2095  <S**2>=0.000
     240 -> 247       -0.11765
     241 -> 247        0.16879
     242 -> 247       -0.41736
     242 -> 249       -0.14741
     242 -> 250       -0.10206
     243 -> 247        0.10798
     245 -> 247        0.15907
     246 -> 248        0.42960

 The electronic state is 1-A.
 Alpha  occ. eigenvalues --  -46.86827 -19.25829 -19.22315 -19.21850 -19.18555
 Alpha  occ. eigenvalues --  -19.18057 -19.17934 -14.42194 -14.40829 -14.39664
 Alpha  occ. eigenvalues --  -14.37755 -10.40400 -10.37378 -10.34570 -10.34190
 Alpha  occ. eigenvalues --  -10.33280 -10.31195 -10.30491 -10.30375 -10.30159
 Alpha  occ. eigenvalues --  -10.30019 -10.29914 -10.29054 -10.28350 -10.28324
 Alpha  occ. eigenvalues --  -10.28324 -10.28240 -10.28019 -10.27892 -10.27759
 Alpha  occ. eigenvalues --  -10.27737 -10.27586 -10.27492 -10.27478 -10.27431
 Alpha  occ. eigenvalues --  -10.27352 -10.27221 -10.27084 -10.26949 -10.26685
 Alpha  occ. eigenvalues --  -10.26421 -10.26378 -10.26236 -10.26168 -10.26158
 Alpha  occ. eigenvalues --  -10.25961 -10.25867 -10.25774 -10.25686 -10.25449
 Alpha  occ. eigenvalues --  -10.25359 -10.25310 -10.25309 -10.25205 -10.25131
 Alpha  occ. eigenvalues --  -10.25129 -10.25074 -10.24812 -10.24811 -10.24787
 Alpha  occ. eigenvalues --  -10.24775 -10.24729 -10.24512 -10.24420 -10.24301
 Alpha  occ. eigenvalues --  -10.24193  -3.15712  -1.90610  -1.90176  -1.90021
 Alpha  occ. eigenvalues --   -1.16430  -1.14847  -1.10625  -1.10008  -1.09061
 Alpha  occ. eigenvalues --   -1.06444  -1.04813  -1.03979  -1.02817  -1.01194
 Alpha  occ. eigenvalues --   -0.91916  -0.90803  -0.89833  -0.89324  -0.89288
 Alpha  occ. eigenvalues --   -0.88898  -0.88214  -0.87826  -0.87404  -0.87130
 Alpha  occ. eigenvalues --   -0.85789  -0.85654  -0.84475  -0.83687  -0.83269
 Alpha  occ. eigenvalues --   -0.82747  -0.82433  -0.81319  -0.80726  -0.80499
 Alpha  occ. eigenvalues --   -0.80047  -0.78189  -0.77832  -0.76957  -0.75853
 Alpha  occ. eigenvalues --   -0.75615  -0.75321  -0.74955  -0.74619  -0.74014
 Alpha  occ. eigenvalues --   -0.73294  -0.72884  -0.71500  -0.70953  -0.68835
 Alpha  occ. eigenvalues --   -0.68622  -0.68168  -0.66812  -0.66404  -0.65699
 Alpha  occ. eigenvalues --   -0.65416  -0.65322  -0.64480  -0.64262  -0.63663
 Alpha  occ. eigenvalues --   -0.63501  -0.63120  -0.62682  -0.60447  -0.59883
 Alpha  occ. eigenvalues --   -0.59471  -0.59201  -0.58658  -0.58064  -0.57409
 Alpha  occ. eigenvalues --   -0.57242  -0.56555  -0.56249  -0.55982  -0.55455
 Alpha  occ. eigenvalues --   -0.54952  -0.54822  -0.54550  -0.54416  -0.53972
 Alpha  occ. eigenvalues --   -0.53773  -0.53415  -0.53371  -0.52974  -0.52688
 Alpha  occ. eigenvalues --   -0.52625  -0.52457  -0.52251  -0.51945  -0.51633
 Alpha  occ. eigenvalues --   -0.51163  -0.50991  -0.50924  -0.50879  -0.50715
 Alpha  occ. eigenvalues --   -0.50629  -0.50399  -0.50223  -0.49951  -0.49831
 Alpha  occ. eigenvalues --   -0.49701  -0.49507  -0.49253  -0.49099  -0.48879
 Alpha  occ. eigenvalues --   -0.48620  -0.48460  -0.48104  -0.47684  -0.47572
 Alpha  occ. eigenvalues --   -0.47410  -0.47162  -0.46959  -0.46724  -0.46484
 Alpha  occ. eigenvalues --   -0.46355  -0.46316  -0.46121  -0.45771  -0.45615
 Alpha  occ. eigenvalues --   -0.45503  -0.45241  -0.45066  -0.44748  -0.44706
 Alpha  occ. eigenvalues --   -0.44561  -0.44406  -0.44353  -0.44224  -0.44133
 Alpha  occ. eigenvalues --   -0.43744  -0.43644  -0.43448  -0.43439  -0.43155
 Alpha  occ. eigenvalues --   -0.42916  -0.42680  -0.42594  -0.42348  -0.42274
 Alpha  occ. eigenvalues --   -0.42080  -0.41887  -0.41481  -0.41263  -0.41121
 Alpha  occ. eigenvalues --   -0.41079  -0.40353  -0.40308  -0.40017  -0.39801
 Alpha  occ. eigenvalues --   -0.39498  -0.39379  -0.39195  -0.39025  -0.38843
 Alpha  occ. eigenvalues --   -0.38672  -0.38608  -0.38352  -0.38169  -0.38011
 Alpha  occ. eigenvalues --   -0.37470  -0.37379  -0.36714  -0.36210  -0.36080
 Alpha  occ. eigenvalues --   -0.35779  -0.35351  -0.35100  -0.34452  -0.34274
 Alpha  occ. eigenvalues --   -0.33344  -0.32957  -0.32317  -0.31344  -0.30473
 Alpha  occ. eigenvalues --   -0.30275  -0.30234  -0.29953  -0.29306  -0.24048
 Alpha  occ. eigenvalues --   -0.20674
 Alpha virt. eigenvalues --   -0.08519  -0.00984   0.01131   0.02992   0.03284
 Alpha virt. eigenvalues --    0.03637   0.04470   0.05759   0.06977   0.07267
 Alpha virt. eigenvalues --    0.08291   0.08890   0.08991   0.09223   0.09442

 Mulliken charges:
               1
     1  Mg   0.834968
     2  C    0.093999
     3  C   -0.085351
     4  C   -0.075024
     5  C   -0.103845
     6  N   -0.254739
     7  C   -0.051446
     8  C   -0.062924
     9  C   -0.046934
    10  C    0.004304
    11  C    0.093430
    12  C    0.091670
    13  C    0.047918
    14  C    0.167347
    15  O   -0.186399
    16  O   -0.374343
    17  N   -0.424136
    18  C    0.189434
    19  C   -0.163535
    20  C   -0.033397
    21  C    0.163419
    22  C    0.121778
    23  C   -0.037587
    24  O   -0.197730
    25  C    0.085351
    26  N   -0.359903
    27  C    0.071588
    28  C   -0.008367
    29  C   -0.071565
    30  C    0.075891
    31  C    0.090155
    32  C    0.035478
    33  C    0.042074
    34  N   -0.303235
    35  C    0.116372
    36  C   -0.156496
    37  C   -0.021170
    38  C    0.030445
    39  C    0.113877
    40  C    0.080796
    41  O   -0.136710
    42  C   -0.090724
    43  C    0.171152
    44  O   -0.214499
    45  O   -0.331863
    46  C    0.175338
    47  C    0.301020
    48  C   -0.099749
    49  C   -0.180458
    50  C    0.064896
    51  C    0.030921
    52  C    0.038969
    53  C    0.036462
    54  C   -0.158206
    55  C    0.032219
    56  C    0.057225
    57  C    0.034885
    58  C    0.053671
    59  C   -0.165790
    60  C    0.075546
    61  C    0.029284
    62  C   -0.001093
    63  C    0.056542
    64  C   -0.126869
    65  C    0.028101
    66  C    0.039098
    67  H   -0.036353
    68  H   -0.011156
    69  H   -0.043375
    70  H    0.033527
    71  H    0.000909
    72  H    0.008505
    73  H    0.043262
    74  H    0.015097
    75  H    0.005804
    76  H    0.025846
    77  H    0.023076
    78  H    0.046735
    79  H    0.015169
    80  H    0.043472
    81  H    0.017957
    82  H    0.031956
    83  H    0.031079
    84  H    0.026438
    85  H    0.006733
    86  H    0.008528
    87  H    0.005040
    88  H    0.023856
    89  H    0.023896
    90  H    0.000155
    91  H   -0.008458
    92  H    0.019680
    93  H    0.015050
    94  H    0.020578
    95  H    0.027609
    96  H    0.026280
    97  H    0.028409
    98  H    0.026109
    99  H    0.036760
   100  H    0.022241
   101  H    0.043183
   102  H    0.041607
   103  H    0.047125
   104  H   -0.006512
   105  H   -0.004962
   106  H    0.012079
   107  H    0.036615
   108  H    0.021416
   109  H   -0.014019
   110  H    0.013813
   111  H    0.004996
   112  H   -0.001147
   113  H   -0.005879
   114  H   -0.013634
   115  H    0.013660
   116  H    0.005758
   117  H    0.009079
   118  H   -0.010194
   119  H   -0.004001
   120  H   -0.000886
   121  H   -0.012461
   122  H   -0.015871
   123  H   -0.010039
   124  H    0.007102
   125  H    0.001980
   126  H    0.010068
   127  H    0.006948
   128  H   -0.001315
   129  H   -0.002295
   130  H   -0.003091
   131  H   -0.009790
   132  H   -0.008233
   133  H    0.000482
   134  H   -0.006716
   135  H    0.006231
   136  H    0.009695
   137  H    0.004943
   138  H    0.010230
   139  H    0.005492
   140  H    0.006591
 Sum of Mulliken charges =  -0.00000

 Dipole moment (field-independent basis, Debye):
    X=             -5.6110    Y=              2.7190    Z=              2.7016  Tot=              6.7952
 Quadrupole moment (field-independent basis, Debye-Ang):
   XX=           -389.1504   YY=           -426.2495   ZZ=           -407.4926
   XY=             29.7590   XZ=             19.3352   YZ=              6.7005

 Normal termination of Gaussian 16 at Thu Apr 28 16:11:50 2022.
