 Gaussian 16, Revision A.03,
 Gaussian 16:  ES64L-G16RevA.03 25-Dec-2016

 ---------------------------------
 #p PBE1PBE/Def2SVP td=(nstates=5)
 ---------------------------------

 ------------------------------------------------------
 step_1651_chromophore_18 TDDFT with PBE1PBE functional
 ------------------------------------------------------
 Symbolic Z-matrix:
 Charge =  0 Multiplicity = 1

                         Standard orientation:
 ---------------------------------------------------------------------
 Center     Atomic      Atomic             Coordinates (Angstroms)
 Number     Number       Type             X           Y           Z
 ---------------------------------------------------------------------
      1         12           0        5.379954    1.317101    0.261605
      2          6           0        4.745842   -2.060638   -0.019850
      3          6           0        2.000920    1.878073   -0.151266
      4          6           0        6.139911    4.464161   -0.451933
      5          6           0        8.627645    0.599876    0.879432
      6          7           0        3.575749    0.080920   -0.045387
      7          6           0        3.568186   -1.295709   -0.105265
      8          6           0        2.193908   -1.856189   -0.039780
      9          6           0        1.312267   -0.591223   -0.368296
     10          6           0        2.320432    0.528987   -0.118381
     11          6           0        0.531288   -0.653547   -1.716170
     12          6           0        1.879561   -2.602720    1.364498
     13          6           0        1.153757   -3.958863    1.242469
     14          6           0        0.410787   -4.424782   -0.037059
     15          8           0        0.864316   -5.115500   -0.903935
     16          8           0       -0.879342   -3.869778    0.048775
     17          7           0        4.227859    2.989689    0.016755
     18          6           0        2.813270    3.002382   -0.149855
     19          6           0        2.392316    4.345213   -0.441436
     20          6           0        3.562225    5.068326   -0.767751
     21          6           0        4.756888    4.174579   -0.461217
     22          6           0        0.969742    4.777128   -0.413266
     23          6           0        3.607576    6.537618   -1.220591
     24          8           0        4.660681    7.100526   -1.400355
     25          6           0        2.437489    7.401897   -1.331836
     26          7           0        7.081643    2.323478    0.111815
     27          6           0        7.165486    3.691958   -0.135235
     28          6           0        8.608540    4.235224    0.022087
     29          6           0        9.283494    3.065721    0.887363
     30          6           0        8.262292    1.932248    0.647651
     31          6           0        9.454165    4.519659   -1.237898
     32          6           0        9.331866    3.300018    2.440848
     33          6           0       10.312560    2.451845    3.198710
     34          7           0        6.560308   -0.421240    0.302526
     35          6           0        7.919862   -0.543296    0.501278
     36          6           0        8.331311   -1.898222    0.402059
     37          6           0        7.077899   -2.574638    0.334937
     38          6           0        6.081403   -1.618996    0.208203
     39          6           0        9.782685   -2.444086    0.412414
     40          6           0        6.460342   -3.888348    0.296221
     41          8           0        6.844649   -5.022108    0.442778
     42          6           0        4.922748   -3.574516    0.001670
     43          6           0        4.394822   -4.242479   -1.194481
     44          8           0        4.243513   -3.768983   -2.298492
     45          8           0        4.054200   -5.528818   -0.873060
     46          6           0        3.645316   -6.471640   -1.863459
     47          6           0       -1.818822   -4.415840   -1.028848
     48          6           0       -2.982773   -3.473768   -0.875288
     49          6           0       -4.334626   -3.792655   -0.824818
     50          6           0       -4.929233   -5.149384   -1.082428
     51          6           0       -5.506011   -2.740776   -0.664051
     52          6           0       -6.169699   -2.751968    0.724346
     53          6           0       -7.131206   -1.441128    0.762408
     54          6           0       -8.500279   -1.690006    1.324793
     55          6           0       -8.449189   -1.872645    2.894379
     56          6           0       -9.421518   -0.493145    1.102854
     57          6           0      -10.305713   -0.717288   -0.132406
     58          6           0      -11.788414   -0.943834    0.281376
     59          6           0      -12.533640    0.412635    0.717742
     60          6           0      -12.793085    0.487038    2.171170
     61          6           0      -13.928825    0.498845   -0.050836
     62          6           0      -14.168430    1.985073   -0.535664
     63          6           0      -15.536733    2.493987   -0.046079
     64          6           0      -15.935234    3.844530   -0.597385
     65          6           0      -16.538824    4.712916    0.531293
     66          6           0      -16.958860    3.706403   -1.758145
     67          1           0        0.927862    2.035769   -0.283878
     68          1           0        6.441209    5.494581   -0.652425
     69          1           0        9.649122    0.408056    1.214717
     70          1           0        2.059318   -2.482222   -0.922579
     71          1           0        0.582652   -0.490589    0.435446
     72          1           0       -0.480897   -0.368831   -1.429653
     73          1           0        0.580055   -1.626922   -2.203070
     74          1           0        0.807139    0.190580   -2.347189
     75          1           0        1.223551   -1.981808    1.973935
     76          1           0        2.801646   -2.673700    1.940204
     77          1           0        0.387762   -3.739394    1.987594
     78          1           0        1.776099   -4.809230    1.522239
     79          1           0        0.557697    4.031546    0.266906
     80          1           0        0.443359    4.805120   -1.367417
     81          1           0        0.842070    5.700846    0.149951
     82          1           0        2.776813    8.410699   -1.567904
     83          1           0        1.898834    7.366584   -0.384076
     84          1           0        1.848104    6.992591   -2.153147
     85          1           0        8.401049    5.116919    0.628036
     86          1           0       10.207202    2.637320    0.498298
     87          1           0       10.428252    4.043212   -1.131276
     88          1           0        9.708690    5.558955   -1.450940
     89          1           0        9.012309    4.072301   -2.128536
     90          1           0        8.341981    3.441595    2.872729
     91          1           0        9.657248    4.330221    2.583892
     92          1           0       10.965669    3.152739    3.717695
     93          1           0       10.889152    1.783899    2.558769
     94          1           0        9.749343    1.815319    3.881491
     95          1           0       10.287322   -2.199460   -0.522039
     96          1           0        9.743178   -3.533104    0.405202
     97          1           0       10.372745   -2.118308    1.268704
     98          1           0        4.271394   -4.079236    0.714755
     99          1           0        4.120884   -7.400525   -1.550854
    100          1           0        4.044797   -6.193109   -2.839392
    101          1           0        2.558855   -6.402877   -1.922007
    102          1           0       -2.205642   -5.426175   -0.896529
    103          1           0       -1.404677   -4.286376   -2.029089
    104          1           0       -2.816560   -2.412210   -0.693750
    105          1           0       -4.135603   -5.708496   -1.577792
    106          1           0       -5.703389   -5.189064   -1.848192
    107          1           0       -5.367429   -5.689098   -0.241751
    108          1           0       -6.257553   -2.709956   -1.452757
    109          1           0       -4.886775   -1.845348   -0.724239
    110          1           0       -5.516896   -2.570357    1.578854
    111          1           0       -6.750482   -3.673634    0.762904
    112          1           0       -7.254695   -0.990404   -0.222357
    113          1           0       -6.620876   -0.780146    1.464004
    114          1           0       -8.920895   -2.552963    0.807814
    115          1           0       -8.391534   -0.863203    3.301481
    116          1           0       -7.665614   -2.529089    3.272469
    117          1           0       -9.391591   -2.325196    3.200967
    118          1           0       -8.676277    0.295705    1.000630
    119          1           0      -10.086931   -0.419208    1.963335
    120          1           0       -9.889116   -1.408103   -0.865378
    121          1           0      -10.312904    0.261096   -0.612326
    122          1           0      -11.953233   -1.636167    1.105859
    123          1           0      -12.323090   -1.415991   -0.543502
    124          1           0      -11.853546    1.225392    0.462798
    125          1           0      -12.083383    1.197581    2.592519
    126          1           0      -12.656467   -0.484753    2.645584
    127          1           0      -13.759050    0.910219    2.445353
    128          1           0      -14.712736    0.133725    0.612309
    129          1           0      -14.025505   -0.057883   -0.982395
    130          1           0      -13.943760    1.995995   -1.602507
    131          1           0      -13.325901    2.520087   -0.097800
    132          1           0      -15.378811    2.537639    1.031721
    133          1           0      -16.326392    1.762639   -0.215872
    134          1           0      -15.101422    4.446689   -0.956639
    135          1           0      -17.365136    5.356229    0.231478
    136          1           0      -15.645263    5.242102    0.861543
    137          1           0      -16.895405    4.099477    1.359244
    138          1           0      -16.582003    3.066950   -2.557357
    139          1           0      -17.145047    4.710390   -2.138195
    140          1           0      -17.899483    3.340440   -1.346912
 ---------------------------------------------------------------------

 SCF Done:  E(RPBE1PBE) =  -3005.34273377     A.U. after   15 cycles

 Excitation energies and oscillator strengths:

 Excited State   1:      Singlet-A      1.8187 eV  681.74 nm  f=0.3601  <S**2>=0.000
     245 -> 248        0.15751
     246 -> 247        0.69860
     246 <- 247       -0.12143
 This state for optimization and/or second-order correction.
 Total Energy, E(TD-HF/TD-DFT) =  -3005.27589955
 Copying the excited state density for this state as the 1-particle RhoCI density.

 Excited State   2:      Singlet-A      2.2459 eV  552.06 nm  f=0.1261  <S**2>=0.000
     245 -> 247        0.65500
     246 -> 248       -0.25194

 Excited State   3:      Singlet-A      2.9484 eV  420.51 nm  f=0.0004  <S**2>=0.000
     240 -> 247       -0.10104
     242 -> 247        0.30621
     243 -> 247        0.49580
     244 -> 247       -0.34890

 Excited State   4:      Singlet-A      2.9893 eV  414.76 nm  f=0.0016  <S**2>=0.000
     242 -> 247        0.10872
     243 -> 247        0.33768
     244 -> 247        0.58839

 Excited State   5:      Singlet-A      3.0590 eV  405.31 nm  f=0.0010  <S**2>=0.000
     242 -> 247        0.60286
     243 -> 247       -0.31497
     246 -> 248       -0.10197

 The electronic state is 1-A.
 Alpha  occ. eigenvalues --  -46.90237 -19.26550 -19.22988 -19.22087 -19.18854
 Alpha  occ. eigenvalues --  -19.18138 -19.18137 -14.41525 -14.40507 -14.39259
 Alpha  occ. eigenvalues --  -14.37492 -10.37452 -10.34344 -10.31762 -10.31190
 Alpha  occ. eigenvalues --  -10.30668 -10.28681 -10.28188 -10.28057 -10.28043
 Alpha  occ. eigenvalues --  -10.27557 -10.27529 -10.26303 -10.26204 -10.25989
 Alpha  occ. eigenvalues --  -10.25931 -10.25864 -10.25761 -10.25692 -10.25636
 Alpha  occ. eigenvalues --  -10.25585 -10.25516 -10.25225 -10.25082 -10.25048
 Alpha  occ. eigenvalues --  -10.25021 -10.24513 -10.24492 -10.24471 -10.24333
 Alpha  occ. eigenvalues --  -10.23984 -10.23864 -10.23804 -10.23787 -10.23731
 Alpha  occ. eigenvalues --  -10.23598 -10.23341 -10.23295 -10.23251 -10.22948
 Alpha  occ. eigenvalues --  -10.22899 -10.22880 -10.22860 -10.22854 -10.22739
 Alpha  occ. eigenvalues --  -10.22723 -10.22694 -10.22586 -10.22398 -10.22355
 Alpha  occ. eigenvalues --  -10.22338 -10.22184 -10.22080 -10.21792 -10.21681
 Alpha  occ. eigenvalues --  -10.21583  -3.12692  -1.85532  -1.85077  -1.84925
 Alpha  occ. eigenvalues --   -1.11209  -1.09620  -1.05251  -1.04841  -1.03942
 Alpha  occ. eigenvalues --   -1.01266  -0.99563  -0.98603  -0.97467  -0.95706
 Alpha  occ. eigenvalues --   -0.86284  -0.84891  -0.83948  -0.83538  -0.83449
 Alpha  occ. eigenvalues --   -0.83076  -0.82532  -0.81937  -0.81729  -0.81328
 Alpha  occ. eigenvalues --   -0.80194  -0.79892  -0.78634  -0.78030  -0.77583
 Alpha  occ. eigenvalues --   -0.76919  -0.76534  -0.75501  -0.75013  -0.74880
 Alpha  occ. eigenvalues --   -0.74226  -0.72379  -0.72109  -0.71326  -0.70169
 Alpha  occ. eigenvalues --   -0.69768  -0.69393  -0.69069  -0.68973  -0.68193
 Alpha  occ. eigenvalues --   -0.67657  -0.67272  -0.65878  -0.65278  -0.63255
 Alpha  occ. eigenvalues --   -0.63027  -0.62401  -0.61221  -0.60621  -0.60222
 Alpha  occ. eigenvalues --   -0.59795  -0.59581  -0.58956  -0.58381  -0.58172
 Alpha  occ. eigenvalues --   -0.58130  -0.57251  -0.56854  -0.55001  -0.54319
 Alpha  occ. eigenvalues --   -0.53965  -0.53737  -0.53250  -0.52720  -0.51997
 Alpha  occ. eigenvalues --   -0.51747  -0.50975  -0.50605  -0.50590  -0.49924
 Alpha  occ. eigenvalues --   -0.49459  -0.49293  -0.48987  -0.48767  -0.48530
 Alpha  occ. eigenvalues --   -0.48232  -0.47900  -0.47584  -0.47520  -0.47250
 Alpha  occ. eigenvalues --   -0.47180  -0.46960  -0.46738  -0.46513  -0.46164
 Alpha  occ. eigenvalues --   -0.45722  -0.45577  -0.45511  -0.45416  -0.45263
 Alpha  occ. eigenvalues --   -0.45114  -0.44921  -0.44801  -0.44583  -0.44497
 Alpha  occ. eigenvalues --   -0.44225  -0.44023  -0.43812  -0.43710  -0.43484
 Alpha  occ. eigenvalues --   -0.43197  -0.43087  -0.42651  -0.42366  -0.42187
 Alpha  occ. eigenvalues --   -0.42071  -0.41826  -0.41611  -0.41367  -0.41124
 Alpha  occ. eigenvalues --   -0.41053  -0.40944  -0.40819  -0.40428  -0.40341
 Alpha  occ. eigenvalues --   -0.40302  -0.39865  -0.39846  -0.39514  -0.39424
 Alpha  occ. eigenvalues --   -0.39295  -0.39191  -0.39153  -0.39030  -0.38859
 Alpha  occ. eigenvalues --   -0.38574  -0.38353  -0.38236  -0.38183  -0.37944
 Alpha  occ. eigenvalues --   -0.37621  -0.37494  -0.37355  -0.37149  -0.37079
 Alpha  occ. eigenvalues --   -0.36927  -0.36662  -0.36214  -0.36156  -0.35996
 Alpha  occ. eigenvalues --   -0.35822  -0.35202  -0.35107  -0.34791  -0.34669
 Alpha  occ. eigenvalues --   -0.34285  -0.34188  -0.34108  -0.34048  -0.33683
 Alpha  occ. eigenvalues --   -0.33579  -0.33376  -0.33189  -0.33039  -0.32789
 Alpha  occ. eigenvalues --   -0.32461  -0.32162  -0.31779  -0.31269  -0.30877
 Alpha  occ. eigenvalues --   -0.30684  -0.30247  -0.30110  -0.29511  -0.29385
 Alpha  occ. eigenvalues --   -0.28407  -0.28369  -0.27325  -0.26895  -0.25645
 Alpha  occ. eigenvalues --   -0.25612  -0.25275  -0.24995  -0.24918  -0.20885
 Alpha  occ. eigenvalues --   -0.18319
 Alpha virt. eigenvalues --   -0.10968  -0.04538  -0.03088  -0.01362  -0.00881
 Alpha virt. eigenvalues --   -0.00114   0.00515   0.01562   0.02491   0.03902
 Alpha virt. eigenvalues --    0.04647   0.04769   0.05338   0.05785   0.05826

 Mulliken charges:
               1
     1  Mg   0.993665
     2  C    0.070851
     3  C   -0.083942
     4  C   -0.068882
     5  C   -0.093354
     6  N   -0.364552
     7  C    0.027636
     8  C   -0.137282
     9  C   -0.114683
    10  C    0.048131
    11  C    0.033457
    12  C    0.040724
    13  C   -0.025001
    14  C    0.230994
    15  O   -0.222157
    16  O   -0.400136
    17  N   -0.532829
    18  C    0.203973
    19  C   -0.182158
    20  C   -0.089386
    21  C    0.194116
    22  C    0.060579
    23  C    0.019586
    24  O   -0.234792
    25  C    0.007166
    26  N   -0.462069
    27  C    0.098884
    28  C   -0.083417
    29  C   -0.155150
    30  C    0.108028
    31  C    0.034452
    32  C   -0.018770
    33  C   -0.030965
    34  N   -0.432504
    35  C    0.133909
    36  C   -0.159624
    37  C   -0.074472
    38  C    0.090043
    39  C    0.061012
    40  C    0.170881
    41  O   -0.184496
    42  C   -0.193995
    43  C    0.267471
    44  O   -0.251446
    45  O   -0.367104
    46  C    0.121921
    47  C    0.255274
    48  C   -0.119973
    49  C   -0.211689
    50  C    0.005706
    51  C   -0.042104
    52  C   -0.020202
    53  C   -0.017517
    54  C   -0.239725
    55  C   -0.031766
    56  C    0.000206
    57  C   -0.036423
    58  C    0.002208
    59  C   -0.250980
    60  C    0.017624
    61  C   -0.022174
    62  C   -0.059825
    63  C   -0.003774
    64  C   -0.220145
    65  C   -0.032170
    66  C   -0.024224
    67  H   -0.005758
    68  H    0.021002
    69  H   -0.008334
    70  H    0.076336
    71  H    0.038820
    72  H    0.035488
    73  H    0.068433
    74  H    0.043737
    75  H    0.037275
    76  H    0.057757
    77  H    0.056673
    78  H    0.076648
    79  H    0.042300
    80  H    0.069489
    81  H    0.045796
    82  H    0.058884
    83  H    0.057842
    84  H    0.054207
    85  H    0.042916
    86  H    0.043492
    87  H    0.032197
    88  H    0.050885
    89  H    0.051296
    90  H    0.032769
    91  H    0.026542
    92  H    0.047774
    93  H    0.041108
    94  H    0.048921
    95  H    0.056175
    96  H    0.055112
    97  H    0.054583
    98  H    0.067037
    99  H    0.058728
   100  H    0.043800
   101  H    0.068037
   102  H    0.067202
   103  H    0.073817
   104  H    0.024173
   105  H    0.022995
   106  H    0.039892
   107  H    0.062961
   108  H    0.052396
   109  H    0.021343
   110  H    0.045114
   111  H    0.037799
   112  H    0.031061
   113  H    0.027600
   114  H    0.024031
   115  H    0.041401
   116  H    0.034061
   117  H    0.038301
   118  H    0.022814
   119  H    0.033737
   120  H    0.029693
   121  H    0.023030
   122  H    0.017182
   123  H    0.022833
   124  H    0.042460
   125  H    0.029433
   126  H    0.035921
   127  H    0.034967
   128  H    0.030343
   129  H    0.029624
   130  H    0.028862
   131  H    0.024081
   132  H    0.026774
   133  H    0.032127
   134  H    0.030447
   135  H    0.033244
   136  H    0.037989
   137  H    0.032352
   138  H    0.038724
   139  H    0.034092
   140  H    0.034517
 Sum of Mulliken charges =  -0.00000

 Dipole moment (field-independent basis, Debye):
    X=             -5.2879    Y=              2.5333    Z=              2.8454  Tot=              6.5174
 Quadrupole moment (field-independent basis, Debye-Ang):
   XX=           -379.8894   YY=           -423.9620   ZZ=           -405.0287
   XY=             29.6938   XZ=             20.2307   YZ=              7.1861

 Normal termination of Gaussian 16 at Thu Apr 28 16:28:20 2022.
