 Gaussian 16, Revision A.03,
 Gaussian 16:  ES64L-G16RevA.03 25-Dec-2016

 --------------------------------
 #p wB97XD/Def2SVP td=(nstates=5)
 --------------------------------

 -----------------------------------------------------
 step_1651_chromophore_18 TDDFT with wB97XD functional
 -----------------------------------------------------
 Symbolic Z-matrix:
 Charge =  0 Multiplicity = 1

                         Standard orientation:
 ---------------------------------------------------------------------
 Center     Atomic      Atomic             Coordinates (Angstroms)
 Number     Number       Type             X           Y           Z
 ---------------------------------------------------------------------
      1         12           0        5.379954    1.317101    0.261605
      2          6           0        4.745842   -2.060638   -0.019850
      3          6           0        2.000920    1.878073   -0.151266
      4          6           0        6.139911    4.464161   -0.451933
      5          6           0        8.627645    0.599876    0.879432
      6          7           0        3.575749    0.080920   -0.045387
      7          6           0        3.568186   -1.295709   -0.105265
      8          6           0        2.193908   -1.856189   -0.039780
      9          6           0        1.312267   -0.591223   -0.368296
     10          6           0        2.320432    0.528987   -0.118381
     11          6           0        0.531288   -0.653547   -1.716170
     12          6           0        1.879561   -2.602720    1.364498
     13          6           0        1.153757   -3.958863    1.242469
     14          6           0        0.410787   -4.424782   -0.037059
     15          8           0        0.864316   -5.115500   -0.903935
     16          8           0       -0.879342   -3.869778    0.048775
     17          7           0        4.227859    2.989689    0.016755
     18          6           0        2.813270    3.002382   -0.149855
     19          6           0        2.392316    4.345213   -0.441436
     20          6           0        3.562225    5.068326   -0.767751
     21          6           0        4.756888    4.174579   -0.461217
     22          6           0        0.969742    4.777128   -0.413266
     23          6           0        3.607576    6.537618   -1.220591
     24          8           0        4.660681    7.100526   -1.400355
     25          6           0        2.437489    7.401897   -1.331836
     26          7           0        7.081643    2.323478    0.111815
     27          6           0        7.165486    3.691958   -0.135235
     28          6           0        8.608540    4.235224    0.022087
     29          6           0        9.283494    3.065721    0.887363
     30          6           0        8.262292    1.932248    0.647651
     31          6           0        9.454165    4.519659   -1.237898
     32          6           0        9.331866    3.300018    2.440848
     33          6           0       10.312560    2.451845    3.198710
     34          7           0        6.560308   -0.421240    0.302526
     35          6           0        7.919862   -0.543296    0.501278
     36          6           0        8.331311   -1.898222    0.402059
     37          6           0        7.077899   -2.574638    0.334937
     38          6           0        6.081403   -1.618996    0.208203
     39          6           0        9.782685   -2.444086    0.412414
     40          6           0        6.460342   -3.888348    0.296221
     41          8           0        6.844649   -5.022108    0.442778
     42          6           0        4.922748   -3.574516    0.001670
     43          6           0        4.394822   -4.242479   -1.194481
     44          8           0        4.243513   -3.768983   -2.298492
     45          8           0        4.054200   -5.528818   -0.873060
     46          6           0        3.645316   -6.471640   -1.863459
     47          6           0       -1.818822   -4.415840   -1.028848
     48          6           0       -2.982773   -3.473768   -0.875288
     49          6           0       -4.334626   -3.792655   -0.824818
     50          6           0       -4.929233   -5.149384   -1.082428
     51          6           0       -5.506011   -2.740776   -0.664051
     52          6           0       -6.169699   -2.751968    0.724346
     53          6           0       -7.131206   -1.441128    0.762408
     54          6           0       -8.500279   -1.690006    1.324793
     55          6           0       -8.449189   -1.872645    2.894379
     56          6           0       -9.421518   -0.493145    1.102854
     57          6           0      -10.305713   -0.717288   -0.132406
     58          6           0      -11.788414   -0.943834    0.281376
     59          6           0      -12.533640    0.412635    0.717742
     60          6           0      -12.793085    0.487038    2.171170
     61          6           0      -13.928825    0.498845   -0.050836
     62          6           0      -14.168430    1.985073   -0.535664
     63          6           0      -15.536733    2.493987   -0.046079
     64          6           0      -15.935234    3.844530   -0.597385
     65          6           0      -16.538824    4.712916    0.531293
     66          6           0      -16.958860    3.706403   -1.758145
     67          1           0        0.927862    2.035769   -0.283878
     68          1           0        6.441209    5.494581   -0.652425
     69          1           0        9.649122    0.408056    1.214717
     70          1           0        2.059318   -2.482222   -0.922579
     71          1           0        0.582652   -0.490589    0.435446
     72          1           0       -0.480897   -0.368831   -1.429653
     73          1           0        0.580055   -1.626922   -2.203070
     74          1           0        0.807139    0.190580   -2.347189
     75          1           0        1.223551   -1.981808    1.973935
     76          1           0        2.801646   -2.673700    1.940204
     77          1           0        0.387762   -3.739394    1.987594
     78          1           0        1.776099   -4.809230    1.522239
     79          1           0        0.557697    4.031546    0.266906
     80          1           0        0.443359    4.805120   -1.367417
     81          1           0        0.842070    5.700846    0.149951
     82          1           0        2.776813    8.410699   -1.567904
     83          1           0        1.898834    7.366584   -0.384076
     84          1           0        1.848104    6.992591   -2.153147
     85          1           0        8.401049    5.116919    0.628036
     86          1           0       10.207202    2.637320    0.498298
     87          1           0       10.428252    4.043212   -1.131276
     88          1           0        9.708690    5.558955   -1.450940
     89          1           0        9.012309    4.072301   -2.128536
     90          1           0        8.341981    3.441595    2.872729
     91          1           0        9.657248    4.330221    2.583892
     92          1           0       10.965669    3.152739    3.717695
     93          1           0       10.889152    1.783899    2.558769
     94          1           0        9.749343    1.815319    3.881491
     95          1           0       10.287322   -2.199460   -0.522039
     96          1           0        9.743178   -3.533104    0.405202
     97          1           0       10.372745   -2.118308    1.268704
     98          1           0        4.271394   -4.079236    0.714755
     99          1           0        4.120884   -7.400525   -1.550854
    100          1           0        4.044797   -6.193109   -2.839392
    101          1           0        2.558855   -6.402877   -1.922007
    102          1           0       -2.205642   -5.426175   -0.896529
    103          1           0       -1.404677   -4.286376   -2.029089
    104          1           0       -2.816560   -2.412210   -0.693750
    105          1           0       -4.135603   -5.708496   -1.577792
    106          1           0       -5.703389   -5.189064   -1.848192
    107          1           0       -5.367429   -5.689098   -0.241751
    108          1           0       -6.257553   -2.709956   -1.452757
    109          1           0       -4.886775   -1.845348   -0.724239
    110          1           0       -5.516896   -2.570357    1.578854
    111          1           0       -6.750482   -3.673634    0.762904
    112          1           0       -7.254695   -0.990404   -0.222357
    113          1           0       -6.620876   -0.780146    1.464004
    114          1           0       -8.920895   -2.552963    0.807814
    115          1           0       -8.391534   -0.863203    3.301481
    116          1           0       -7.665614   -2.529089    3.272469
    117          1           0       -9.391591   -2.325196    3.200967
    118          1           0       -8.676277    0.295705    1.000630
    119          1           0      -10.086931   -0.419208    1.963335
    120          1           0       -9.889116   -1.408103   -0.865378
    121          1           0      -10.312904    0.261096   -0.612326
    122          1           0      -11.953233   -1.636167    1.105859
    123          1           0      -12.323090   -1.415991   -0.543502
    124          1           0      -11.853546    1.225392    0.462798
    125          1           0      -12.083383    1.197581    2.592519
    126          1           0      -12.656467   -0.484753    2.645584
    127          1           0      -13.759050    0.910219    2.445353
    128          1           0      -14.712736    0.133725    0.612309
    129          1           0      -14.025505   -0.057883   -0.982395
    130          1           0      -13.943760    1.995995   -1.602507
    131          1           0      -13.325901    2.520087   -0.097800
    132          1           0      -15.378811    2.537639    1.031721
    133          1           0      -16.326392    1.762639   -0.215872
    134          1           0      -15.101422    4.446689   -0.956639
    135          1           0      -17.365136    5.356229    0.231478
    136          1           0      -15.645263    5.242102    0.861543
    137          1           0      -16.895405    4.099477    1.359244
    138          1           0      -16.582003    3.066950   -2.557357
    139          1           0      -17.145047    4.710390   -2.138195
    140          1           0      -17.899483    3.340440   -1.346912
 ---------------------------------------------------------------------

 SCF Done:  E(RwB97XD) =  -3007.85126607     A.U. after   17 cycles

 Excitation energies and oscillator strengths:

 Excited State   1:      Singlet-A      1.6107 eV  769.73 nm  f=0.3821  <S**2>=0.000
     245 -> 248        0.16622
     246 -> 247        0.68823
     245 <- 248        0.11239
 This state for optimization and/or second-order correction.
 Total Energy, E(TD-HF/TD-DFT) =  -3007.79207225
 Copying the excited state density for this state as the 1-particle RhoCI density.

 Excited State   2:      Singlet-A      2.1953 eV  564.77 nm  f=0.1199  <S**2>=0.000
     245 -> 247        0.64168
     246 -> 248       -0.28115

 Excited State   3:      Singlet-A      3.3583 eV  369.19 nm  f=0.0138  <S**2>=0.000
     240 -> 247        0.11543
     243 -> 247       -0.18671
     244 -> 247        0.63406
     246 -> 248        0.15512

 Excited State   4:      Singlet-A      3.5054 eV  353.70 nm  f=0.1020  <S**2>=0.000
     240 -> 247       -0.22054
     242 -> 249        0.10275
     243 -> 247        0.51202
     246 -> 248        0.36413

 Excited State   5:      Singlet-A      3.5466 eV  349.59 nm  f=0.1711  <S**2>=0.000
     240 -> 247        0.12337
     242 -> 247        0.42012
     242 -> 249        0.20559
     242 -> 250        0.13728
     243 -> 247        0.22588
     243 -> 249        0.12802
     244 -> 247        0.10070
     245 -> 247       -0.14487
     246 -> 248       -0.33039

 The electronic state is 1-A.
 Alpha  occ. eigenvalues --  -46.93174 -19.31078 -19.27534 -19.26754 -19.23585
 Alpha  occ. eigenvalues --  -19.23076 -19.22854 -14.46825 -14.45405 -14.44313
 Alpha  occ. eigenvalues --  -14.42317 -10.44223 -10.41195 -10.38570 -10.38140
 Alpha  occ. eigenvalues --  -10.37198 -10.35290 -10.34501 -10.34376 -10.34129
 Alpha  occ. eigenvalues --  -10.34097 -10.33943 -10.32784 -10.32513 -10.32314
 Alpha  occ. eigenvalues --  -10.32294 -10.32291 -10.32067 -10.31942 -10.31836
 Alpha  occ. eigenvalues --  -10.31791 -10.31683 -10.31614 -10.31520 -10.31403
 Alpha  occ. eigenvalues --  -10.31357 -10.31193 -10.31166 -10.30912 -10.30731
 Alpha  occ. eigenvalues --  -10.30386 -10.30224 -10.30196 -10.30070 -10.30022
 Alpha  occ. eigenvalues --  -10.29863 -10.29807 -10.29611 -10.29555 -10.29420
 Alpha  occ. eigenvalues --  -10.29269 -10.29241 -10.29180 -10.29167 -10.29085
 Alpha  occ. eigenvalues --  -10.29065 -10.29058 -10.28756 -10.28737 -10.28730
 Alpha  occ. eigenvalues --  -10.28726 -10.28631 -10.28455 -10.28237 -10.28128
 Alpha  occ. eigenvalues --  -10.28006  -3.19453  -1.93051  -1.92591  -1.92440
 Alpha  occ. eigenvalues --   -1.18570  -1.17007  -1.12842  -1.12237  -1.11270
 Alpha  occ. eigenvalues --   -1.08624  -1.06819  -1.06001  -1.04802  -1.03251
 Alpha  occ. eigenvalues --   -0.93874  -0.92577  -0.91639  -0.91229  -0.91114
 Alpha  occ. eigenvalues --   -0.90735  -0.90064  -0.89605  -0.89330  -0.89089
 Alpha  occ. eigenvalues --   -0.87708  -0.87536  -0.86320  -0.85559  -0.85197
 Alpha  occ. eigenvalues --   -0.84600  -0.84348  -0.83188  -0.82644  -0.82460
 Alpha  occ. eigenvalues --   -0.81903  -0.80174  -0.79728  -0.78848  -0.77788
 Alpha  occ. eigenvalues --   -0.77470  -0.77105  -0.76771  -0.76554  -0.75864
 Alpha  occ. eigenvalues --   -0.75226  -0.74838  -0.73454  -0.72891  -0.70720
 Alpha  occ. eigenvalues --   -0.70603  -0.70054  -0.68796  -0.68281  -0.67623
 Alpha  occ. eigenvalues --   -0.67326  -0.67251  -0.66490  -0.66075  -0.65644
 Alpha  occ. eigenvalues --   -0.65495  -0.64940  -0.64511  -0.62418  -0.61821
 Alpha  occ. eigenvalues --   -0.61485  -0.61155  -0.60654  -0.60057  -0.59378
 Alpha  occ. eigenvalues --   -0.59177  -0.58462  -0.58149  -0.57969  -0.57386
 Alpha  occ. eigenvalues --   -0.56888  -0.56765  -0.56444  -0.56258  -0.55872
 Alpha  occ. eigenvalues --   -0.55662  -0.55344  -0.55296  -0.54899  -0.54598
 Alpha  occ. eigenvalues --   -0.54556  -0.54346  -0.54131  -0.53900  -0.53551
 Alpha  occ. eigenvalues --   -0.53069  -0.52903  -0.52817  -0.52792  -0.52621
 Alpha  occ. eigenvalues --   -0.52488  -0.52307  -0.52166  -0.51857  -0.51742
 Alpha  occ. eigenvalues --   -0.51649  -0.51415  -0.51145  -0.51063  -0.50788
 Alpha  occ. eigenvalues --   -0.50508  -0.50358  -0.50035  -0.49576  -0.49462
 Alpha  occ. eigenvalues --   -0.49316  -0.49103  -0.48907  -0.48656  -0.48347
 Alpha  occ. eigenvalues --   -0.48259  -0.48194  -0.47996  -0.47648  -0.47529
 Alpha  occ. eigenvalues --   -0.47408  -0.47095  -0.46980  -0.46693  -0.46557
 Alpha  occ. eigenvalues --   -0.46507  -0.46307  -0.46264  -0.46103  -0.46034
 Alpha  occ. eigenvalues --   -0.45686  -0.45528  -0.45402  -0.45334  -0.45092
 Alpha  occ. eigenvalues --   -0.44782  -0.44603  -0.44516  -0.44254  -0.44198
 Alpha  occ. eigenvalues --   -0.43987  -0.43885  -0.43325  -0.43220  -0.43039
 Alpha  occ. eigenvalues --   -0.42941  -0.42210  -0.42207  -0.41880  -0.41705
 Alpha  occ. eigenvalues --   -0.41336  -0.41322  -0.41088  -0.40949  -0.40728
 Alpha  occ. eigenvalues --   -0.40567  -0.40439  -0.40251  -0.40093  -0.39846
 Alpha  occ. eigenvalues --   -0.39426  -0.39219  -0.38752  -0.38193  -0.37917
 Alpha  occ. eigenvalues --   -0.37639  -0.37275  -0.36968  -0.36451  -0.36256
 Alpha  occ. eigenvalues --   -0.35187  -0.35113  -0.34335  -0.33544  -0.32477
 Alpha  occ. eigenvalues --   -0.32317  -0.32227  -0.32072  -0.31449  -0.25978
 Alpha  occ. eigenvalues --   -0.22484
 Alpha virt. eigenvalues --   -0.06860   0.00946   0.03183   0.05143   0.05840
 Alpha virt. eigenvalues --    0.06350   0.06712   0.08188   0.09264   0.10230
 Alpha virt. eigenvalues --    0.11290   0.11494   0.12159   0.12480   0.12602

 Mulliken charges:
               1
     1  Mg   0.979084
     2  C    0.077408
     3  C   -0.096405
     4  C   -0.088350
     5  C   -0.110703
     6  N   -0.325545
     7  C   -0.007732
     8  C   -0.106293
     9  C   -0.091326
    10  C    0.028083
    11  C    0.044965
    12  C    0.050518
    13  C   -0.009169
    14  C    0.217520
    15  O   -0.218176
    16  O   -0.400119
    17  N   -0.504309
    18  C    0.201559
    19  C   -0.174054
    20  C   -0.080605
    21  C    0.189140
    22  C    0.072341
    23  C    0.014832
    24  O   -0.229265
    25  C    0.019660
    26  N   -0.435302
    27  C    0.090377
    28  C   -0.059356
    29  C   -0.120439
    30  C    0.098329
    31  C    0.042527
    32  C   -0.008233
    33  C   -0.015919
    34  N   -0.392872
    35  C    0.126624
    36  C   -0.163285
    37  C   -0.071033
    38  C    0.069315
    39  C    0.071762
    40  C    0.156378
    41  O   -0.175193
    42  C   -0.153335
    43  C    0.239442
    44  O   -0.244456
    45  O   -0.363143
    46  C    0.137104
    47  C    0.269435
    48  C   -0.124013
    49  C   -0.203390
    50  C    0.015796
    51  C   -0.014773
    52  C   -0.008999
    53  C   -0.001401
    54  C   -0.211774
    55  C   -0.015333
    56  C    0.021645
    57  C   -0.015696
    58  C    0.019006
    59  C   -0.219553
    60  C    0.026123
    61  C   -0.008683
    62  C   -0.044212
    63  C    0.014931
    64  C   -0.192746
    65  C   -0.020837
    66  C   -0.010386
    67  H   -0.010634
    68  H    0.016838
    69  H   -0.019558
    70  H    0.056134
    71  H    0.027340
    72  H    0.029589
    73  H    0.064789
    74  H    0.037230
    75  H    0.030280
    76  H    0.049751
    77  H    0.050661
    78  H    0.072632
    79  H    0.036368
    80  H    0.067798
    81  H    0.041194
    82  H    0.058740
    83  H    0.051446
    84  H    0.048949
    85  H    0.033490
    86  H    0.032274
    87  H    0.026034
    88  H    0.046319
    89  H    0.046131
    90  H    0.024928
    91  H    0.016452
    92  H    0.043098
    93  H    0.034131
    94  H    0.043100
    95  H    0.050484
    96  H    0.050460
    97  H    0.049487
    98  H    0.053345
    99  H    0.055496
   100  H    0.039510
   101  H    0.062714
   102  H    0.061651
   103  H    0.069880
   104  H    0.020227
   105  H    0.015498
   106  H    0.034825
   107  H    0.058844
   108  H    0.045579
   109  H    0.009384
   110  H    0.038638
   111  H    0.028071
   112  H    0.020004
   113  H    0.017592
   114  H    0.010443
   115  H    0.033390
   116  H    0.028602
   117  H    0.031143
   118  H    0.013597
   119  H    0.014513
   120  H    0.022909
   121  H    0.012643
   122  H    0.005289
   123  H    0.014800
   124  H    0.026856
   125  H    0.024536
   126  H    0.029803
   127  H    0.028499
   128  H    0.020398
   129  H    0.021662
   130  H    0.021564
   131  H    0.012963
   132  H    0.013551
   133  H    0.023673
   134  H    0.020747
   135  H    0.028524
   136  H    0.031900
   137  H    0.025716
   138  H    0.032607
   139  H    0.027699
   140  H    0.027293
 Sum of Mulliken charges =  -0.00000

 Dipole moment (field-independent basis, Debye):
    X=             -5.7561    Y=              2.8228    Z=              2.7369  Tot=              6.9708
 Quadrupole moment (field-independent basis, Debye-Ang):
   XX=           -384.7150   YY=           -421.6678   ZZ=           -404.6727
   XY=             29.8970   XZ=             19.7805   YZ=              6.7293

 Normal termination of Gaussian 16 at Thu Apr 28 16:53:45 2022.
