 Gaussian 16, Revision A.03,
 Gaussian 16:  ES64L-G16RevA.03 25-Dec-2016

 ------------------------------
 #p blyp/Def2SVP td=(nstates=5)
 ------------------------------

 ---------------------------------------------------
 step_1451_chromophore_23 TDDFT with blyp functional
 ---------------------------------------------------
 Symbolic Z-matrix:
 Charge =  0 Multiplicity = 1

                         Standard orientation:
 ---------------------------------------------------------------------
 Center     Atomic      Atomic             Coordinates (Angstroms)
 Number     Number       Type             X           Y           Z
 ---------------------------------------------------------------------
      1         12           0       -4.516014   -0.129091   -0.189675
      2          6           0       -2.808655    2.796360    0.373616
      3          6           0       -2.577838   -0.687434   -2.948267
      4          6           0       -5.774094   -3.352155   -0.478018
      5          6           0       -5.890002    0.029630    2.930745
      6          7           0       -2.807364    0.940472   -1.018158
      7          6           0       -2.213460    2.058045   -0.661801
      8          6           0       -1.077503    2.489217   -1.606549
      9          6           0       -1.079095    1.389019   -2.685928
     10          6           0       -2.266014    0.499263   -2.254651
     11          6           0       -1.055814    1.813012   -4.138204
     12          6           0        0.290077    2.855805   -0.980744
     13          6           0        0.953917    4.158682   -1.410128
     14          6           0        2.243987    3.994089   -2.275063
     15          8           0        2.404197    3.594451   -3.406499
     16          8           0        3.279353    4.289632   -1.366208
     17          7           0       -4.289794   -1.734876   -1.588747
     18          6           0       -3.546394   -1.684074   -2.718384
     19          6           0       -3.641655   -2.933658   -3.371716
     20          6           0       -4.726292   -3.614077   -2.810734
     21          6           0       -4.957462   -2.905303   -1.578658
     22          6           0       -2.963113   -3.213649   -4.692293
     23          6           0       -5.344705   -4.943097   -3.376068
     24          8           0       -4.849082   -5.564114   -4.279842
     25          6           0       -6.545382   -5.461025   -2.826244
     26          7           0       -5.473926   -1.557186    1.147104
     27          6           0       -6.000145   -2.743538    0.754620
     28          6           0       -6.992199   -3.318049    1.798788
     29          6           0       -6.881894   -2.317573    2.923508
     30          6           0       -5.991026   -1.219636    2.320733
     31          6           0       -8.467307   -3.595253    1.379509
     32          6           0       -6.363591   -2.797026    4.335826
     33          6           0       -7.210089   -2.418114    5.502563
     34          7           0       -4.375398    1.149834    1.357665
     35          6           0       -5.057834    1.157066    2.554058
     36          6           0       -4.897662    2.432607    3.233056
     37          6           0       -4.094058    3.123813    2.335996
     38          6           0       -3.743563    2.282978    1.321499
     39          6           0       -5.527287    2.812529    4.584407
     40          6           0       -3.440010    4.377338    2.106476
     41          8           0       -3.574860    5.442194    2.689045
     42          6           0       -2.438185    4.188138    0.871754
     43          6           0       -2.575897    5.163362   -0.246065
     44          8           0       -3.411017    5.097892   -1.108407
     45          8           0       -1.619760    6.170391   -0.125188
     46          6           0       -1.706857    7.155070   -1.221846
     47          6           0        4.634978    4.022697   -1.855655
     48          6           0        5.401282    3.065547   -0.942587
     49          6           0        5.286610    1.661390   -0.856012
     50          6           0        4.408248    0.751347   -1.835152
     51          6           0        6.243185    1.012554    0.188254
     52          6           0        7.745602    0.821075   -0.274739
     53          6           0        8.797639    1.073524    0.830738
     54          6           0       10.181134    0.505055    0.473871
     55          6           0       11.234232    1.385809   -0.242914
     56          6           0       10.701442   -0.251014    1.716350
     57          6           0       10.246358   -1.747786    1.786547
     58          6           0        9.338097   -2.053044    2.979428
     59          6           0        7.878589   -2.249507    2.565394
     60          6           0        7.016540   -1.279413    3.457770
     61          6           0        7.454504   -3.673710    2.821683
     62          6           0        7.616279   -4.487934    1.532165
     63          6           0        6.301106   -5.176794    0.959556
     64          6           0        6.442483   -5.307685   -0.564441
     65          6           0        6.585462   -3.913906   -1.293977
     66          6           0        5.249862   -6.112323   -1.212669
     67          1           0       -1.994413   -0.771783   -3.866713
     68          1           0       -6.366095   -4.253590   -0.650969
     69          1           0       -6.447031    0.186239    3.856788
     70          1           0       -1.527657    3.392408   -2.017866
     71          1           0       -0.226620    0.715563   -2.593381
     72          1           0       -0.225729    2.451873   -4.439654
     73          1           0       -2.058273    2.168012   -4.378075
     74          1           0       -0.939752    0.941434   -4.782423
     75          1           0        0.937160    2.020145   -1.246668
     76          1           0        0.203489    2.714550    0.096728
     77          1           0        1.087712    4.753426   -0.506218
     78          1           0        0.276770    4.826662   -1.942275
     79          1           0       -3.580668   -3.429017   -5.563972
     80          1           0       -2.231230   -3.995421   -4.489974
     81          1           0       -2.351100   -2.371663   -5.015058
     82          1           0       -7.276401   -4.713102   -2.519067
     83          1           0       -6.312874   -6.120403   -1.989724
     84          1           0       -7.065045   -5.958306   -3.645897
     85          1           0       -6.671696   -4.322208    2.075085
     86          1           0       -7.857316   -1.846259    3.038384
     87          1           0       -8.530141   -4.162281    0.450094
     88          1           0       -9.014935   -2.663310    1.238158
     89          1           0       -8.935133   -4.153297    2.190880
     90          1           0       -5.362756   -2.422512    4.547783
     91          1           0       -6.269159   -3.881349    4.269390
     92          1           0       -7.973137   -1.760181    5.086945
     93          1           0       -6.634857   -1.824891    6.213302
     94          1           0       -7.691329   -3.250027    6.016473
     95          1           0       -5.103455    2.275733    5.433316
     96          1           0       -6.599771    2.658181    4.472197
     97          1           0       -5.375547    3.863108    4.832039
     98          1           0       -1.387247    4.110201    1.150021
     99          1           0       -0.684679    7.510691   -1.348942
    100          1           0       -2.343141    8.039458   -1.181779
    101          1           0       -2.036349    6.669510   -2.140798
    102          1           0        5.090550    5.007586   -1.758968
    103          1           0        4.657588    3.631881   -2.873054
    104          1           0        6.112551    3.486494   -0.232107
    105          1           0        4.201968   -0.184572   -1.315455
    106          1           0        4.943013    0.550366   -2.763301
    107          1           0        3.575716    1.425466   -2.033821
    108          1           0        5.715918    0.100320    0.466970
    109          1           0        6.155416    1.570085    1.120763
    110          1           0        7.961685    1.455091   -1.134147
    111          1           0        7.762073   -0.227361   -0.573275
    112          1           0        8.520165    0.623738    1.783303
    113          1           0        8.961160    2.145571    0.935922
    114          1           0        9.944489   -0.249518   -0.275794
    115          1           0       11.056275    2.461818   -0.226563
    116          1           0       11.422943    1.096425   -1.276863
    117          1           0       12.187868    1.206262    0.252859
    118          1           0       10.452688    0.296684    2.624859
    119          1           0       11.773211   -0.311245    1.528013
    120          1           0       11.162010   -2.338831    1.778725
    121          1           0        9.693746   -1.959573    0.870782
    122          1           0        9.492999   -1.226317    3.672721
    123          1           0        9.643878   -3.009798    3.404062
    124          1           0        7.639423   -1.965991    1.539845
    125          1           0        7.577203   -0.357098    3.607078
    126          1           0        6.784521   -1.579615    4.479989
    127          1           0        6.106964   -1.023274    2.915197
    128          1           0        6.436088   -3.626877    3.207425
    129          1           0        8.040466   -4.297770    3.497445
    130          1           0        8.097734   -5.421079    1.825337
    131          1           0        8.261242   -4.055901    0.767145
    132          1           0        5.355111   -4.797247    1.346928
    133          1           0        6.282912   -6.169559    1.408873
    134          1           0        7.310566   -5.960572   -0.649605
    135          1           0        7.486334   -3.785628   -1.894377
    136          1           0        6.547341   -3.018576   -0.673126
    137          1           0        5.807248   -3.757417   -2.039830
    138          1           0        5.693781   -7.107380   -1.233980
    139          1           0        4.815239   -5.748679   -2.143598
    140          1           0        4.446014   -6.267151   -0.493074
 ---------------------------------------------------------------------

 SCF Done:  E(RB-LYP) =  -3007.35027840     A.U. after   21 cycles

 Excitation energies and oscillator strengths:

 Excited State   1:      Singlet-A      1.8473 eV  671.16 nm  f=0.2968  <S**2>=0.000
     245 -> 248        0.18659
     246 -> 247        0.68338
     246 <- 247       -0.14581
 This state for optimization and/or second-order correction.
 Total Energy, E(TD-HF/TD-DFT) =  -3007.28239112
 Copying the excited state density for this state as the 1-particle RhoCI density.

 Excited State   2:      Singlet-A      1.9660 eV  630.65 nm  f=0.0093  <S**2>=0.000
     244 -> 247        0.68493
     245 -> 247       -0.13598

 Excited State   3:      Singlet-A      2.0289 eV  611.08 nm  f=0.0885  <S**2>=0.000
     243 -> 247       -0.17477
     244 -> 247        0.14228
     245 -> 247        0.62773
     246 -> 248       -0.19734

 Excited State   4:      Singlet-A      2.0976 eV  591.08 nm  f=0.0100  <S**2>=0.000
     243 -> 247        0.68387
     245 -> 247        0.15792

 Excited State   5:      Singlet-A      2.2790 eV  544.03 nm  f=0.0002  <S**2>=0.000
     242 -> 247        0.70701

 The electronic state is 1-A.
 Alpha  occ. eigenvalues --  -46.27485 -18.82702 -18.81719 -18.78694 -18.77566
 Alpha  occ. eigenvalues --  -18.75919 -18.75398 -14.03334 -14.02963 -14.00641
 Alpha  occ. eigenvalues --  -14.00544 -10.05012 -10.04091  -9.99941  -9.99446
 Alpha  occ. eigenvalues --   -9.97514  -9.97401  -9.96470  -9.96401  -9.96301
 Alpha  occ. eigenvalues --   -9.96121  -9.95636  -9.95591  -9.94572  -9.94211
 Alpha  occ. eigenvalues --   -9.93965  -9.93929  -9.93912  -9.93904  -9.93896
 Alpha  occ. eigenvalues --   -9.93831  -9.93776  -9.93667  -9.93436  -9.93187
 Alpha  occ. eigenvalues --   -9.93077  -9.93037  -9.92885  -9.92757  -9.92700
 Alpha  occ. eigenvalues --   -9.92580  -9.92572  -9.92516  -9.92389  -9.92269
 Alpha  occ. eigenvalues --   -9.92255  -9.92077  -9.91799  -9.91755  -9.91723
 Alpha  occ. eigenvalues --   -9.91697  -9.91546  -9.91371  -9.91366  -9.91232
 Alpha  occ. eigenvalues --   -9.91201  -9.91106  -9.90978  -9.90920  -9.90906
 Alpha  occ. eigenvalues --   -9.90896  -9.90873  -9.90762  -9.90705  -9.90665
 Alpha  occ. eigenvalues --   -9.90585  -2.92156  -1.72545  -1.72044  -1.71881
 Alpha  occ. eigenvalues --   -0.98086  -0.97613  -0.92687  -0.91521  -0.90828
 Alpha  occ. eigenvalues --   -0.90787  -0.88081  -0.87038  -0.86416  -0.85774
 Alpha  occ. eigenvalues --   -0.75450  -0.73763  -0.73270  -0.72867  -0.72560
 Alpha  occ. eigenvalues --   -0.71859  -0.71334  -0.71080  -0.70655  -0.70191
 Alpha  occ. eigenvalues --   -0.69453  -0.69225  -0.68107  -0.67699  -0.67251
 Alpha  occ. eigenvalues --   -0.66652  -0.66186  -0.65416  -0.64745  -0.64443
 Alpha  occ. eigenvalues --   -0.63908  -0.62730  -0.62073  -0.61650  -0.60711
 Alpha  occ. eigenvalues --   -0.60680  -0.60189  -0.60056  -0.59648  -0.59121
 Alpha  occ. eigenvalues --   -0.58217  -0.57792  -0.56460  -0.55686  -0.54466
 Alpha  occ. eigenvalues --   -0.54102  -0.53736  -0.52658  -0.52379  -0.51943
 Alpha  occ. eigenvalues --   -0.51063  -0.50932  -0.50804  -0.50354  -0.50066
 Alpha  occ. eigenvalues --   -0.49366  -0.49304  -0.48928  -0.48524  -0.46535
 Alpha  occ. eigenvalues --   -0.46353  -0.45623  -0.45556  -0.45220  -0.45054
 Alpha  occ. eigenvalues --   -0.44437  -0.43783  -0.43256  -0.42939  -0.42440
 Alpha  occ. eigenvalues --   -0.42341  -0.42122  -0.41621  -0.41424  -0.41032
 Alpha  occ. eigenvalues --   -0.40932  -0.40741  -0.40650  -0.40402  -0.40227
 Alpha  occ. eigenvalues --   -0.39932  -0.39763  -0.39657  -0.39491  -0.39314
 Alpha  occ. eigenvalues --   -0.39050  -0.38782  -0.38707  -0.38477  -0.38083
 Alpha  occ. eigenvalues --   -0.37843  -0.37760  -0.37679  -0.37586  -0.37343
 Alpha  occ. eigenvalues --   -0.37189  -0.36939  -0.36637  -0.36566  -0.36344
 Alpha  occ. eigenvalues --   -0.36072  -0.36019  -0.35924  -0.35788  -0.35759
 Alpha  occ. eigenvalues --   -0.35674  -0.35398  -0.35088  -0.34963  -0.34837
 Alpha  occ. eigenvalues --   -0.34245  -0.34228  -0.34019  -0.33902  -0.33747
 Alpha  occ. eigenvalues --   -0.33682  -0.33456  -0.33431  -0.33285  -0.33225
 Alpha  occ. eigenvalues --   -0.32870  -0.32852  -0.32720  -0.32527  -0.32474
 Alpha  occ. eigenvalues --   -0.32310  -0.32030  -0.31837  -0.31725  -0.31551
 Alpha  occ. eigenvalues --   -0.31341  -0.31096  -0.30897  -0.30863  -0.30616
 Alpha  occ. eigenvalues --   -0.30406  -0.30333  -0.30290  -0.30084  -0.30044
 Alpha  occ. eigenvalues --   -0.29943  -0.29630  -0.29509  -0.29193  -0.28882
 Alpha  occ. eigenvalues --   -0.28850  -0.28657  -0.28643  -0.28574  -0.28044
 Alpha  occ. eigenvalues --   -0.27951  -0.27813  -0.27188  -0.26888  -0.26706
 Alpha  occ. eigenvalues --   -0.26200  -0.26185  -0.25805  -0.25678  -0.25423
 Alpha  occ. eigenvalues --   -0.24969  -0.24727  -0.24202  -0.24055  -0.23669
 Alpha  occ. eigenvalues --   -0.23532  -0.23453  -0.22841  -0.21881  -0.21333
 Alpha  occ. eigenvalues --   -0.20411  -0.19838  -0.19030  -0.18595  -0.16985
 Alpha  occ. eigenvalues --   -0.15865
 Alpha virt. eigenvalues --   -0.11464  -0.06460  -0.05664  -0.04528  -0.04402
 Alpha virt. eigenvalues --   -0.03631  -0.03088  -0.03061  -0.01091   0.00152
 Alpha virt. eigenvalues --    0.00726   0.01064   0.01754   0.02565   0.02692

 Mulliken charges:
               1
     1  Mg   0.715742
     2  C   -0.051487
     3  C   -0.042199
     4  C   -0.070127
     5  C   -0.093720
     6  N   -0.216842
     7  C   -0.104544
     8  C    0.048772
     9  C    0.013011
    10  C    0.000067
    11  C    0.125901
    12  C    0.144999
    13  C    0.147458
    14  C    0.098812
    15  O   -0.168278
    16  O   -0.293464
    17  N   -0.238764
    18  C    0.136334
    19  C   -0.157163
    20  C    0.007086
    21  C    0.099092
    22  C    0.191728
    23  C   -0.076586
    24  O   -0.143872
    25  C    0.154114
    26  N   -0.178296
    27  C    0.010896
    28  C    0.031878
    29  C    0.026923
    30  C    0.028609
    31  C    0.102713
    32  C    0.109649
    33  C    0.075513
    34  N   -0.233725
    35  C    0.080126
    36  C   -0.181524
    37  C    0.128125
    38  C    0.058776
    39  C    0.164967
    40  C   -0.050224
    41  O   -0.121596
    42  C    0.075506
    43  C    0.096920
    44  O   -0.160097
    45  O   -0.276833
    46  C    0.205200
    47  C    0.324790
    48  C   -0.093758
    49  C   -0.209201
    50  C    0.116256
    51  C    0.105258
    52  C    0.084114
    53  C    0.118627
    54  C   -0.109517
    55  C    0.126170
    56  C    0.107702
    57  C    0.041540
    58  C    0.160420
    59  C   -0.104715
    60  C    0.081061
    61  C    0.163369
    62  C    0.024650
    63  C    0.075093
    64  C   -0.077769
    65  C    0.089674
    66  C    0.113174
    67  H   -0.065678
    68  H   -0.094991
    69  H   -0.071255
    70  H   -0.008506
    71  H   -0.019259
    72  H    0.005970
    73  H   -0.009468
    74  H   -0.020380
    75  H   -0.030950
    76  H   -0.018585
    77  H   -0.007087
    78  H   -0.010746
    79  H    0.010549
    80  H   -0.002313
    81  H   -0.045526
    82  H   -0.007262
    83  H    0.029817
    84  H   -0.004177
    85  H   -0.030014
    86  H   -0.025795
    87  H   -0.006637
    88  H   -0.009206
    89  H   -0.003994
    90  H   -0.015946
    91  H   -0.031448
    92  H   -0.019033
    93  H   -0.007643
    94  H   -0.003312
    95  H    0.006255
    96  H    0.006595
    97  H   -0.001151
    98  H    0.001443
    99  H    0.008896
   100  H    0.021828
   101  H    0.012888
   102  H   -0.021034
   103  H    0.010754
   104  H   -0.033982
   105  H    0.001514
   106  H    0.017723
   107  H    0.019865
   108  H   -0.031435
   109  H   -0.019852
   110  H   -0.019261
   111  H   -0.020691
   112  H   -0.030034
   113  H   -0.033003
   114  H   -0.045230
   115  H   -0.019613
   116  H   -0.016394
   117  H   -0.029940
   118  H   -0.021570
   119  H   -0.051738
   120  H   -0.034504
   121  H   -0.022030
   122  H   -0.034600
   123  H   -0.042641
   124  H   -0.013637
   125  H   -0.019940
   126  H   -0.018153
   127  H   -0.017090
   128  H   -0.039239
   129  H   -0.030794
   130  H   -0.046604
   131  H   -0.011572
   132  H   -0.034788
   133  H   -0.045892
   134  H   -0.027109
   135  H   -0.017221
   136  H   -0.011774
   137  H   -0.027758
   138  H   -0.024878
   139  H    0.000652
   140  H   -0.026895
 Sum of Mulliken charges =  -0.00000

 Dipole moment (field-independent basis, Debye):
    X=              0.4748    Y=             -2.0537    Z=              2.1917  Tot=              3.0408
 Quadrupole moment (field-independent basis, Debye-Ang):
   XX=           -364.5157   YY=           -425.7388   ZZ=           -415.9256
   XY=             15.2700   XZ=            -15.2489   YZ=            -32.2074

 Normal termination of Gaussian 16 at Wed May  4 07:45:45 2022.
