 Gaussian 16, Revision A.03,
 Gaussian 16:  ES64L-G16RevA.03 25-Dec-2016

 -----------------------------------
 #p cam-b3lyp/Def2SVP td=(nstates=5)
 -----------------------------------

 --------------------------------------------------------
 step_1451_chromophore_23 TDDFT with cam-b3lyp functional
 --------------------------------------------------------
 Symbolic Z-matrix:
 Charge =  0 Multiplicity = 1

                         Standard orientation:
 ---------------------------------------------------------------------
 Center     Atomic      Atomic             Coordinates (Angstroms)
 Number     Number       Type             X           Y           Z
 ---------------------------------------------------------------------
      1         12           0       -4.516014   -0.129091   -0.189675
      2          6           0       -2.808655    2.796360    0.373616
      3          6           0       -2.577838   -0.687434   -2.948267
      4          6           0       -5.774094   -3.352155   -0.478018
      5          6           0       -5.890002    0.029630    2.930745
      6          7           0       -2.807364    0.940472   -1.018158
      7          6           0       -2.213460    2.058045   -0.661801
      8          6           0       -1.077503    2.489217   -1.606549
      9          6           0       -1.079095    1.389019   -2.685928
     10          6           0       -2.266014    0.499263   -2.254651
     11          6           0       -1.055814    1.813012   -4.138204
     12          6           0        0.290077    2.855805   -0.980744
     13          6           0        0.953917    4.158682   -1.410128
     14          6           0        2.243987    3.994089   -2.275063
     15          8           0        2.404197    3.594451   -3.406499
     16          8           0        3.279353    4.289632   -1.366208
     17          7           0       -4.289794   -1.734876   -1.588747
     18          6           0       -3.546394   -1.684074   -2.718384
     19          6           0       -3.641655   -2.933658   -3.371716
     20          6           0       -4.726292   -3.614077   -2.810734
     21          6           0       -4.957462   -2.905303   -1.578658
     22          6           0       -2.963113   -3.213649   -4.692293
     23          6           0       -5.344705   -4.943097   -3.376068
     24          8           0       -4.849082   -5.564114   -4.279842
     25          6           0       -6.545382   -5.461025   -2.826244
     26          7           0       -5.473926   -1.557186    1.147104
     27          6           0       -6.000145   -2.743538    0.754620
     28          6           0       -6.992199   -3.318049    1.798788
     29          6           0       -6.881894   -2.317573    2.923508
     30          6           0       -5.991026   -1.219636    2.320733
     31          6           0       -8.467307   -3.595253    1.379509
     32          6           0       -6.363591   -2.797026    4.335826
     33          6           0       -7.210089   -2.418114    5.502563
     34          7           0       -4.375398    1.149834    1.357665
     35          6           0       -5.057834    1.157066    2.554058
     36          6           0       -4.897662    2.432607    3.233056
     37          6           0       -4.094058    3.123813    2.335996
     38          6           0       -3.743563    2.282978    1.321499
     39          6           0       -5.527287    2.812529    4.584407
     40          6           0       -3.440010    4.377338    2.106476
     41          8           0       -3.574860    5.442194    2.689045
     42          6           0       -2.438185    4.188138    0.871754
     43          6           0       -2.575897    5.163362   -0.246065
     44          8           0       -3.411017    5.097892   -1.108407
     45          8           0       -1.619760    6.170391   -0.125188
     46          6           0       -1.706857    7.155070   -1.221846
     47          6           0        4.634978    4.022697   -1.855655
     48          6           0        5.401282    3.065547   -0.942587
     49          6           0        5.286610    1.661390   -0.856012
     50          6           0        4.408248    0.751347   -1.835152
     51          6           0        6.243185    1.012554    0.188254
     52          6           0        7.745602    0.821075   -0.274739
     53          6           0        8.797639    1.073524    0.830738
     54          6           0       10.181134    0.505055    0.473871
     55          6           0       11.234232    1.385809   -0.242914
     56          6           0       10.701442   -0.251014    1.716350
     57          6           0       10.246358   -1.747786    1.786547
     58          6           0        9.338097   -2.053044    2.979428
     59          6           0        7.878589   -2.249507    2.565394
     60          6           0        7.016540   -1.279413    3.457770
     61          6           0        7.454504   -3.673710    2.821683
     62          6           0        7.616279   -4.487934    1.532165
     63          6           0        6.301106   -5.176794    0.959556
     64          6           0        6.442483   -5.307685   -0.564441
     65          6           0        6.585462   -3.913906   -1.293977
     66          6           0        5.249862   -6.112323   -1.212669
     67          1           0       -1.994413   -0.771783   -3.866713
     68          1           0       -6.366095   -4.253590   -0.650969
     69          1           0       -6.447031    0.186239    3.856788
     70          1           0       -1.527657    3.392408   -2.017866
     71          1           0       -0.226620    0.715563   -2.593381
     72          1           0       -0.225729    2.451873   -4.439654
     73          1           0       -2.058273    2.168012   -4.378075
     74          1           0       -0.939752    0.941434   -4.782423
     75          1           0        0.937160    2.020145   -1.246668
     76          1           0        0.203489    2.714550    0.096728
     77          1           0        1.087712    4.753426   -0.506218
     78          1           0        0.276770    4.826662   -1.942275
     79          1           0       -3.580668   -3.429017   -5.563972
     80          1           0       -2.231230   -3.995421   -4.489974
     81          1           0       -2.351100   -2.371663   -5.015058
     82          1           0       -7.276401   -4.713102   -2.519067
     83          1           0       -6.312874   -6.120403   -1.989724
     84          1           0       -7.065045   -5.958306   -3.645897
     85          1           0       -6.671696   -4.322208    2.075085
     86          1           0       -7.857316   -1.846259    3.038384
     87          1           0       -8.530141   -4.162281    0.450094
     88          1           0       -9.014935   -2.663310    1.238158
     89          1           0       -8.935133   -4.153297    2.190880
     90          1           0       -5.362756   -2.422512    4.547783
     91          1           0       -6.269159   -3.881349    4.269390
     92          1           0       -7.973137   -1.760181    5.086945
     93          1           0       -6.634857   -1.824891    6.213302
     94          1           0       -7.691329   -3.250027    6.016473
     95          1           0       -5.103455    2.275733    5.433316
     96          1           0       -6.599771    2.658181    4.472197
     97          1           0       -5.375547    3.863108    4.832039
     98          1           0       -1.387247    4.110201    1.150021
     99          1           0       -0.684679    7.510691   -1.348942
    100          1           0       -2.343141    8.039458   -1.181779
    101          1           0       -2.036349    6.669510   -2.140798
    102          1           0        5.090550    5.007586   -1.758968
    103          1           0        4.657588    3.631881   -2.873054
    104          1           0        6.112551    3.486494   -0.232107
    105          1           0        4.201968   -0.184572   -1.315455
    106          1           0        4.943013    0.550366   -2.763301
    107          1           0        3.575716    1.425466   -2.033821
    108          1           0        5.715918    0.100320    0.466970
    109          1           0        6.155416    1.570085    1.120763
    110          1           0        7.961685    1.455091   -1.134147
    111          1           0        7.762073   -0.227361   -0.573275
    112          1           0        8.520165    0.623738    1.783303
    113          1           0        8.961160    2.145571    0.935922
    114          1           0        9.944489   -0.249518   -0.275794
    115          1           0       11.056275    2.461818   -0.226563
    116          1           0       11.422943    1.096425   -1.276863
    117          1           0       12.187868    1.206262    0.252859
    118          1           0       10.452688    0.296684    2.624859
    119          1           0       11.773211   -0.311245    1.528013
    120          1           0       11.162010   -2.338831    1.778725
    121          1           0        9.693746   -1.959573    0.870782
    122          1           0        9.492999   -1.226317    3.672721
    123          1           0        9.643878   -3.009798    3.404062
    124          1           0        7.639423   -1.965991    1.539845
    125          1           0        7.577203   -0.357098    3.607078
    126          1           0        6.784521   -1.579615    4.479989
    127          1           0        6.106964   -1.023274    2.915197
    128          1           0        6.436088   -3.626877    3.207425
    129          1           0        8.040466   -4.297770    3.497445
    130          1           0        8.097734   -5.421079    1.825337
    131          1           0        8.261242   -4.055901    0.767145
    132          1           0        5.355111   -4.797247    1.346928
    133          1           0        6.282912   -6.169559    1.408873
    134          1           0        7.310566   -5.960572   -0.649605
    135          1           0        7.486334   -3.785628   -1.894377
    136          1           0        6.547341   -3.018576   -0.673126
    137          1           0        5.807248   -3.757417   -2.039830
    138          1           0        5.693781   -7.107380   -1.233980
    139          1           0        4.815239   -5.748679   -2.143598
    140          1           0        4.446014   -6.267151   -0.493074
 ---------------------------------------------------------------------

 SCF Done:  E(RCAM-B3LYP) =  -3007.15048760     A.U. after   17 cycles

 Excitation energies and oscillator strengths:

 Excited State   1:      Singlet-A      1.7382 eV  713.28 nm  f=0.3755  <S**2>=0.000
     245 -> 248        0.18126
     246 -> 247        0.68515
     245 <- 248        0.10716
 This state for optimization and/or second-order correction.
 Total Energy, E(TD-HF/TD-DFT) =  -3007.08660864
 Copying the excited state density for this state as the 1-particle RhoCI density.

 Excited State   2:      Singlet-A      2.2125 eV  560.39 nm  f=0.1571  <S**2>=0.000
     245 -> 247        0.65657
     246 -> 248       -0.25207

 Excited State   3:      Singlet-A      3.3809 eV  366.72 nm  f=0.0060  <S**2>=0.000
     242 -> 247       -0.11152
     243 -> 247        0.68099

 Excited State   4:      Singlet-A      3.5148 eV  352.75 nm  f=0.0052  <S**2>=0.000
     239 -> 247       -0.32907
     239 -> 249       -0.18673
     239 -> 250        0.10432
     239 -> 251        0.12074
     241 -> 247        0.35595
     241 -> 249        0.15307
     242 -> 247       -0.34749
     246 -> 248       -0.13345

 Excited State   5:      Singlet-A      3.6241 eV  342.11 nm  f=0.3297  <S**2>=0.000
     239 -> 247       -0.25287
     241 -> 247        0.11708
     242 -> 247        0.26851
     245 -> 247        0.17692
     246 -> 248        0.51951
     246 -> 250       -0.11987

 The electronic state is 1-A.
 Alpha  occ. eigenvalues --  -46.89068 -19.25822 -19.24533 -19.21762 -19.20906
 Alpha  occ. eigenvalues --  -19.19254 -19.18502 -14.42372 -14.41691 -14.39056
 Alpha  occ. eigenvalues --  -14.38957 -10.40500 -10.39752 -10.35444 -10.34463
 Alpha  occ. eigenvalues --  -10.31667 -10.31482 -10.30939 -10.30926 -10.30736
 Alpha  occ. eigenvalues --  -10.30531 -10.30023 -10.29951 -10.28647 -10.28502
 Alpha  occ. eigenvalues --  -10.28454 -10.28438 -10.28251 -10.28031 -10.27921
 Alpha  occ. eigenvalues --  -10.27811 -10.27760 -10.27618 -10.27613 -10.27349
 Alpha  occ. eigenvalues --  -10.26997 -10.26812 -10.26763 -10.26735 -10.26710
 Alpha  occ. eigenvalues --  -10.26591 -10.26540 -10.26440 -10.26263 -10.26024
 Alpha  occ. eigenvalues --  -10.26020 -10.25944 -10.25940 -10.25497 -10.25409
 Alpha  occ. eigenvalues --  -10.25401 -10.25346 -10.25070 -10.25047 -10.25007
 Alpha  occ. eigenvalues --  -10.24918 -10.24912 -10.24712 -10.24584 -10.24569
 Alpha  occ. eigenvalues --  -10.24532 -10.24520 -10.24346 -10.24296 -10.24276
 Alpha  occ. eigenvalues --  -10.24197  -3.17638  -1.92503  -1.92089  -1.91955
 Alpha  occ. eigenvalues --   -1.16867  -1.16126  -1.11061  -1.10071  -1.08943
 Alpha  occ. eigenvalues --   -1.08641  -1.05891  -1.04713  -1.04076  -1.03397
 Alpha  occ. eigenvalues --   -0.92711  -0.90606  -0.90122  -0.89546  -0.89288
 Alpha  occ. eigenvalues --   -0.88579  -0.87986  -0.87719  -0.87211  -0.86783
 Alpha  occ. eigenvalues --   -0.85985  -0.85666  -0.84329  -0.83955  -0.83488
 Alpha  occ. eigenvalues --   -0.82835  -0.82205  -0.81406  -0.80552  -0.80280
 Alpha  occ. eigenvalues --   -0.79673  -0.78415  -0.77602  -0.77216  -0.76162
 Alpha  occ. eigenvalues --   -0.76083  -0.75517  -0.75382  -0.74938  -0.74349
 Alpha  occ. eigenvalues --   -0.73315  -0.72820  -0.71347  -0.70503  -0.69075
 Alpha  occ. eigenvalues --   -0.68718  -0.68261  -0.67048  -0.66820  -0.66030
 Alpha  occ. eigenvalues --   -0.65244  -0.65020  -0.64969  -0.64441  -0.64088
 Alpha  occ. eigenvalues --   -0.63282  -0.63147  -0.62823  -0.62342  -0.60281
 Alpha  occ. eigenvalues --   -0.60085  -0.59203  -0.59161  -0.58858  -0.58594
 Alpha  occ. eigenvalues --   -0.57985  -0.57146  -0.56497  -0.56136  -0.55811
 Alpha  occ. eigenvalues --   -0.55515  -0.54948  -0.54831  -0.54469  -0.54223
 Alpha  occ. eigenvalues --   -0.53998  -0.53646  -0.53391  -0.53037  -0.52960
 Alpha  occ. eigenvalues --   -0.52702  -0.52468  -0.52199  -0.52143  -0.52004
 Alpha  occ. eigenvalues --   -0.51869  -0.51155  -0.51075  -0.50948  -0.50421
 Alpha  occ. eigenvalues --   -0.50334  -0.50092  -0.50020  -0.49867  -0.49806
 Alpha  occ. eigenvalues --   -0.49502  -0.49359  -0.49151  -0.49017  -0.48679
 Alpha  occ. eigenvalues --   -0.48562  -0.48299  -0.48108  -0.47908  -0.47834
 Alpha  occ. eigenvalues --   -0.47758  -0.47427  -0.47144  -0.46989  -0.46632
 Alpha  occ. eigenvalues --   -0.46271  -0.46185  -0.45921  -0.45845  -0.45577
 Alpha  occ. eigenvalues --   -0.45403  -0.45279  -0.45179  -0.45119  -0.44838
 Alpha  occ. eigenvalues --   -0.44736  -0.44543  -0.44317  -0.44168  -0.44021
 Alpha  occ. eigenvalues --   -0.43960  -0.43680  -0.43417  -0.43270  -0.43184
 Alpha  occ. eigenvalues --   -0.42950  -0.42899  -0.42682  -0.42399  -0.42030
 Alpha  occ. eigenvalues --   -0.41937  -0.41834  -0.41744  -0.41390  -0.41269
 Alpha  occ. eigenvalues --   -0.41243  -0.40758  -0.40654  -0.40379  -0.40096
 Alpha  occ. eigenvalues --   -0.39772  -0.39713  -0.39631  -0.39573  -0.39056
 Alpha  occ. eigenvalues --   -0.38916  -0.38633  -0.37999  -0.37973  -0.37693
 Alpha  occ. eigenvalues --   -0.37555  -0.37137  -0.36950  -0.36365  -0.36111
 Alpha  occ. eigenvalues --   -0.35916  -0.35545  -0.35423  -0.35377  -0.34714
 Alpha  occ. eigenvalues --   -0.34668  -0.33907  -0.33022  -0.31331  -0.31228
 Alpha  occ. eigenvalues --   -0.31003  -0.30666  -0.29459  -0.29322  -0.23641
 Alpha  occ. eigenvalues --   -0.21274
 Alpha virt. eigenvalues --   -0.08656  -0.01163   0.00800   0.01520   0.02572
 Alpha virt. eigenvalues --    0.03017   0.04415   0.04672   0.06144   0.06633
 Alpha virt. eigenvalues --    0.07232   0.07566   0.08626   0.08848   0.09147

 Mulliken charges:
               1
     1  Mg   0.847975
     2  C   -0.063474
     3  C   -0.051793
     4  C   -0.086006
     5  C   -0.102443
     6  N   -0.285618
     7  C   -0.049520
     8  C   -0.008774
     9  C   -0.041348
    10  C    0.016807
    11  C    0.069234
    12  C    0.086929
    13  C    0.080206
    14  C    0.177958
    15  O   -0.210418
    16  O   -0.357467
    17  N   -0.325058
    18  C    0.141615
    19  C   -0.156924
    20  C   -0.060403
    21  C    0.125561
    22  C    0.128187
    23  C    0.009314
    24  O   -0.182680
    25  C    0.056573
    26  N   -0.253276
    27  C    0.030960
    28  C   -0.022350
    29  C   -0.035091
    30  C    0.052951
    31  C    0.052007
    32  C    0.053544
    33  C    0.011929
    34  N   -0.326663
    35  C    0.085439
    36  C   -0.174528
    37  C    0.045337
    38  C    0.086538
    39  C    0.116357
    40  C    0.051247
    41  O   -0.159822
    42  C   -0.006500
    43  C    0.185630
    44  O   -0.195213
    45  O   -0.339060
    46  C    0.165235
    47  C    0.288815
    48  C   -0.120635
    49  C   -0.222158
    50  C    0.069062
    51  C    0.049330
    52  C    0.032239
    53  C    0.072921
    54  C   -0.163277
    55  C    0.067309
    56  C    0.048065
    57  C   -0.003800
    58  C    0.101140
    59  C   -0.159596
    60  C    0.027703
    61  C    0.107279
    62  C   -0.030591
    63  C    0.030049
    64  C   -0.138895
    65  C    0.032224
    66  C    0.053597
    67  H   -0.032869
    68  H   -0.059838
    69  H   -0.036891
    70  H    0.023439
    71  H    0.015151
    72  H    0.032626
    73  H    0.015303
    74  H    0.003892
    75  H    0.000999
    76  H    0.014409
    77  H    0.030573
    78  H    0.017572
    79  H    0.037550
    80  H    0.024957
    81  H   -0.018689
    82  H    0.022338
    83  H    0.057148
    84  H    0.031010
    85  H    0.005424
    86  H    0.009241
    87  H    0.015220
    88  H    0.014156
    89  H    0.020135
    90  H    0.015506
    91  H   -0.001842
    92  H    0.002592
    93  H    0.016183
    94  H    0.021169
    95  H    0.032202
    96  H    0.030246
    97  H    0.027881
    98  H    0.042646
    99  H    0.031526
   100  H    0.045010
   101  H    0.037565
   102  H    0.009942
   103  H    0.042514
   104  H   -0.002438
   105  H    0.023811
   106  H    0.040740
   107  H    0.033953
   108  H   -0.006626
   109  H    0.010150
   110  H    0.009225
   111  H    0.002148
   112  H   -0.008800
   113  H   -0.006010
   114  H   -0.011445
   115  H    0.004401
   116  H    0.008141
   117  H   -0.004940
   118  H    0.004857
   119  H   -0.019817
   120  H   -0.003721
   121  H   -0.000469
   122  H   -0.005190
   123  H   -0.011334
   124  H    0.009738
   125  H    0.000930
   126  H    0.007853
   127  H    0.005595
   128  H   -0.008583
   129  H   -0.000657
   130  H   -0.015456
   131  H    0.013452
   132  H   -0.007574
   133  H   -0.016477
   134  H    0.003442
   135  H    0.006830
   136  H    0.005938
   137  H   -0.002980
   138  H   -0.000731
   139  H    0.024242
   140  H   -0.002079
 Sum of Mulliken charges =  -0.00000

 Dipole moment (field-independent basis, Debye):
    X=              0.2834    Y=             -1.9319    Z=              2.1770  Tot=              2.9244
 Quadrupole moment (field-independent basis, Debye-Ang):
   XX=           -362.2918   YY=           -423.3567   ZZ=           -414.7211
   XY=             16.8864   XZ=            -16.0075   YZ=            -33.2244

 Normal termination of Gaussian 16 at Wed May  4 06:48:06 2022.
