 Gaussian 16, Revision A.03,
 Gaussian 16:  ES64L-G16RevA.03 25-Dec-2016

 ---------------------------------
 #p PBE1PBE/Def2SVP td=(nstates=5)
 ---------------------------------

 ------------------------------------------------------
 step_1451_chromophore_23 TDDFT with PBE1PBE functional
 ------------------------------------------------------
 Symbolic Z-matrix:
 Charge =  0 Multiplicity = 1

                         Standard orientation:
 ---------------------------------------------------------------------
 Center     Atomic      Atomic             Coordinates (Angstroms)
 Number     Number       Type             X           Y           Z
 ---------------------------------------------------------------------
      1         12           0       -4.516014   -0.129091   -0.189675
      2          6           0       -2.808655    2.796360    0.373616
      3          6           0       -2.577838   -0.687434   -2.948267
      4          6           0       -5.774094   -3.352155   -0.478018
      5          6           0       -5.890002    0.029630    2.930745
      6          7           0       -2.807364    0.940472   -1.018158
      7          6           0       -2.213460    2.058045   -0.661801
      8          6           0       -1.077503    2.489217   -1.606549
      9          6           0       -1.079095    1.389019   -2.685928
     10          6           0       -2.266014    0.499263   -2.254651
     11          6           0       -1.055814    1.813012   -4.138204
     12          6           0        0.290077    2.855805   -0.980744
     13          6           0        0.953917    4.158682   -1.410128
     14          6           0        2.243987    3.994089   -2.275063
     15          8           0        2.404197    3.594451   -3.406499
     16          8           0        3.279353    4.289632   -1.366208
     17          7           0       -4.289794   -1.734876   -1.588747
     18          6           0       -3.546394   -1.684074   -2.718384
     19          6           0       -3.641655   -2.933658   -3.371716
     20          6           0       -4.726292   -3.614077   -2.810734
     21          6           0       -4.957462   -2.905303   -1.578658
     22          6           0       -2.963113   -3.213649   -4.692293
     23          6           0       -5.344705   -4.943097   -3.376068
     24          8           0       -4.849082   -5.564114   -4.279842
     25          6           0       -6.545382   -5.461025   -2.826244
     26          7           0       -5.473926   -1.557186    1.147104
     27          6           0       -6.000145   -2.743538    0.754620
     28          6           0       -6.992199   -3.318049    1.798788
     29          6           0       -6.881894   -2.317573    2.923508
     30          6           0       -5.991026   -1.219636    2.320733
     31          6           0       -8.467307   -3.595253    1.379509
     32          6           0       -6.363591   -2.797026    4.335826
     33          6           0       -7.210089   -2.418114    5.502563
     34          7           0       -4.375398    1.149834    1.357665
     35          6           0       -5.057834    1.157066    2.554058
     36          6           0       -4.897662    2.432607    3.233056
     37          6           0       -4.094058    3.123813    2.335996
     38          6           0       -3.743563    2.282978    1.321499
     39          6           0       -5.527287    2.812529    4.584407
     40          6           0       -3.440010    4.377338    2.106476
     41          8           0       -3.574860    5.442194    2.689045
     42          6           0       -2.438185    4.188138    0.871754
     43          6           0       -2.575897    5.163362   -0.246065
     44          8           0       -3.411017    5.097892   -1.108407
     45          8           0       -1.619760    6.170391   -0.125188
     46          6           0       -1.706857    7.155070   -1.221846
     47          6           0        4.634978    4.022697   -1.855655
     48          6           0        5.401282    3.065547   -0.942587
     49          6           0        5.286610    1.661390   -0.856012
     50          6           0        4.408248    0.751347   -1.835152
     51          6           0        6.243185    1.012554    0.188254
     52          6           0        7.745602    0.821075   -0.274739
     53          6           0        8.797639    1.073524    0.830738
     54          6           0       10.181134    0.505055    0.473871
     55          6           0       11.234232    1.385809   -0.242914
     56          6           0       10.701442   -0.251014    1.716350
     57          6           0       10.246358   -1.747786    1.786547
     58          6           0        9.338097   -2.053044    2.979428
     59          6           0        7.878589   -2.249507    2.565394
     60          6           0        7.016540   -1.279413    3.457770
     61          6           0        7.454504   -3.673710    2.821683
     62          6           0        7.616279   -4.487934    1.532165
     63          6           0        6.301106   -5.176794    0.959556
     64          6           0        6.442483   -5.307685   -0.564441
     65          6           0        6.585462   -3.913906   -1.293977
     66          6           0        5.249862   -6.112323   -1.212669
     67          1           0       -1.994413   -0.771783   -3.866713
     68          1           0       -6.366095   -4.253590   -0.650969
     69          1           0       -6.447031    0.186239    3.856788
     70          1           0       -1.527657    3.392408   -2.017866
     71          1           0       -0.226620    0.715563   -2.593381
     72          1           0       -0.225729    2.451873   -4.439654
     73          1           0       -2.058273    2.168012   -4.378075
     74          1           0       -0.939752    0.941434   -4.782423
     75          1           0        0.937160    2.020145   -1.246668
     76          1           0        0.203489    2.714550    0.096728
     77          1           0        1.087712    4.753426   -0.506218
     78          1           0        0.276770    4.826662   -1.942275
     79          1           0       -3.580668   -3.429017   -5.563972
     80          1           0       -2.231230   -3.995421   -4.489974
     81          1           0       -2.351100   -2.371663   -5.015058
     82          1           0       -7.276401   -4.713102   -2.519067
     83          1           0       -6.312874   -6.120403   -1.989724
     84          1           0       -7.065045   -5.958306   -3.645897
     85          1           0       -6.671696   -4.322208    2.075085
     86          1           0       -7.857316   -1.846259    3.038384
     87          1           0       -8.530141   -4.162281    0.450094
     88          1           0       -9.014935   -2.663310    1.238158
     89          1           0       -8.935133   -4.153297    2.190880
     90          1           0       -5.362756   -2.422512    4.547783
     91          1           0       -6.269159   -3.881349    4.269390
     92          1           0       -7.973137   -1.760181    5.086945
     93          1           0       -6.634857   -1.824891    6.213302
     94          1           0       -7.691329   -3.250027    6.016473
     95          1           0       -5.103455    2.275733    5.433316
     96          1           0       -6.599771    2.658181    4.472197
     97          1           0       -5.375547    3.863108    4.832039
     98          1           0       -1.387247    4.110201    1.150021
     99          1           0       -0.684679    7.510691   -1.348942
    100          1           0       -2.343141    8.039458   -1.181779
    101          1           0       -2.036349    6.669510   -2.140798
    102          1           0        5.090550    5.007586   -1.758968
    103          1           0        4.657588    3.631881   -2.873054
    104          1           0        6.112551    3.486494   -0.232107
    105          1           0        4.201968   -0.184572   -1.315455
    106          1           0        4.943013    0.550366   -2.763301
    107          1           0        3.575716    1.425466   -2.033821
    108          1           0        5.715918    0.100320    0.466970
    109          1           0        6.155416    1.570085    1.120763
    110          1           0        7.961685    1.455091   -1.134147
    111          1           0        7.762073   -0.227361   -0.573275
    112          1           0        8.520165    0.623738    1.783303
    113          1           0        8.961160    2.145571    0.935922
    114          1           0        9.944489   -0.249518   -0.275794
    115          1           0       11.056275    2.461818   -0.226563
    116          1           0       11.422943    1.096425   -1.276863
    117          1           0       12.187868    1.206262    0.252859
    118          1           0       10.452688    0.296684    2.624859
    119          1           0       11.773211   -0.311245    1.528013
    120          1           0       11.162010   -2.338831    1.778725
    121          1           0        9.693746   -1.959573    0.870782
    122          1           0        9.492999   -1.226317    3.672721
    123          1           0        9.643878   -3.009798    3.404062
    124          1           0        7.639423   -1.965991    1.539845
    125          1           0        7.577203   -0.357098    3.607078
    126          1           0        6.784521   -1.579615    4.479989
    127          1           0        6.106964   -1.023274    2.915197
    128          1           0        6.436088   -3.626877    3.207425
    129          1           0        8.040466   -4.297770    3.497445
    130          1           0        8.097734   -5.421079    1.825337
    131          1           0        8.261242   -4.055901    0.767145
    132          1           0        5.355111   -4.797247    1.346928
    133          1           0        6.282912   -6.169559    1.408873
    134          1           0        7.310566   -5.960572   -0.649605
    135          1           0        7.486334   -3.785628   -1.894377
    136          1           0        6.547341   -3.018576   -0.673126
    137          1           0        5.807248   -3.757417   -2.039830
    138          1           0        5.693781   -7.107380   -1.233980
    139          1           0        4.815239   -5.748679   -2.143598
    140          1           0        4.446014   -6.267151   -0.493074
 ---------------------------------------------------------------------

 SCF Done:  E(RPBE1PBE) =  -3005.34049187     A.U. after   15 cycles

 Excitation energies and oscillator strengths:

 Excited State   1:      Singlet-A      1.8965 eV  653.76 nm  f=0.3629  <S**2>=0.000
     245 -> 248        0.17540
     246 -> 247        0.69191
     246 <- 247       -0.10592
 This state for optimization and/or second-order correction.
 Total Energy, E(TD-HF/TD-DFT) =  -3005.27079748
 Copying the excited state density for this state as the 1-particle RhoCI density.

 Excited State   2:      Singlet-A      2.2287 eV  556.31 nm  f=0.1437  <S**2>=0.000
     245 -> 247        0.66441
     246 -> 248       -0.23094

 Excited State   3:      Singlet-A      2.9809 eV  415.92 nm  f=0.0057  <S**2>=0.000
     243 -> 247        0.69748

 Excited State   4:      Singlet-A      3.0683 eV  404.09 nm  f=0.0009  <S**2>=0.000
     241 -> 247       -0.15423
     242 -> 247        0.65173
     242 -> 249       -0.15037

 Excited State   5:      Singlet-A      3.2778 eV  378.26 nm  f=0.0044  <S**2>=0.000
     241 -> 247        0.65259
     242 -> 247        0.16210

 The electronic state is 1-A.
 Alpha  occ. eigenvalues --  -46.92471 -19.26389 -19.25273 -19.22001 -19.21017
 Alpha  occ. eigenvalues --  -19.19386 -19.18760 -14.41803 -14.41237 -14.38698
 Alpha  occ. eigenvalues --  -14.38570 -10.37517 -10.36651 -10.32490 -10.31629
 Alpha  occ. eigenvalues --  -10.28859 -10.28844 -10.28748 -10.28603 -10.28462
 Alpha  occ. eigenvalues --  -10.28214 -10.27707 -10.27644 -10.26404 -10.26249
 Alpha  occ. eigenvalues --  -10.26090 -10.25975 -10.25854 -10.25787 -10.25624
 Alpha  occ. eigenvalues --  -10.25403 -10.25368 -10.25339 -10.25325 -10.25188
 Alpha  occ. eigenvalues --  -10.24588 -10.24453 -10.24289 -10.24268 -10.24260
 Alpha  occ. eigenvalues --  -10.24191 -10.24124 -10.24103 -10.23881 -10.23730
 Alpha  occ. eigenvalues --  -10.23636 -10.23598 -10.23501 -10.23108 -10.22967
 Alpha  occ. eigenvalues --  -10.22775 -10.22762 -10.22758 -10.22672 -10.22562
 Alpha  occ. eigenvalues --  -10.22471 -10.22388 -10.22162 -10.22135 -10.22118
 Alpha  occ. eigenvalues --  -10.22093 -10.21973 -10.21858 -10.21767 -10.21752
 Alpha  occ. eigenvalues --  -10.21708  -3.14618  -1.87422  -1.86988  -1.86857
 Alpha  occ. eigenvalues --   -1.11517  -1.10899  -1.05864  -1.04728  -1.03686
 Alpha  occ. eigenvalues --   -1.03518  -1.00561  -0.99381  -0.98746  -0.98053
 Alpha  occ. eigenvalues --   -0.86995  -0.84693  -0.84320  -0.83835  -0.83402
 Alpha  occ. eigenvalues --   -0.82902  -0.82172  -0.81961  -0.81333  -0.81098
 Alpha  occ. eigenvalues --   -0.80356  -0.79909  -0.78579  -0.78164  -0.77667
 Alpha  occ. eigenvalues --   -0.77098  -0.76407  -0.75661  -0.74837  -0.74516
 Alpha  occ. eigenvalues --   -0.73831  -0.72654  -0.71919  -0.71530  -0.70446
 Alpha  occ. eigenvalues --   -0.70234  -0.69741  -0.69586  -0.69064  -0.68540
 Alpha  occ. eigenvalues --   -0.67728  -0.67153  -0.65785  -0.64785  -0.63500
 Alpha  occ. eigenvalues --   -0.63100  -0.62516  -0.61286  -0.61247  -0.60434
 Alpha  occ. eigenvalues --   -0.59703  -0.59560  -0.59217  -0.58979  -0.58175
 Alpha  occ. eigenvalues --   -0.57650  -0.57448  -0.57038  -0.56881  -0.54772
 Alpha  occ. eigenvalues --   -0.54647  -0.53784  -0.53501  -0.53249  -0.53164
 Alpha  occ. eigenvalues --   -0.52515  -0.51652  -0.51090  -0.50502  -0.50298
 Alpha  occ. eigenvalues --   -0.50100  -0.49343  -0.49309  -0.48952  -0.48757
 Alpha  occ. eigenvalues --   -0.48564  -0.48047  -0.47821  -0.47615  -0.47400
 Alpha  occ. eigenvalues --   -0.47227  -0.47028  -0.46713  -0.46649  -0.46517
 Alpha  occ. eigenvalues --   -0.46421  -0.45682  -0.45642  -0.45540  -0.45002
 Alpha  occ. eigenvalues --   -0.44929  -0.44654  -0.44585  -0.44441  -0.44349
 Alpha  occ. eigenvalues --   -0.44107  -0.43908  -0.43818  -0.43616  -0.43278
 Alpha  occ. eigenvalues --   -0.43095  -0.42937  -0.42744  -0.42514  -0.42444
 Alpha  occ. eigenvalues --   -0.42427  -0.42086  -0.41830  -0.41674  -0.41264
 Alpha  occ. eigenvalues --   -0.40993  -0.40795  -0.40633  -0.40544  -0.40239
 Alpha  occ. eigenvalues --   -0.40097  -0.39990  -0.39967  -0.39853  -0.39470
 Alpha  occ. eigenvalues --   -0.39413  -0.39288  -0.39018  -0.38937  -0.38836
 Alpha  occ. eigenvalues --   -0.38624  -0.38478  -0.38194  -0.37954  -0.37871
 Alpha  occ. eigenvalues --   -0.37749  -0.37590  -0.37500  -0.37262  -0.36878
 Alpha  occ. eigenvalues --   -0.36797  -0.36679  -0.36533  -0.36246  -0.36134
 Alpha  occ. eigenvalues --   -0.35940  -0.35640  -0.35442  -0.35274  -0.34985
 Alpha  occ. eigenvalues --   -0.34640  -0.34569  -0.34495  -0.34396  -0.33979
 Alpha  occ. eigenvalues --   -0.33709  -0.33443  -0.32975  -0.32815  -0.32447
 Alpha  occ. eigenvalues --   -0.32373  -0.32183  -0.31839  -0.31457  -0.31031
 Alpha  occ. eigenvalues --   -0.30803  -0.30424  -0.30256  -0.30182  -0.29797
 Alpha  occ. eigenvalues --   -0.29613  -0.28867  -0.28636  -0.26808  -0.26475
 Alpha  occ. eigenvalues --   -0.26029  -0.25899  -0.24929  -0.24663  -0.20615
 Alpha  occ. eigenvalues --   -0.18853
 Alpha virt. eigenvalues --   -0.11084  -0.04701  -0.03330  -0.01878  -0.01487
 Alpha virt. eigenvalues --   -0.01300  -0.00100   0.00079   0.01794   0.03162
 Alpha virt. eigenvalues --    0.03414   0.04008   0.04515   0.05414   0.05713

 Mulliken charges:
               1
     1  Mg   0.990645
     2  C   -0.054483
     3  C   -0.055266
     4  C   -0.079085
     5  C   -0.089166
     6  N   -0.391365
     7  C    0.036267
     8  C   -0.083305
     9  C   -0.120054
    10  C    0.056310
    11  C    0.009129
    12  C    0.032952
    13  C    0.003985
    14  C    0.237142
    15  O   -0.245634
    16  O   -0.382485
    17  N   -0.443165
    18  C    0.173842
    19  C   -0.182795
    20  C   -0.101638
    21  C    0.154944
    22  C    0.064466
    23  C    0.064758
    24  O   -0.218882
    25  C   -0.023635
    26  N   -0.360387
    27  C    0.068091
    28  C   -0.092808
    29  C   -0.113525
    30  C    0.088306
    31  C   -0.009411
    32  C   -0.002241
    33  C   -0.061443
    34  N   -0.458232
    35  C    0.103025
    36  C   -0.182577
    37  C   -0.010216
    38  C    0.121139
    39  C    0.062866
    40  C    0.152216
    41  O   -0.206695
    42  C   -0.123759
    43  C    0.275147
    44  O   -0.229584
    45  O   -0.370929
    46  C    0.109791
    47  C    0.241118
    48  C   -0.134395
    49  C   -0.249913
    50  C   -0.003391
    51  C   -0.014264
    52  C   -0.037312
    53  C    0.011752
    54  C   -0.241406
    55  C    0.008277
    56  C   -0.018962
    57  C   -0.059343
    58  C    0.047221
    59  C   -0.259564
    60  C   -0.032137
    61  C    0.058688
    62  C   -0.096730
    63  C   -0.018299
    64  C   -0.234409
    65  C   -0.031641
    66  C   -0.005994
    67  H   -0.000706
    68  H   -0.023454
    69  H   -0.002452
    70  H    0.066235
    71  H    0.053431
    72  H    0.061760
    73  H    0.044216
    74  H    0.031276
    75  H    0.036576
    76  H    0.046425
    77  H    0.062242
    78  H    0.052090
    79  H    0.064297
    80  H    0.054134
    81  H    0.010179
    82  H    0.049460
    83  H    0.083415
    84  H    0.059006
    85  H    0.042610
    86  H    0.046800
    87  H    0.043028
    88  H    0.042098
    89  H    0.048875
    90  H    0.047756
    91  H    0.031466
    92  H    0.029769
    93  H    0.043617
    94  H    0.048677
    95  H    0.058881
    96  H    0.056395
    97  H    0.055947
    98  H    0.081137
    99  H    0.053010
   100  H    0.066831
   101  H    0.058094
   102  H    0.038412
   103  H    0.068511
   104  H    0.027339
   105  H    0.050101
   106  H    0.067788
   107  H    0.068275
   108  H    0.027335
   109  H    0.041736
   110  H    0.041995
   111  H    0.036318
   112  H    0.033721
   113  H    0.027972
   114  H    0.028634
   115  H    0.031262
   116  H    0.035208
   117  H    0.021886
   118  H    0.036191
   119  H    0.014950
   120  H    0.028837
   121  H    0.030492
   122  H    0.027221
   123  H    0.022173
   124  H    0.052861
   125  H    0.026001
   126  H    0.035796
   127  H    0.035354
   128  H    0.023797
   129  H    0.030365
   130  H    0.019567
   131  H    0.046749
   132  H    0.022888
   133  H    0.017111
   134  H    0.040743
   135  H    0.034230
   136  H    0.035932
   137  H    0.024586
   138  H    0.027411
   139  H    0.049808
   140  H    0.025773
 Sum of Mulliken charges =  -0.00000

 Dipole moment (field-independent basis, Debye):
    X=              0.2454    Y=             -2.1821    Z=              2.1702  Tot=              3.0873
 Quadrupole moment (field-independent basis, Debye-Ang):
   XX=           -357.4833   YY=           -420.6971   ZZ=           -410.6725
   XY=             18.1420   XZ=            -16.8621   YZ=            -33.5243

 Normal termination of Gaussian 16 at Wed May  4 07:07:20 2022.
