 Gaussian 16, Revision A.03,
 Gaussian 16:  ES64L-G16RevA.03 25-Dec-2016

 --------------------------------
 #p wB97XD/Def2SVP td=(nstates=5)
 --------------------------------

 -----------------------------------------------------
 step_1451_chromophore_23 TDDFT with wB97XD functional
 -----------------------------------------------------
 Symbolic Z-matrix:
 Charge =  0 Multiplicity = 1

                         Standard orientation:
 ---------------------------------------------------------------------
 Center     Atomic      Atomic             Coordinates (Angstroms)
 Number     Number       Type             X           Y           Z
 ---------------------------------------------------------------------
      1         12           0       -4.516014   -0.129091   -0.189675
      2          6           0       -2.808655    2.796360    0.373616
      3          6           0       -2.577838   -0.687434   -2.948267
      4          6           0       -5.774094   -3.352155   -0.478018
      5          6           0       -5.890002    0.029630    2.930745
      6          7           0       -2.807364    0.940472   -1.018158
      7          6           0       -2.213460    2.058045   -0.661801
      8          6           0       -1.077503    2.489217   -1.606549
      9          6           0       -1.079095    1.389019   -2.685928
     10          6           0       -2.266014    0.499263   -2.254651
     11          6           0       -1.055814    1.813012   -4.138204
     12          6           0        0.290077    2.855805   -0.980744
     13          6           0        0.953917    4.158682   -1.410128
     14          6           0        2.243987    3.994089   -2.275063
     15          8           0        2.404197    3.594451   -3.406499
     16          8           0        3.279353    4.289632   -1.366208
     17          7           0       -4.289794   -1.734876   -1.588747
     18          6           0       -3.546394   -1.684074   -2.718384
     19          6           0       -3.641655   -2.933658   -3.371716
     20          6           0       -4.726292   -3.614077   -2.810734
     21          6           0       -4.957462   -2.905303   -1.578658
     22          6           0       -2.963113   -3.213649   -4.692293
     23          6           0       -5.344705   -4.943097   -3.376068
     24          8           0       -4.849082   -5.564114   -4.279842
     25          6           0       -6.545382   -5.461025   -2.826244
     26          7           0       -5.473926   -1.557186    1.147104
     27          6           0       -6.000145   -2.743538    0.754620
     28          6           0       -6.992199   -3.318049    1.798788
     29          6           0       -6.881894   -2.317573    2.923508
     30          6           0       -5.991026   -1.219636    2.320733
     31          6           0       -8.467307   -3.595253    1.379509
     32          6           0       -6.363591   -2.797026    4.335826
     33          6           0       -7.210089   -2.418114    5.502563
     34          7           0       -4.375398    1.149834    1.357665
     35          6           0       -5.057834    1.157066    2.554058
     36          6           0       -4.897662    2.432607    3.233056
     37          6           0       -4.094058    3.123813    2.335996
     38          6           0       -3.743563    2.282978    1.321499
     39          6           0       -5.527287    2.812529    4.584407
     40          6           0       -3.440010    4.377338    2.106476
     41          8           0       -3.574860    5.442194    2.689045
     42          6           0       -2.438185    4.188138    0.871754
     43          6           0       -2.575897    5.163362   -0.246065
     44          8           0       -3.411017    5.097892   -1.108407
     45          8           0       -1.619760    6.170391   -0.125188
     46          6           0       -1.706857    7.155070   -1.221846
     47          6           0        4.634978    4.022697   -1.855655
     48          6           0        5.401282    3.065547   -0.942587
     49          6           0        5.286610    1.661390   -0.856012
     50          6           0        4.408248    0.751347   -1.835152
     51          6           0        6.243185    1.012554    0.188254
     52          6           0        7.745602    0.821075   -0.274739
     53          6           0        8.797639    1.073524    0.830738
     54          6           0       10.181134    0.505055    0.473871
     55          6           0       11.234232    1.385809   -0.242914
     56          6           0       10.701442   -0.251014    1.716350
     57          6           0       10.246358   -1.747786    1.786547
     58          6           0        9.338097   -2.053044    2.979428
     59          6           0        7.878589   -2.249507    2.565394
     60          6           0        7.016540   -1.279413    3.457770
     61          6           0        7.454504   -3.673710    2.821683
     62          6           0        7.616279   -4.487934    1.532165
     63          6           0        6.301106   -5.176794    0.959556
     64          6           0        6.442483   -5.307685   -0.564441
     65          6           0        6.585462   -3.913906   -1.293977
     66          6           0        5.249862   -6.112323   -1.212669
     67          1           0       -1.994413   -0.771783   -3.866713
     68          1           0       -6.366095   -4.253590   -0.650969
     69          1           0       -6.447031    0.186239    3.856788
     70          1           0       -1.527657    3.392408   -2.017866
     71          1           0       -0.226620    0.715563   -2.593381
     72          1           0       -0.225729    2.451873   -4.439654
     73          1           0       -2.058273    2.168012   -4.378075
     74          1           0       -0.939752    0.941434   -4.782423
     75          1           0        0.937160    2.020145   -1.246668
     76          1           0        0.203489    2.714550    0.096728
     77          1           0        1.087712    4.753426   -0.506218
     78          1           0        0.276770    4.826662   -1.942275
     79          1           0       -3.580668   -3.429017   -5.563972
     80          1           0       -2.231230   -3.995421   -4.489974
     81          1           0       -2.351100   -2.371663   -5.015058
     82          1           0       -7.276401   -4.713102   -2.519067
     83          1           0       -6.312874   -6.120403   -1.989724
     84          1           0       -7.065045   -5.958306   -3.645897
     85          1           0       -6.671696   -4.322208    2.075085
     86          1           0       -7.857316   -1.846259    3.038384
     87          1           0       -8.530141   -4.162281    0.450094
     88          1           0       -9.014935   -2.663310    1.238158
     89          1           0       -8.935133   -4.153297    2.190880
     90          1           0       -5.362756   -2.422512    4.547783
     91          1           0       -6.269159   -3.881349    4.269390
     92          1           0       -7.973137   -1.760181    5.086945
     93          1           0       -6.634857   -1.824891    6.213302
     94          1           0       -7.691329   -3.250027    6.016473
     95          1           0       -5.103455    2.275733    5.433316
     96          1           0       -6.599771    2.658181    4.472197
     97          1           0       -5.375547    3.863108    4.832039
     98          1           0       -1.387247    4.110201    1.150021
     99          1           0       -0.684679    7.510691   -1.348942
    100          1           0       -2.343141    8.039458   -1.181779
    101          1           0       -2.036349    6.669510   -2.140798
    102          1           0        5.090550    5.007586   -1.758968
    103          1           0        4.657588    3.631881   -2.873054
    104          1           0        6.112551    3.486494   -0.232107
    105          1           0        4.201968   -0.184572   -1.315455
    106          1           0        4.943013    0.550366   -2.763301
    107          1           0        3.575716    1.425466   -2.033821
    108          1           0        5.715918    0.100320    0.466970
    109          1           0        6.155416    1.570085    1.120763
    110          1           0        7.961685    1.455091   -1.134147
    111          1           0        7.762073   -0.227361   -0.573275
    112          1           0        8.520165    0.623738    1.783303
    113          1           0        8.961160    2.145571    0.935922
    114          1           0        9.944489   -0.249518   -0.275794
    115          1           0       11.056275    2.461818   -0.226563
    116          1           0       11.422943    1.096425   -1.276863
    117          1           0       12.187868    1.206262    0.252859
    118          1           0       10.452688    0.296684    2.624859
    119          1           0       11.773211   -0.311245    1.528013
    120          1           0       11.162010   -2.338831    1.778725
    121          1           0        9.693746   -1.959573    0.870782
    122          1           0        9.492999   -1.226317    3.672721
    123          1           0        9.643878   -3.009798    3.404062
    124          1           0        7.639423   -1.965991    1.539845
    125          1           0        7.577203   -0.357098    3.607078
    126          1           0        6.784521   -1.579615    4.479989
    127          1           0        6.106964   -1.023274    2.915197
    128          1           0        6.436088   -3.626877    3.207425
    129          1           0        8.040466   -4.297770    3.497445
    130          1           0        8.097734   -5.421079    1.825337
    131          1           0        8.261242   -4.055901    0.767145
    132          1           0        5.355111   -4.797247    1.346928
    133          1           0        6.282912   -6.169559    1.408873
    134          1           0        7.310566   -5.960572   -0.649605
    135          1           0        7.486334   -3.785628   -1.894377
    136          1           0        6.547341   -3.018576   -0.673126
    137          1           0        5.807248   -3.757417   -2.039830
    138          1           0        5.693781   -7.107380   -1.233980
    139          1           0        4.815239   -5.748679   -2.143598
    140          1           0        4.446014   -6.267151   -0.493074
 ---------------------------------------------------------------------

 SCF Done:  E(RwB97XD) =  -3007.85385134     A.U. after   17 cycles

 Excitation energies and oscillator strengths:

 Excited State   1:      Singlet-A      1.6804 eV  737.84 nm  f=0.3746  <S**2>=0.000
     245 -> 248        0.18740
     246 -> 247        0.68305
     245 <- 248        0.11700
 This state for optimization and/or second-order correction.
 Total Energy, E(TD-HF/TD-DFT) =  -3007.79209870
 Copying the excited state density for this state as the 1-particle RhoCI density.

 Excited State   2:      Singlet-A      2.1579 eV  574.55 nm  f=0.1537  <S**2>=0.000
     245 -> 247        0.65472
     246 -> 248       -0.25561

 Excited State   3:      Singlet-A      3.4153 eV  363.02 nm  f=0.0056  <S**2>=0.000
     242 -> 247       -0.16956
     243 -> 247        0.66263
     243 -> 249        0.10513

 Excited State   4:      Singlet-A      3.5363 eV  350.61 nm  f=0.0093  <S**2>=0.000
     239 -> 247        0.15297
     239 -> 249       -0.13194
     240 -> 247       -0.15436
     240 -> 249        0.12407
     241 -> 247       -0.37213
     241 -> 249        0.20071
     242 -> 247        0.39196
     242 -> 249       -0.11331
     246 -> 248        0.16087

 Excited State   5:      Singlet-A      3.6487 eV  339.80 nm  f=0.3136  <S**2>=0.000
     239 -> 247       -0.21720
     239 -> 249        0.10293
     240 -> 247        0.24082
     241 -> 247        0.14773
     242 -> 247        0.23698
     245 -> 247        0.16854
     246 -> 248        0.49180

 The electronic state is 1-A.
 Alpha  occ. eigenvalues --  -46.95416 -19.31054 -19.29811 -19.26697 -19.25833
 Alpha  occ. eigenvalues --  -19.24339 -19.23496 -14.46998 -14.46251 -14.43625
 Alpha  occ. eigenvalues --  -14.43552 -10.44346 -10.43599 -10.39486 -10.38384
 Alpha  occ. eigenvalues --  -10.35431 -10.35367 -10.34982 -10.34951 -10.34752
 Alpha  occ. eigenvalues --  -10.34527 -10.34089 -10.33970 -10.32643 -10.32598
 Alpha  occ. eigenvalues --  -10.32551 -10.32514 -10.32240 -10.32094 -10.31843
 Alpha  occ. eigenvalues --  -10.31833 -10.31773 -10.31733 -10.31656 -10.31389
 Alpha  occ. eigenvalues --  -10.31063 -10.30828 -10.30637 -10.30631 -10.30621
 Alpha  occ. eigenvalues --  -10.30609 -10.30572 -10.30390 -10.30172 -10.30003
 Alpha  occ. eigenvalues --  -10.29984 -10.29961 -10.29881 -10.29380 -10.29369
 Alpha  occ. eigenvalues --  -10.29256 -10.29141 -10.29121 -10.29032 -10.28941
 Alpha  occ. eigenvalues --  -10.28822 -10.28815 -10.28525 -10.28509 -10.28459
 Alpha  occ. eigenvalues --  -10.28440 -10.28392 -10.28214 -10.28151 -10.28133
 Alpha  occ. eigenvalues --  -10.28119  -3.21431  -1.94985  -1.94548  -1.94414
 Alpha  occ. eigenvalues --   -1.19021  -1.18294  -1.13257  -1.12338  -1.11151
 Alpha  occ. eigenvalues --   -1.10872  -1.07947  -1.06718  -1.06101  -1.05436
 Alpha  occ. eigenvalues --   -0.94714  -0.92352  -0.91973  -0.91385  -0.91057
 Alpha  occ. eigenvalues --   -0.90504  -0.89812  -0.89603  -0.88987  -0.88738
 Alpha  occ. eigenvalues --   -0.87929  -0.87554  -0.86199  -0.85842  -0.85337
 Alpha  occ. eigenvalues --   -0.84757  -0.84060  -0.83307  -0.82474  -0.82182
 Alpha  occ. eigenvalues --   -0.81503  -0.80326  -0.79514  -0.79143  -0.78105
 Alpha  occ. eigenvalues --   -0.77915  -0.77329  -0.77275  -0.76742  -0.76188
 Alpha  occ. eigenvalues --   -0.75294  -0.74760  -0.73322  -0.72416  -0.71047
 Alpha  occ. eigenvalues --   -0.70657  -0.70138  -0.68905  -0.68790  -0.67927
 Alpha  occ. eigenvalues --   -0.67216  -0.67020  -0.66836  -0.66446  -0.65870
 Alpha  occ. eigenvalues --   -0.65153  -0.65071  -0.64667  -0.64335  -0.62250
 Alpha  occ. eigenvalues --   -0.62092  -0.61196  -0.61047  -0.60804  -0.60573
 Alpha  occ. eigenvalues --   -0.59976  -0.59104  -0.58465  -0.58019  -0.57764
 Alpha  occ. eigenvalues --   -0.57499  -0.56816  -0.56783  -0.56373  -0.56163
 Alpha  occ. eigenvalues --   -0.55937  -0.55478  -0.55317  -0.54992  -0.54816
 Alpha  occ. eigenvalues --   -0.54619  -0.54342  -0.54108  -0.54045  -0.53916
 Alpha  occ. eigenvalues --   -0.53783  -0.53021  -0.52966  -0.52858  -0.52308
 Alpha  occ. eigenvalues --   -0.52252  -0.52043  -0.51961  -0.51743  -0.51724
 Alpha  occ. eigenvalues --   -0.51444  -0.51231  -0.51088  -0.50965  -0.50548
 Alpha  occ. eigenvalues --   -0.50416  -0.50192  -0.50041  -0.49782  -0.49741
 Alpha  occ. eigenvalues --   -0.49663  -0.49356  -0.49067  -0.48914  -0.48500
 Alpha  occ. eigenvalues --   -0.48192  -0.48108  -0.47807  -0.47745  -0.47491
 Alpha  occ. eigenvalues --   -0.47300  -0.47204  -0.47094  -0.47070  -0.46686
 Alpha  occ. eigenvalues --   -0.46649  -0.46448  -0.46207  -0.46108  -0.45942
 Alpha  occ. eigenvalues --   -0.45809  -0.45652  -0.45342  -0.45162  -0.45099
 Alpha  occ. eigenvalues --   -0.44889  -0.44743  -0.44588  -0.44322  -0.43952
 Alpha  occ. eigenvalues --   -0.43846  -0.43819  -0.43633  -0.43322  -0.43160
 Alpha  occ. eigenvalues --   -0.43078  -0.42659  -0.42519  -0.42292  -0.41990
 Alpha  occ. eigenvalues --   -0.41634  -0.41574  -0.41515  -0.41425  -0.40956
 Alpha  occ. eigenvalues --   -0.40758  -0.40469  -0.39911  -0.39815  -0.39552
 Alpha  occ. eigenvalues --   -0.39513  -0.39130  -0.38832  -0.38459  -0.38009
 Alpha  occ. eigenvalues --   -0.37774  -0.37488  -0.37329  -0.37258  -0.36683
 Alpha  occ. eigenvalues --   -0.36540  -0.35735  -0.35293  -0.33462  -0.33268
 Alpha  occ. eigenvalues --   -0.33068  -0.32815  -0.31593  -0.31368  -0.25558
 Alpha  occ. eigenvalues --   -0.23088
 Alpha virt. eigenvalues --   -0.07007   0.00776   0.02955   0.04617   0.04736
 Alpha virt. eigenvalues --    0.05217   0.06557   0.06896   0.08548   0.09845
 Alpha virt. eigenvalues --    0.09972   0.10424   0.11257   0.12117   0.12338

 Mulliken charges:
               1
     1  Mg   0.982928
     2  C   -0.060141
     3  C   -0.058579
     4  C   -0.090777
     5  C   -0.108828
     6  N   -0.356243
     7  C   -0.000354
     8  C   -0.054171
     9  C   -0.090660
    10  C    0.038340
    11  C    0.019393
    12  C    0.044307
    13  C    0.022914
    14  C    0.227101
    15  O   -0.241265
    16  O   -0.383362
    17  N   -0.408396
    18  C    0.160233
    19  C   -0.172616
    20  C   -0.100503
    21  C    0.149753
    22  C    0.075217
    23  C    0.061667
    24  O   -0.213889
    25  C   -0.012706
    26  N   -0.326050
    27  C    0.054222
    28  C   -0.071776
    29  C   -0.083544
    30  C    0.079184
    31  C    0.004246
    32  C    0.007935
    33  C   -0.044166
    34  N   -0.420026
    35  C    0.096316
    36  C   -0.181959
    37  C   -0.004034
    38  C    0.111474
    39  C    0.073009
    40  C    0.131479
    41  O   -0.196396
    42  C   -0.082193
    43  C    0.252082
    44  O   -0.224346
    45  O   -0.368576
    46  C    0.124453
    47  C    0.256720
    48  C   -0.142490
    49  C   -0.244733
    50  C    0.022217
    51  C    0.007145
    52  C   -0.014888
    53  C    0.038610
    54  C   -0.213866
    55  C    0.020063
    56  C    0.005067
    57  C   -0.039692
    58  C    0.060656
    59  C   -0.213863
    60  C   -0.018465
    61  C    0.069586
    62  C   -0.076070
    63  C   -0.008238
    64  C   -0.201981
    65  C   -0.017415
    66  C    0.005315
    67  H   -0.013723
    68  H   -0.039134
    69  H   -0.010452
    70  H    0.046986
    71  H    0.041845
    72  H    0.057788
    73  H    0.037340
    74  H    0.025672
    75  H    0.026410
    76  H    0.039726
    77  H    0.058268
    78  H    0.041613
    79  H    0.060897
    80  H    0.049284
    81  H    0.004932
    82  H    0.043247
    83  H    0.080137
    84  H    0.057283
    85  H    0.032921
    86  H    0.031537
    87  H    0.036942
    88  H    0.035410
    89  H    0.042707
    90  H    0.040249
    91  H    0.023483
    92  H    0.021390
    93  H    0.038201
    94  H    0.044077
    95  H    0.054881
    96  H    0.051262
    97  H    0.052897
    98  H    0.071458
    99  H    0.049892
   100  H    0.063996
   101  H    0.053449
   102  H    0.035226
   103  H    0.063609
   104  H    0.023152
   105  H    0.045192
   106  H    0.062507
   107  H    0.053420
   108  H    0.016042
   109  H    0.033227
   110  H    0.033253
   111  H    0.024458
   112  H    0.004990
   113  H    0.018779
   114  H    0.012072
   115  H    0.025820
   116  H    0.030236
   117  H    0.015050
   118  H    0.026165
   119  H    0.005104
   120  H    0.023169
   121  H    0.013786
   122  H    0.015708
   123  H    0.013594
   124  H    0.025576
   125  H    0.019696
   126  H    0.030951
   127  H    0.028567
   128  H    0.015272
   129  H    0.022800
   130  H    0.010642
   131  H    0.033127
   132  H    0.014659
   133  H    0.008736
   134  H    0.029365
   135  H    0.028576
   136  H    0.026347
   137  H    0.018179
   138  H    0.021071
   139  H    0.045230
   140  H    0.019404
 Sum of Mulliken charges =  -0.00000

 Dipole moment (field-independent basis, Debye):
    X=              0.2326    Y=             -1.9358    Z=              2.1779  Tot=              2.9232
 Quadrupole moment (field-independent basis, Debye-Ang):
   XX=           -357.7294   YY=           -419.4318   ZZ=           -410.5567
   XY=             17.5567   XZ=            -16.6168   YZ=            -33.3082

 Normal termination of Gaussian 16 at Wed May  4 07:33:05 2022.
