 Gaussian 16, Revision A.03,
 Gaussian 16:  ES64L-G16RevA.03 25-Dec-2016

 --------------------
 #p ZINDO=(nstates=5)
 --------------------

 ------------------------------
 step_1451_chromophore_23 ZINDO
 ------------------------------
 Symbolic Z-matrix:
 Charge =  0 Multiplicity = 1

                         Standard orientation:
 ---------------------------------------------------------------------
 Center     Atomic      Atomic             Coordinates (Angstroms)
 Number     Number       Type             X           Y           Z
 ---------------------------------------------------------------------
      1         12           0       -4.516014   -0.129091   -0.189675
      2          6           0       -2.808655    2.796360    0.373616
      3          6           0       -2.577838   -0.687434   -2.948267
      4          6           0       -5.774094   -3.352155   -0.478018
      5          6           0       -5.890002    0.029630    2.930745
      6          7           0       -2.807364    0.940472   -1.018158
      7          6           0       -2.213460    2.058045   -0.661801
      8          6           0       -1.077503    2.489217   -1.606549
      9          6           0       -1.079095    1.389019   -2.685928
     10          6           0       -2.266014    0.499263   -2.254651
     11          6           0       -1.055814    1.813012   -4.138204
     12          6           0        0.290077    2.855805   -0.980744
     13          6           0        0.953917    4.158682   -1.410128
     14          6           0        2.243987    3.994089   -2.275063
     15          8           0        2.404197    3.594451   -3.406499
     16          8           0        3.279353    4.289632   -1.366208
     17          7           0       -4.289794   -1.734876   -1.588747
     18          6           0       -3.546394   -1.684074   -2.718384
     19          6           0       -3.641655   -2.933658   -3.371716
     20          6           0       -4.726292   -3.614077   -2.810734
     21          6           0       -4.957462   -2.905303   -1.578658
     22          6           0       -2.963113   -3.213649   -4.692293
     23          6           0       -5.344705   -4.943097   -3.376068
     24          8           0       -4.849082   -5.564114   -4.279842
     25          6           0       -6.545382   -5.461025   -2.826244
     26          7           0       -5.473926   -1.557186    1.147104
     27          6           0       -6.000145   -2.743538    0.754620
     28          6           0       -6.992199   -3.318049    1.798788
     29          6           0       -6.881894   -2.317573    2.923508
     30          6           0       -5.991026   -1.219636    2.320733
     31          6           0       -8.467307   -3.595253    1.379509
     32          6           0       -6.363591   -2.797026    4.335826
     33          6           0       -7.210089   -2.418114    5.502563
     34          7           0       -4.375398    1.149834    1.357665
     35          6           0       -5.057834    1.157066    2.554058
     36          6           0       -4.897662    2.432607    3.233056
     37          6           0       -4.094058    3.123813    2.335996
     38          6           0       -3.743563    2.282978    1.321499
     39          6           0       -5.527287    2.812529    4.584407
     40          6           0       -3.440010    4.377338    2.106476
     41          8           0       -3.574860    5.442194    2.689045
     42          6           0       -2.438185    4.188138    0.871754
     43          6           0       -2.575897    5.163362   -0.246065
     44          8           0       -3.411017    5.097892   -1.108407
     45          8           0       -1.619760    6.170391   -0.125188
     46          6           0       -1.706857    7.155070   -1.221846
     47          6           0        4.634978    4.022697   -1.855655
     48          6           0        5.401282    3.065547   -0.942587
     49          6           0        5.286610    1.661390   -0.856012
     50          6           0        4.408248    0.751347   -1.835152
     51          6           0        6.243185    1.012554    0.188254
     52          6           0        7.745602    0.821075   -0.274739
     53          6           0        8.797639    1.073524    0.830738
     54          6           0       10.181134    0.505055    0.473871
     55          6           0       11.234232    1.385809   -0.242914
     56          6           0       10.701442   -0.251014    1.716350
     57          6           0       10.246358   -1.747786    1.786547
     58          6           0        9.338097   -2.053044    2.979428
     59          6           0        7.878589   -2.249507    2.565394
     60          6           0        7.016540   -1.279413    3.457770
     61          6           0        7.454504   -3.673710    2.821683
     62          6           0        7.616279   -4.487934    1.532165
     63          6           0        6.301106   -5.176794    0.959556
     64          6           0        6.442483   -5.307685   -0.564441
     65          6           0        6.585462   -3.913906   -1.293977
     66          6           0        5.249862   -6.112323   -1.212669
     67          1           0       -1.994413   -0.771783   -3.866713
     68          1           0       -6.366095   -4.253590   -0.650969
     69          1           0       -6.447031    0.186239    3.856788
     70          1           0       -1.527657    3.392408   -2.017866
     71          1           0       -0.226620    0.715563   -2.593381
     72          1           0       -0.225729    2.451873   -4.439654
     73          1           0       -2.058273    2.168012   -4.378075
     74          1           0       -0.939752    0.941434   -4.782423
     75          1           0        0.937160    2.020145   -1.246668
     76          1           0        0.203489    2.714550    0.096728
     77          1           0        1.087712    4.753426   -0.506218
     78          1           0        0.276770    4.826662   -1.942275
     79          1           0       -3.580668   -3.429017   -5.563972
     80          1           0       -2.231230   -3.995421   -4.489974
     81          1           0       -2.351100   -2.371663   -5.015058
     82          1           0       -7.276401   -4.713102   -2.519067
     83          1           0       -6.312874   -6.120403   -1.989724
     84          1           0       -7.065045   -5.958306   -3.645897
     85          1           0       -6.671696   -4.322208    2.075085
     86          1           0       -7.857316   -1.846259    3.038384
     87          1           0       -8.530141   -4.162281    0.450094
     88          1           0       -9.014935   -2.663310    1.238158
     89          1           0       -8.935133   -4.153297    2.190880
     90          1           0       -5.362756   -2.422512    4.547783
     91          1           0       -6.269159   -3.881349    4.269390
     92          1           0       -7.973137   -1.760181    5.086945
     93          1           0       -6.634857   -1.824891    6.213302
     94          1           0       -7.691329   -3.250027    6.016473
     95          1           0       -5.103455    2.275733    5.433316
     96          1           0       -6.599771    2.658181    4.472197
     97          1           0       -5.375547    3.863108    4.832039
     98          1           0       -1.387247    4.110201    1.150021
     99          1           0       -0.684679    7.510691   -1.348942
    100          1           0       -2.343141    8.039458   -1.181779
    101          1           0       -2.036349    6.669510   -2.140798
    102          1           0        5.090550    5.007586   -1.758968
    103          1           0        4.657588    3.631881   -2.873054
    104          1           0        6.112551    3.486494   -0.232107
    105          1           0        4.201968   -0.184572   -1.315455
    106          1           0        4.943013    0.550366   -2.763301
    107          1           0        3.575716    1.425466   -2.033821
    108          1           0        5.715918    0.100320    0.466970
    109          1           0        6.155416    1.570085    1.120763
    110          1           0        7.961685    1.455091   -1.134147
    111          1           0        7.762073   -0.227361   -0.573275
    112          1           0        8.520165    0.623738    1.783303
    113          1           0        8.961160    2.145571    0.935922
    114          1           0        9.944489   -0.249518   -0.275794
    115          1           0       11.056275    2.461818   -0.226563
    116          1           0       11.422943    1.096425   -1.276863
    117          1           0       12.187868    1.206262    0.252859
    118          1           0       10.452688    0.296684    2.624859
    119          1           0       11.773211   -0.311245    1.528013
    120          1           0       11.162010   -2.338831    1.778725
    121          1           0        9.693746   -1.959573    0.870782
    122          1           0        9.492999   -1.226317    3.672721
    123          1           0        9.643878   -3.009798    3.404062
    124          1           0        7.639423   -1.965991    1.539845
    125          1           0        7.577203   -0.357098    3.607078
    126          1           0        6.784521   -1.579615    4.479989
    127          1           0        6.106964   -1.023274    2.915197
    128          1           0        6.436088   -3.626877    3.207425
    129          1           0        8.040466   -4.297770    3.497445
    130          1           0        8.097734   -5.421079    1.825337
    131          1           0        8.261242   -4.055901    0.767145
    132          1           0        5.355111   -4.797247    1.346928
    133          1           0        6.282912   -6.169559    1.408873
    134          1           0        7.310566   -5.960572   -0.649605
    135          1           0        7.486334   -3.785628   -1.894377
    136          1           0        6.547341   -3.018576   -0.673126
    137          1           0        5.807248   -3.757417   -2.039830
    138          1           0        5.693781   -7.107380   -1.233980
    139          1           0        4.815239   -5.748679   -2.143598
    140          1           0        4.446014   -6.267151   -0.493074
 ---------------------------------------------------------------------

 SCF Done:  E(RZINDO/S) =  -474.466334477     A.U. after   19 cycles

 Excitation energies and oscillator strengths:

 Excited State   1:      Singlet-A      1.2499 eV  991.93 nm  f=0.5980  <S**2>=0.000
     175 ->178         0.19777
     176 ->177         0.66137
 This state for optimization and/or second-order correction.
 Total Energy, E(CIS/TDA) =  -474.420400364
 Copying the excited state density for this state as the 1-particle RhoCI density.

 Excited State   2:      Singlet-A      1.8776 eV  660.33 nm  f=0.1044  <S**2>=0.000
     175 ->177         0.58701
     176 ->178        -0.36833

 Excited State   3:      Singlet-A      2.9810 eV  415.91 nm  f=0.0273  <S**2>=0.000
     168 ->177         0.32526
     168 ->179        -0.38828
     168 ->182         0.14092
     168 ->183         0.15931
     168 ->186        -0.15274
     168 ->187        -0.10743
     171 ->177        -0.16059
     176 ->178         0.12069

 Excited State   4:      Singlet-A      3.0158 eV  411.12 nm  f=0.1324  <S**2>=0.000
     175 ->177         0.12123
     176 ->178         0.22526
     176 ->179         0.11632
     176 ->180         0.62670

 Excited State   5:      Singlet-A      3.0634 eV  404.73 nm  f=0.0017  <S**2>=0.000
     169 ->177        -0.18068
     169 ->178        -0.10527
     169 ->179        -0.20028
     169 ->182        -0.34275
     169 ->183        -0.15212
     169 ->186        -0.23707
     169 ->187         0.13584
     170 ->182         0.14377
     172 ->177        -0.18804
     172 ->182        -0.11210
     176 ->180        -0.13210

 The electronic state is 1-A.
 Alpha  occ. eigenvalues --   -1.88544  -1.83279  -1.81216  -1.73915  -1.72398
 Alpha  occ. eigenvalues --   -1.71269  -1.68051  -1.62137  -1.59794  -1.59043
 Alpha  occ. eigenvalues --   -1.52965  -1.50463  -1.49869  -1.49072  -1.47062
 Alpha  occ. eigenvalues --   -1.45573  -1.44564  -1.40915  -1.39750  -1.37019
 Alpha  occ. eigenvalues --   -1.36423  -1.33422  -1.32259  -1.31151  -1.29046
 Alpha  occ. eigenvalues --   -1.27356  -1.26840  -1.23495  -1.21115  -1.19164
 Alpha  occ. eigenvalues --   -1.17494  -1.16390  -1.15650  -1.14642  -1.14052
 Alpha  occ. eigenvalues --   -1.12416  -1.10472  -1.09251  -1.05695  -1.04380
 Alpha  occ. eigenvalues --   -1.02616  -1.02094  -0.99019  -0.97254  -0.97098
 Alpha  occ. eigenvalues --   -0.95492  -0.94837  -0.94304  -0.93259  -0.92529
 Alpha  occ. eigenvalues --   -0.91450  -0.90262  -0.88894  -0.88626  -0.87837
 Alpha  occ. eigenvalues --   -0.86193  -0.84440  -0.82856  -0.81728  -0.80419
 Alpha  occ. eigenvalues --   -0.79524  -0.78459  -0.77622  -0.76777  -0.76397
 Alpha  occ. eigenvalues --   -0.76130  -0.75486  -0.74582  -0.74376  -0.73648
 Alpha  occ. eigenvalues --   -0.73196  -0.73058  -0.71944  -0.71448  -0.71154
 Alpha  occ. eigenvalues --   -0.70710  -0.69479  -0.68735  -0.68677  -0.68333
 Alpha  occ. eigenvalues --   -0.67789  -0.66685  -0.66483  -0.66175  -0.66151
 Alpha  occ. eigenvalues --   -0.65237  -0.64449  -0.64264  -0.64060  -0.63790
 Alpha  occ. eigenvalues --   -0.63562  -0.62835  -0.62431  -0.62375  -0.61886
 Alpha  occ. eigenvalues --   -0.61483  -0.61129  -0.60860  -0.60349  -0.59819
 Alpha  occ. eigenvalues --   -0.59583  -0.59276  -0.58693  -0.58399  -0.58177
 Alpha  occ. eigenvalues --   -0.57601  -0.57295  -0.56898  -0.56331  -0.56253
 Alpha  occ. eigenvalues --   -0.55576  -0.55415  -0.55280  -0.54850  -0.54538
 Alpha  occ. eigenvalues --   -0.54354  -0.54058  -0.53678  -0.53516  -0.53255
 Alpha  occ. eigenvalues --   -0.52878  -0.52531  -0.52231  -0.52100  -0.51677
 Alpha  occ. eigenvalues --   -0.51264  -0.50900  -0.50699  -0.50643  -0.50272
 Alpha  occ. eigenvalues --   -0.50176  -0.49436  -0.49224  -0.49090  -0.48682
 Alpha  occ. eigenvalues --   -0.48588  -0.48412  -0.48152  -0.47927  -0.47751
 Alpha  occ. eigenvalues --   -0.47672  -0.47402  -0.47267  -0.47053  -0.46699
 Alpha  occ. eigenvalues --   -0.46367  -0.46124  -0.46030  -0.45712  -0.45511
 Alpha  occ. eigenvalues --   -0.45426  -0.45039  -0.44903  -0.44736  -0.43914
 Alpha  occ. eigenvalues --   -0.43655  -0.43049  -0.42819  -0.42638  -0.42316
 Alpha  occ. eigenvalues --   -0.42223  -0.41839  -0.41321  -0.40036  -0.39168
 Alpha  occ. eigenvalues --   -0.38670  -0.37552  -0.35680  -0.35153  -0.34615
 Alpha  occ. eigenvalues --   -0.33659  -0.32673  -0.32418  -0.31621  -0.26293
 Alpha  occ. eigenvalues --   -0.22048
 Alpha virt. eigenvalues --   -0.08752  -0.01685  -0.00125   0.00715   0.01170
 Alpha virt. eigenvalues --    0.01666   0.02212   0.03053   0.03752   0.04744
 Alpha virt. eigenvalues --    0.06146   0.06932   0.07481   0.07987   0.08448

 Mulliken charges:
               1
     1  Mg   0.438065
     2  C   -0.063545
     3  C   -0.056561
     4  C   -0.093483
     5  C   -0.089612
     6  N   -0.270578
     7  C    0.145034
     8  C    0.007155
     9  C    0.012416
    10  C    0.090775
    11  C   -0.049492
    12  C   -0.016249
    13  C    0.010433
    14  C    0.470471
    15  O   -0.495756
    16  O   -0.278297
    17  N   -0.315610
    18  C    0.098250
    19  C    0.027289
    20  C   -0.058906
    21  C    0.130350
    22  C   -0.044309
    23  C    0.341627
    24  O   -0.516323
    25  C   -0.022464
    26  N   -0.266129
    27  C    0.122390
    28  C    0.004238
    29  C    0.001745
    30  C    0.141076
    31  C   -0.048845
    32  C   -0.023434
    33  C   -0.054333
    34  N   -0.313416
    35  C    0.090027
    36  C    0.025103
    37  C   -0.032954
    38  C    0.133437
    39  C   -0.035722
    40  C    0.336094
    41  O   -0.513470
    42  C    0.043077
    43  C    0.490461
    44  O   -0.505884
    45  O   -0.269045
    46  C    0.069932
    47  C    0.103349
    48  C   -0.104850
    49  C   -0.024515
    50  C   -0.044254
    51  C   -0.030388
    52  C   -0.026086
    53  C   -0.032658
    54  C   -0.019657
    55  C   -0.056628
    56  C   -0.039990
    57  C   -0.043004
    58  C   -0.033112
    59  C   -0.005902
    60  C   -0.068911
    61  C   -0.029852
    62  C   -0.052676
    63  C   -0.034794
    64  C   -0.005211
    65  C   -0.059553
    66  C   -0.069613
    67  H    0.029001
    68  H    0.024603
    69  H    0.021118
    70  H    0.037675
    71  H    0.027987
    72  H    0.033483
    73  H    0.023984
    74  H    0.012491
    75  H    0.022860
    76  H    0.025462
    77  H    0.036901
    78  H    0.037296
    79  H    0.041772
    80  H    0.032670
    81  H    0.009423
    82  H    0.020490
    83  H    0.050927
    84  H    0.035133
    85  H    0.025897
    86  H    0.029161
    87  H    0.020757
    88  H    0.020963
    89  H    0.019906
    90  H    0.023625
    91  H    0.015599
    92  H    0.016577
    93  H    0.019243
    94  H    0.024093
    95  H    0.034142
    96  H    0.031702
    97  H    0.029840
    98  H    0.053363
    99  H    0.023436
   100  H    0.053579
   101  H    0.041094
   102  H    0.032771
   103  H    0.060296
   104  H    0.032023
   105  H    0.031389
   106  H    0.036337
   107  H    0.038642
   108  H    0.014559
   109  H    0.021307
   110  H    0.029051
   111  H    0.020137
   112  H    0.028531
   113  H    0.018903
   114  H    0.011598
   115  H    0.020728
   116  H    0.018828
   117  H    0.014682
   118  H    0.028785
   119  H    0.010607
   120  H    0.017107
   121  H    0.019755
   122  H    0.026469
   123  H    0.018480
   124  H    0.032477
   125  H    0.007923
   126  H    0.023391
   127  H    0.012809
   128  H    0.017585
   129  H    0.025530
   130  H    0.004551
   131  H    0.033113
   132  H    0.024260
   133  H    0.007201
   134  H    0.026302
   135  H    0.015219
   136  H    0.018803
   137  H    0.013836
   138  H    0.014822
   139  H    0.034086
   140  H    0.014134
 Sum of Mulliken charges =  -0.00000

 Dipole moment (field-independent basis, Debye):
    X=             -0.1094    Y=             -2.2292    Z=              4.0886  Tot=              4.6581
 N-N= 4.492513342822D+03 E-N= 0.000000000000D+00  KE=-9.659052792481D+03
 Leave Link  601 at Wed May  4 07:45:53 2022, MaxMem=  6710886400 cpu:               0.8 elap:               0.0
 (Enter /sw/apps/gaussian-16.0/g16/l9999.exe)
 1\1\GINC-BP1-COMPUTE040\SP\RZINDO CIS\STO-3G\C55H74Mg1N4O6\OF15641\04-
 May-2022\0\\#p ZINDO=(nstates=5)\\step_1451_chromophore_23 ZINDO\\0,1\
 Mg,0,-9.097,40.777,42.197\C,0,-8.324,37.526,41.407\C,0,-6.374,41.82,40
 .415\C,0,-10.14,44.079,42.448\C,0,-12.183,39.815,43.293\N,0,-7.657,39.
 703,40.963\C,0,-7.503,38.423,40.705\C,0,-6.275,38.106,39.833\C,0,-5.64
 5,39.492,39.593\C,0,-6.561,40.423,40.418\C,0,-4.157,39.649,39.818\C,0,
 -6.477,37.203,38.592\C,0,-5.522,36.033,38.388\C,0,-4.538,36.18,37.184\

 Normal termination of Gaussian 16 at Wed May  4 07:45:54 2022.
