 Gaussian 16, Revision A.03,
 Gaussian 16:  ES64L-G16RevA.03 25-Dec-2016

 ------------------------------
 #p blyp/Def2SVP td=(nstates=5)
 ------------------------------

 --------------------------------------------------
 step_501_chromophore_24 TDDFT with blyp functional
 --------------------------------------------------
 Symbolic Z-matrix:
 Charge =  0 Multiplicity = 1

                         Standard orientation:
 ---------------------------------------------------------------------
 Center     Atomic      Atomic             Coordinates (Angstroms)
 Number     Number       Type             X           Y           Z
 ---------------------------------------------------------------------
      1         12           0        5.086441    0.946782    0.339901
      2          6           0        4.068494   -2.385325    0.051822
      3          6           0        1.804455    1.878422   -0.177160
      4          6           0        6.107754    4.175208   -0.090507
      5          6           0        8.376397   -0.123443    0.185672
      6          7           0        3.215916   -0.157771    0.079272
      7          6           0        3.026676   -1.476771    0.212465
      8          6           0        1.557947   -1.903478    0.350837
      9          6           0        0.812296   -0.539408    0.086786
     10          6           0        2.024940    0.548949    0.076852
     11          6           0       -0.060981   -0.445502   -1.182963
     12          6           0        1.208199   -2.561733    1.685641
     13          6           0        0.008354   -3.522008    1.594416
     14          6           0       -0.708186   -3.703017    0.248792
     15          8           0       -0.316532   -4.470277   -0.623112
     16          8           0       -1.973514   -3.066329    0.269528
     17          7           0        4.113417    2.790635    0.037349
     18          6           0        2.718198    2.982801   -0.088375
     19          6           0        2.464201    4.404112   -0.212405
     20          6           0        3.729780    5.099625   -0.255887
     21          6           0        4.718088    4.039018   -0.066144
     22          6           0        1.061129    4.945218   -0.190822
     23          6           0        4.052174    6.660488   -0.301915
     24          8           0        5.162729    7.120352   -0.191072
     25          6           0        2.871385    7.582674   -0.514907
     26          7           0        6.946454    1.872793   -0.008120
     27          6           0        7.138736    3.219062   -0.116189
     28          6           0        8.661517    3.596844   -0.230692
     29          6           0        9.320035    2.227653   -0.069945
     30          6           0        8.142144    1.277332    0.035291
     31          6           0        9.209148    4.468825   -1.431508
     32          6           0       10.223525    2.184266    1.184701
     33          6           0        9.575491    1.924094    2.562659
     34          7           0        6.120619   -0.874529    0.306250
     35          6           0        7.458955   -1.164901    0.245333
     36          6           0        7.682478   -2.571772    0.236458
     37          6           0        6.330846   -3.135639    0.150737
     38          6           0        5.487741   -2.093726    0.172514
     39          6           0        8.915234   -3.362162    0.257444
     40          6           0        5.553089   -4.350429   -0.050168
     41          8           0        5.914124   -5.532112   -0.059789
     42          6           0        4.050789   -3.946683   -0.118646
     43          6           0        3.435255   -4.383067   -1.367770
     44          8           0        3.555955   -3.839805   -2.460720
     45          8           0        2.881898   -5.625695   -1.186144
     46          6           0        2.570856   -6.466434   -2.358529
     47          6           0       -2.794955   -3.331520   -0.976647
     48          6           0       -4.092291   -2.529666   -0.789391
     49          6           0       -5.320146   -3.083038   -0.861285
     50          6           0       -5.598511   -4.442530   -1.469498
     51          6           0       -6.539595   -2.262100   -0.491463
     52          6           0       -7.121556   -2.540757    0.917506
     53          6           0       -7.150567   -1.325881    1.829349
     54          6           0       -8.515221   -1.165026    2.488495
     55          6           0       -8.665966   -2.178380    3.601900
     56          6           0       -8.729621    0.258616    3.011904
     57          6           0       -9.851483    1.007170    2.295538
     58          6           0       -9.299791    1.658339    1.022391
     59          6           0       -9.932368    1.096053   -0.298263
     60          6           0       -8.915405    1.142083   -1.421431
     61          6           0      -11.142037    1.921784   -0.613311
     62          6           0      -12.434731    1.254106   -0.215920
     63          6           0      -13.587772    1.541186   -1.198396
     64          6           0      -14.154188    3.058588   -1.003843
     65          6           0      -15.692452    2.995113   -0.683378
     66          6           0      -13.767737    3.965314   -2.231297
     67          1           0        0.748092    2.078152   -0.369709
     68          1           0        6.441024    5.213968   -0.042532
     69          1           0        9.411809   -0.466794    0.234770
     70          1           0        1.243788   -2.534966   -0.479895
     71          1           0        0.240835   -0.185708    0.944197
     72          1           0       -1.000701   -0.107662   -0.746412
     73          1           0       -0.175094   -1.425545   -1.645594
     74          1           0        0.379972    0.247313   -1.899773
     75          1           0        1.020159   -1.827123    2.467710
     76          1           0        2.056045   -3.141275    2.051848
     77          1           0       -0.655699   -3.079871    2.337435
     78          1           0        0.238888   -4.502337    2.013887
     79          1           0        0.412722    4.072669   -0.271191
     80          1           0        0.930960    5.628311   -1.030461
     81          1           0        0.834710    5.508977    0.715415
     82          1           0        2.455279    7.633058   -1.521623
     83          1           0        3.157310    8.572708   -0.159704
     84          1           0        2.137905    7.165823    0.175181
     85          1           0        8.780099    4.222160    0.653898
     86          1           0        9.904205    2.061404   -0.974326
     87          1           0       10.097467    4.067294   -1.917690
     88          1           0        9.514113    5.435997   -1.033179
     89          1           0        8.381641    4.635779   -2.121686
     90          1           0       10.751514    3.137071    1.189675
     91          1           0       10.960972    1.411735    0.964856
     92          1           0       10.085752    2.612265    3.236087
     93          1           0        9.756374    0.918702    2.942186
     94          1           0        8.490512    2.021704    2.575005
     95          1           0        8.756521   -4.201430    0.933700
     96          1           0        9.815000   -2.824549    0.556755
     97          1           0        9.045939   -3.870717   -0.697918
     98          1           0        3.610835   -4.425071    0.756261
     99          1           0        2.774866   -5.953495   -3.299053
    100          1           0        1.503692   -6.688162   -2.332031
    101          1           0        3.230542   -7.315138   -2.181394
    102          1           0       -2.979919   -4.404647   -1.028759
    103          1           0       -2.287397   -2.964118   -1.868399
    104          1           0       -4.051458   -1.552709   -0.307614
    105          1           0       -5.104147   -4.328862   -2.434210
    106          1           0       -6.653892   -4.594961   -1.693897
    107          1           0       -5.219421   -5.267930   -0.866950
    108          1           0       -7.349046   -2.248894   -1.221145
    109          1           0       -6.288354   -1.203648   -0.416241
    110          1           0       -6.530708   -3.332380    1.377039
    111          1           0       -8.075785   -3.032608    0.728203
    112          1           0       -6.987536   -0.372120    1.328260
    113          1           0       -6.361112   -1.482986    2.564550
    114          1           0       -9.225889   -1.373421    1.688926
    115          1           0       -8.080892   -3.095270    3.523268
    116          1           0       -9.718046   -2.445118    3.707186
    117          1           0       -8.232826   -1.748616    4.504468
    118          1           0       -7.830837    0.874249    3.034962
    119          1           0       -9.059067    0.250502    4.051770
    120          1           0      -10.147678    1.881314    2.874694
    121          1           0      -10.681174    0.325484    2.104470
    122          1           0       -8.214444    1.554690    1.018785
    123          1           0       -9.559472    2.714160    0.944196
    124          1           0      -10.134498    0.033594   -0.170652
    125          1           0       -8.558351    2.159629   -1.578596
    126          1           0       -9.402118    0.982440   -2.383815
    127          1           0       -8.089700    0.458270   -1.220860
    128          1           0      -11.165825    2.184628   -1.671077
    129          1           0      -11.237236    2.901765   -0.146370
    130          1           0      -12.605878    1.483329    0.836556
    131          1           0      -12.394302    0.166310   -0.145897
    132          1           0      -14.347140    0.772433   -1.056936
    133          1           0      -13.207042    1.289050   -2.188804
    134          1           0      -13.722591    3.458108   -0.086413
    135          1           0      -16.206039    3.741136   -1.290722
    136          1           0      -15.823127    3.205236    0.377765
    137          1           0      -16.262821    2.073659   -0.797969
    138          1           0      -14.606833    4.102682   -2.913515
    139          1           0      -12.899455    3.614063   -2.788412
    140          1           0      -13.389889    4.946671   -1.945230
 ---------------------------------------------------------------------

 SCF Done:  E(RB-LYP) =  -3007.39443626     A.U. after   21 cycles

 Excitation energies and oscillator strengths:

 Excited State   1:      Singlet-A      1.8245 eV  679.54 nm  f=0.3089  <S**2>=0.000
     245 -> 248       -0.18800
     246 -> 247        0.68722
     246 <- 247       -0.15068
 This state for optimization and/or second-order correction.
 Total Energy, E(TD-HF/TD-DFT) =  -3007.32738581
 Copying the excited state density for this state as the 1-particle RhoCI density.

 Excited State   2:      Singlet-A      1.9434 eV  637.97 nm  f=0.0331  <S**2>=0.000
     244 -> 247        0.57273
     245 -> 247       -0.38648
     246 -> 248       -0.10476

 Excited State   3:      Singlet-A      1.9487 eV  636.24 nm  f=0.0663  <S**2>=0.000
     244 -> 247        0.41374
     245 -> 247        0.53583
     246 -> 248        0.14977

 Excited State   4:      Singlet-A      2.1731 eV  570.55 nm  f=0.0006  <S**2>=0.000
     242 -> 247       -0.31258
     243 -> 247        0.63183

 Excited State   5:      Singlet-A      2.3363 eV  530.68 nm  f=0.0081  <S**2>=0.000
     241 -> 247       -0.10106
     242 -> 247        0.61145
     243 -> 247        0.30731

 The electronic state is 1-A.
 Alpha  occ. eigenvalues --  -46.26639 -18.82477 -18.80076 -18.77999 -18.76491
 Alpha  occ. eigenvalues --  -18.75328 -18.75151 -14.03162 -14.03056 -14.00771
 Alpha  occ. eigenvalues --  -13.99790 -10.04880 -10.02494 -10.00718  -9.99490
 Alpha  occ. eigenvalues --   -9.98465  -9.96230  -9.96227  -9.96225  -9.96200
 Alpha  occ. eigenvalues --   -9.96187  -9.95723  -9.95304  -9.94639  -9.93834
 Alpha  occ. eigenvalues --   -9.93823  -9.93667  -9.93654  -9.93603  -9.93578
 Alpha  occ. eigenvalues --   -9.93562  -9.93460  -9.93387  -9.93345  -9.93234
 Alpha  occ. eigenvalues --   -9.93099  -9.92955  -9.92944  -9.92912  -9.92855
 Alpha  occ. eigenvalues --   -9.92660  -9.92544  -9.92247  -9.92178  -9.92104
 Alpha  occ. eigenvalues --   -9.92031  -9.92017  -9.91940  -9.91870  -9.91805
 Alpha  occ. eigenvalues --   -9.91766  -9.91613  -9.91582  -9.91375  -9.91323
 Alpha  occ. eigenvalues --   -9.91262  -9.91236  -9.91052  -9.90957  -9.90894
 Alpha  occ. eigenvalues --   -9.90850  -9.90692  -9.90666  -9.90599  -9.90578
 Alpha  occ. eigenvalues --   -9.90448  -2.91262  -1.71684  -1.71136  -1.70982
 Alpha  occ. eigenvalues --   -0.96624  -0.95698  -0.92902  -0.90273  -0.89832
 Alpha  occ. eigenvalues --   -0.87919  -0.86573  -0.85595  -0.84830  -0.83369
 Alpha  occ. eigenvalues --   -0.74773  -0.74547  -0.73646  -0.73030  -0.72585
 Alpha  occ. eigenvalues --   -0.72375  -0.71311  -0.70374  -0.70299  -0.69745
 Alpha  occ. eigenvalues --   -0.69461  -0.68878  -0.68336  -0.67134  -0.66834
 Alpha  occ. eigenvalues --   -0.66465  -0.65664  -0.65408  -0.64949  -0.64549
 Alpha  occ. eigenvalues --   -0.64120  -0.62304  -0.62139  -0.61450  -0.60797
 Alpha  occ. eigenvalues --   -0.60283  -0.60185  -0.59744  -0.59700  -0.58834
 Alpha  occ. eigenvalues --   -0.58201  -0.57320  -0.56110  -0.55731  -0.55042
 Alpha  occ. eigenvalues --   -0.53775  -0.53386  -0.52276  -0.51970  -0.51100
 Alpha  occ. eigenvalues --   -0.50814  -0.50633  -0.50195  -0.50193  -0.49689
 Alpha  occ. eigenvalues --   -0.49602  -0.49383  -0.49058  -0.47196  -0.46516
 Alpha  occ. eigenvalues --   -0.45923  -0.45641  -0.45241  -0.44613  -0.44281
 Alpha  occ. eigenvalues --   -0.43854  -0.43241  -0.43073  -0.42643  -0.42295
 Alpha  occ. eigenvalues --   -0.42073  -0.41637  -0.41509  -0.41469  -0.40943
 Alpha  occ. eigenvalues --   -0.40592  -0.40384  -0.40132  -0.40077  -0.39795
 Alpha  occ. eigenvalues --   -0.39591  -0.39569  -0.39349  -0.39088  -0.39067
 Alpha  occ. eigenvalues --   -0.38958  -0.38527  -0.38440  -0.38307  -0.38077
 Alpha  occ. eigenvalues --   -0.37762  -0.37645  -0.37412  -0.37317  -0.37119
 Alpha  occ. eigenvalues --   -0.36978  -0.36892  -0.36613  -0.36484  -0.36435
 Alpha  occ. eigenvalues --   -0.36208  -0.36078  -0.35960  -0.35930  -0.35746
 Alpha  occ. eigenvalues --   -0.35429  -0.35012  -0.34867  -0.34720  -0.34506
 Alpha  occ. eigenvalues --   -0.34392  -0.34178  -0.34151  -0.33917  -0.33781
 Alpha  occ. eigenvalues --   -0.33494  -0.33276  -0.33204  -0.33100  -0.32901
 Alpha  occ. eigenvalues --   -0.32713  -0.32606  -0.32582  -0.32393  -0.32137
 Alpha  occ. eigenvalues --   -0.32002  -0.31941  -0.31827  -0.31641  -0.31425
 Alpha  occ. eigenvalues --   -0.31256  -0.31051  -0.31026  -0.30841  -0.30784
 Alpha  occ. eigenvalues --   -0.30596  -0.30401  -0.30278  -0.30125  -0.29909
 Alpha  occ. eigenvalues --   -0.29592  -0.29462  -0.29277  -0.28847  -0.28774
 Alpha  occ. eigenvalues --   -0.28384  -0.28353  -0.27975  -0.27852  -0.27633
 Alpha  occ. eigenvalues --   -0.27471  -0.27419  -0.27281  -0.27135  -0.26291
 Alpha  occ. eigenvalues --   -0.26162  -0.26152  -0.26008  -0.25773  -0.25196
 Alpha  occ. eigenvalues --   -0.25124  -0.24244  -0.23804  -0.23421  -0.23365
 Alpha  occ. eigenvalues --   -0.23236  -0.22606  -0.21599  -0.20695  -0.20636
 Alpha  occ. eigenvalues --   -0.20101  -0.19386  -0.19374  -0.18525  -0.16747
 Alpha  occ. eigenvalues --   -0.15769
 Alpha virt. eigenvalues --   -0.11475  -0.06523  -0.05748  -0.04391  -0.04360
 Alpha virt. eigenvalues --   -0.02836  -0.02230  -0.01616  -0.01005   0.00216
 Alpha virt. eigenvalues --    0.01429   0.02182   0.02237   0.02427   0.02665

 Mulliken charges:
               1
     1  Mg   0.691983
     2  C    0.025439
     3  C   -0.054415
     4  C   -0.046764
     5  C   -0.086799
     6  N   -0.217507
     7  C   -0.079991
     8  C    0.001178
     9  C   -0.064162
    10  C    0.022769
    11  C    0.134267
    12  C    0.135209
    13  C    0.158089
    14  C    0.091236
    15  O   -0.192446
    16  O   -0.306994
    17  N   -0.314399
    18  C    0.141711
    19  C   -0.149903
    20  C    0.005385
    21  C    0.083372
    22  C    0.165551
    23  C   -0.046002
    24  O   -0.135765
    25  C    0.118766
    26  N   -0.193808
    27  C    0.001808
    28  C    0.013911
    29  C    0.059300
    30  C    0.016383
    31  C    0.130353
    32  C    0.055959
    33  C    0.086175
    34  N   -0.273420
    35  C    0.131240
    36  C   -0.154816
    37  C    0.089479
    38  C    0.065613
    39  C    0.183398
    40  C   -0.081913
    41  O   -0.145447
    42  C    0.089532
    43  C    0.126624
    44  O   -0.191455
    45  O   -0.278367
    46  C    0.204645
    47  C    0.305741
    48  C   -0.070170
    49  C   -0.173558
    50  C    0.145680
    51  C    0.097250
    52  C    0.073322
    53  C    0.101210
    54  C   -0.070574
    55  C    0.123528
    56  C    0.119292
    57  C    0.085145
    58  C    0.095481
    59  C   -0.069785
    60  C    0.100930
    61  C    0.141748
    62  C    0.016786
    63  C    0.110735
    64  C   -0.057511
    65  C    0.083542
    66  C    0.097049
    67  H   -0.055504
    68  H   -0.048919
    69  H   -0.078519
    70  H    0.015008
    71  H   -0.027335
    72  H   -0.001182
    73  H    0.007749
    74  H    0.006995
    75  H   -0.027254
    76  H   -0.024363
    77  H   -0.023378
    78  H    0.004940
    79  H   -0.023994
    80  H   -0.000765
    81  H    0.019832
    82  H    0.032166
    83  H   -0.007648
    84  H   -0.013763
    85  H   -0.020414
    86  H   -0.028565
    87  H   -0.005294
    88  H   -0.010776
    89  H    0.003967
    90  H   -0.023070
    91  H   -0.021475
    92  H   -0.007456
    93  H   -0.009497
    94  H    0.006190
    95  H    0.002497
    96  H   -0.012145
    97  H    0.007143
    98  H    0.000106
    99  H    0.020148
   100  H    0.023154
   101  H    0.027149
   102  H   -0.000638
   103  H    0.013942
   104  H   -0.033566
   105  H    0.012100
   106  H   -0.015926
   107  H    0.020146
   108  H   -0.020716
   109  H   -0.027453
   110  H   -0.031430
   111  H   -0.029834
   112  H   -0.028748
   113  H   -0.031618
   114  H   -0.034718
   115  H   -0.027818
   116  H   -0.014083
   117  H   -0.022762
   118  H   -0.038400
   119  H   -0.049559
   120  H   -0.042355
   121  H   -0.014123
   122  H   -0.043263
   123  H   -0.047545
   124  H   -0.035964
   125  H   -0.032476
   126  H   -0.026980
   127  H   -0.011351
   128  H   -0.050791
   129  H   -0.036122
   130  H   -0.033782
   131  H   -0.045900
   132  H   -0.043633
   133  H   -0.032291
   134  H   -0.019870
   135  H   -0.019876
   136  H   -0.018743
   137  H   -0.011269
   138  H   -0.009400
   139  H   -0.017087
   140  H   -0.022671
 Sum of Mulliken charges =  -0.00000

 Dipole moment (field-independent basis, Debye):
    X=             -4.3287    Y=              1.9850    Z=              2.5553  Tot=              5.4044
 Quadrupole moment (field-independent basis, Debye-Ang):
   XX=           -375.3407   YY=           -427.2719   ZZ=           -404.5413
   XY=             18.5542   XZ=             11.6636   YZ=             -2.2536

 Normal termination of Gaussian 16 at Fri Apr 29 23:16:41 2022.
