 Gaussian 16, Revision A.03,
 Gaussian 16:  ES64L-G16RevA.03 25-Dec-2016

 -----------------------------------
 #p cam-b3lyp/Def2SVP td=(nstates=5)
 -----------------------------------

 -------------------------------------------------------
 step_501_chromophore_24 TDDFT with cam-b3lyp functional
 -------------------------------------------------------
 Symbolic Z-matrix:
 Charge =  0 Multiplicity = 1

                         Standard orientation:
 ---------------------------------------------------------------------
 Center     Atomic      Atomic             Coordinates (Angstroms)
 Number     Number       Type             X           Y           Z
 ---------------------------------------------------------------------
      1         12           0        5.086441    0.946782    0.339901
      2          6           0        4.068494   -2.385325    0.051822
      3          6           0        1.804455    1.878422   -0.177160
      4          6           0        6.107754    4.175208   -0.090507
      5          6           0        8.376397   -0.123443    0.185672
      6          7           0        3.215916   -0.157771    0.079272
      7          6           0        3.026676   -1.476771    0.212465
      8          6           0        1.557947   -1.903478    0.350837
      9          6           0        0.812296   -0.539408    0.086786
     10          6           0        2.024940    0.548949    0.076852
     11          6           0       -0.060981   -0.445502   -1.182963
     12          6           0        1.208199   -2.561733    1.685641
     13          6           0        0.008354   -3.522008    1.594416
     14          6           0       -0.708186   -3.703017    0.248792
     15          8           0       -0.316532   -4.470277   -0.623112
     16          8           0       -1.973514   -3.066329    0.269528
     17          7           0        4.113417    2.790635    0.037349
     18          6           0        2.718198    2.982801   -0.088375
     19          6           0        2.464201    4.404112   -0.212405
     20          6           0        3.729780    5.099625   -0.255887
     21          6           0        4.718088    4.039018   -0.066144
     22          6           0        1.061129    4.945218   -0.190822
     23          6           0        4.052174    6.660488   -0.301915
     24          8           0        5.162729    7.120352   -0.191072
     25          6           0        2.871385    7.582674   -0.514907
     26          7           0        6.946454    1.872793   -0.008120
     27          6           0        7.138736    3.219062   -0.116189
     28          6           0        8.661517    3.596844   -0.230692
     29          6           0        9.320035    2.227653   -0.069945
     30          6           0        8.142144    1.277332    0.035291
     31          6           0        9.209148    4.468825   -1.431508
     32          6           0       10.223525    2.184266    1.184701
     33          6           0        9.575491    1.924094    2.562659
     34          7           0        6.120619   -0.874529    0.306250
     35          6           0        7.458955   -1.164901    0.245333
     36          6           0        7.682478   -2.571772    0.236458
     37          6           0        6.330846   -3.135639    0.150737
     38          6           0        5.487741   -2.093726    0.172514
     39          6           0        8.915234   -3.362162    0.257444
     40          6           0        5.553089   -4.350429   -0.050168
     41          8           0        5.914124   -5.532112   -0.059789
     42          6           0        4.050789   -3.946683   -0.118646
     43          6           0        3.435255   -4.383067   -1.367770
     44          8           0        3.555955   -3.839805   -2.460720
     45          8           0        2.881898   -5.625695   -1.186144
     46          6           0        2.570856   -6.466434   -2.358529
     47          6           0       -2.794955   -3.331520   -0.976647
     48          6           0       -4.092291   -2.529666   -0.789391
     49          6           0       -5.320146   -3.083038   -0.861285
     50          6           0       -5.598511   -4.442530   -1.469498
     51          6           0       -6.539595   -2.262100   -0.491463
     52          6           0       -7.121556   -2.540757    0.917506
     53          6           0       -7.150567   -1.325881    1.829349
     54          6           0       -8.515221   -1.165026    2.488495
     55          6           0       -8.665966   -2.178380    3.601900
     56          6           0       -8.729621    0.258616    3.011904
     57          6           0       -9.851483    1.007170    2.295538
     58          6           0       -9.299791    1.658339    1.022391
     59          6           0       -9.932368    1.096053   -0.298263
     60          6           0       -8.915405    1.142083   -1.421431
     61          6           0      -11.142037    1.921784   -0.613311
     62          6           0      -12.434731    1.254106   -0.215920
     63          6           0      -13.587772    1.541186   -1.198396
     64          6           0      -14.154188    3.058588   -1.003843
     65          6           0      -15.692452    2.995113   -0.683378
     66          6           0      -13.767737    3.965314   -2.231297
     67          1           0        0.748092    2.078152   -0.369709
     68          1           0        6.441024    5.213968   -0.042532
     69          1           0        9.411809   -0.466794    0.234770
     70          1           0        1.243788   -2.534966   -0.479895
     71          1           0        0.240835   -0.185708    0.944197
     72          1           0       -1.000701   -0.107662   -0.746412
     73          1           0       -0.175094   -1.425545   -1.645594
     74          1           0        0.379972    0.247313   -1.899773
     75          1           0        1.020159   -1.827123    2.467710
     76          1           0        2.056045   -3.141275    2.051848
     77          1           0       -0.655699   -3.079871    2.337435
     78          1           0        0.238888   -4.502337    2.013887
     79          1           0        0.412722    4.072669   -0.271191
     80          1           0        0.930960    5.628311   -1.030461
     81          1           0        0.834710    5.508977    0.715415
     82          1           0        2.455279    7.633058   -1.521623
     83          1           0        3.157310    8.572708   -0.159704
     84          1           0        2.137905    7.165823    0.175181
     85          1           0        8.780099    4.222160    0.653898
     86          1           0        9.904205    2.061404   -0.974326
     87          1           0       10.097467    4.067294   -1.917690
     88          1           0        9.514113    5.435997   -1.033179
     89          1           0        8.381641    4.635779   -2.121686
     90          1           0       10.751514    3.137071    1.189675
     91          1           0       10.960972    1.411735    0.964856
     92          1           0       10.085752    2.612265    3.236087
     93          1           0        9.756374    0.918702    2.942186
     94          1           0        8.490512    2.021704    2.575005
     95          1           0        8.756521   -4.201430    0.933700
     96          1           0        9.815000   -2.824549    0.556755
     97          1           0        9.045939   -3.870717   -0.697918
     98          1           0        3.610835   -4.425071    0.756261
     99          1           0        2.774866   -5.953495   -3.299053
    100          1           0        1.503692   -6.688162   -2.332031
    101          1           0        3.230542   -7.315138   -2.181394
    102          1           0       -2.979919   -4.404647   -1.028759
    103          1           0       -2.287397   -2.964118   -1.868399
    104          1           0       -4.051458   -1.552709   -0.307614
    105          1           0       -5.104147   -4.328862   -2.434210
    106          1           0       -6.653892   -4.594961   -1.693897
    107          1           0       -5.219421   -5.267930   -0.866950
    108          1           0       -7.349046   -2.248894   -1.221145
    109          1           0       -6.288354   -1.203648   -0.416241
    110          1           0       -6.530708   -3.332380    1.377039
    111          1           0       -8.075785   -3.032608    0.728203
    112          1           0       -6.987536   -0.372120    1.328260
    113          1           0       -6.361112   -1.482986    2.564550
    114          1           0       -9.225889   -1.373421    1.688926
    115          1           0       -8.080892   -3.095270    3.523268
    116          1           0       -9.718046   -2.445118    3.707186
    117          1           0       -8.232826   -1.748616    4.504468
    118          1           0       -7.830837    0.874249    3.034962
    119          1           0       -9.059067    0.250502    4.051770
    120          1           0      -10.147678    1.881314    2.874694
    121          1           0      -10.681174    0.325484    2.104470
    122          1           0       -8.214444    1.554690    1.018785
    123          1           0       -9.559472    2.714160    0.944196
    124          1           0      -10.134498    0.033594   -0.170652
    125          1           0       -8.558351    2.159629   -1.578596
    126          1           0       -9.402118    0.982440   -2.383815
    127          1           0       -8.089700    0.458270   -1.220860
    128          1           0      -11.165825    2.184628   -1.671077
    129          1           0      -11.237236    2.901765   -0.146370
    130          1           0      -12.605878    1.483329    0.836556
    131          1           0      -12.394302    0.166310   -0.145897
    132          1           0      -14.347140    0.772433   -1.056936
    133          1           0      -13.207042    1.289050   -2.188804
    134          1           0      -13.722591    3.458108   -0.086413
    135          1           0      -16.206039    3.741136   -1.290722
    136          1           0      -15.823127    3.205236    0.377765
    137          1           0      -16.262821    2.073659   -0.797969
    138          1           0      -14.606833    4.102682   -2.913515
    139          1           0      -12.899455    3.614063   -2.788412
    140          1           0      -13.389889    4.946671   -1.945230
 ---------------------------------------------------------------------

 SCF Done:  E(RCAM-B3LYP) =  -3007.18597500     A.U. after   17 cycles

 Excitation energies and oscillator strengths:

 Excited State   1:      Singlet-A      1.7175 eV  721.88 nm  f=0.4002  <S**2>=0.000
     245 -> 248        0.18167
     246 -> 247        0.68387
     245 <- 248        0.10672
 This state for optimization and/or second-order correction.
 Total Energy, E(TD-HF/TD-DFT) =  -3007.12285770
 Copying the excited state density for this state as the 1-particle RhoCI density.

 Excited State   2:      Singlet-A      2.1336 eV  581.09 nm  f=0.1703  <S**2>=0.000
     245 -> 247        0.65945
     246 -> 248       -0.23516

 Excited State   3:      Singlet-A      3.0772 eV  402.92 nm  f=0.0069  <S**2>=0.000
     243 -> 247       -0.11061
     244 -> 247        0.68387

 Excited State   4:      Singlet-A      3.3454 eV  370.61 nm  f=0.0074  <S**2>=0.000
     243 -> 247        0.67807
     246 -> 248        0.11291

 Excited State   5:      Singlet-A      3.5188 eV  352.35 nm  f=0.0003  <S**2>=0.000
     241 -> 247        0.58794
     241 -> 249       -0.30092
     241 -> 250       -0.13955
     241 -> 251        0.15125

 The electronic state is 1-A.
 Alpha  occ. eigenvalues --  -46.88129 -19.25329 -19.22902 -19.21001 -19.19845
 Alpha  occ. eigenvalues --  -19.18439 -19.18224 -14.42156 -14.41805 -14.39312
 Alpha  occ. eigenvalues --  -14.38022 -10.40276 -10.37947 -10.36089 -10.34800
 Alpha  occ. eigenvalues --  -10.32635 -10.30783 -10.30757 -10.30671 -10.30560
 Alpha  occ. eigenvalues --  -10.30185 -10.30107 -10.29744 -10.28727 -10.28454
 Alpha  occ. eigenvalues --  -10.28114 -10.28009 -10.27748 -10.27742 -10.27667
 Alpha  occ. eigenvalues --  -10.27587 -10.27537 -10.27472 -10.27453 -10.27421
 Alpha  occ. eigenvalues --  -10.27316 -10.27018 -10.26924 -10.26856 -10.26811
 Alpha  occ. eigenvalues --  -10.26469 -10.26296 -10.26254 -10.26243 -10.25890
 Alpha  occ. eigenvalues --  -10.25886 -10.25793 -10.25726 -10.25658 -10.25582
 Alpha  occ. eigenvalues --  -10.25413 -10.25385 -10.25236 -10.25054 -10.24994
 Alpha  occ. eigenvalues --  -10.24943 -10.24864 -10.24676 -10.24589 -10.24565
 Alpha  occ. eigenvalues --  -10.24475 -10.24451 -10.24310 -10.24297 -10.24267
 Alpha  occ. eigenvalues --  -10.24073  -3.16654  -1.91554  -1.91107  -1.90959
 Alpha  occ. eigenvalues --   -1.15035  -1.14186  -1.11485  -1.08582  -1.07606
 Alpha  occ. eigenvalues --   -1.05792  -1.04329  -1.03226  -1.02325  -1.00901
 Alpha  occ. eigenvalues --   -0.91846  -0.91455  -0.90499  -0.89827  -0.89317
 Alpha  occ. eigenvalues --   -0.89077  -0.88018  -0.86995  -0.86834  -0.86334
 Alpha  occ. eigenvalues --   -0.85950  -0.85202  -0.84647  -0.83329  -0.82980
 Alpha  occ. eigenvalues --   -0.82545  -0.81874  -0.81358  -0.80898  -0.80286
 Alpha  occ. eigenvalues --   -0.79871  -0.78021  -0.77766  -0.76961  -0.76166
 Alpha  occ. eigenvalues --   -0.75643  -0.75530  -0.75053  -0.74990  -0.74042
 Alpha  occ. eigenvalues --   -0.73254  -0.72312  -0.70983  -0.70554  -0.69692
 Alpha  occ. eigenvalues --   -0.68338  -0.67979  -0.66669  -0.66375  -0.65292
 Alpha  occ. eigenvalues --   -0.65017  -0.64630  -0.64329  -0.64233  -0.63674
 Alpha  occ. eigenvalues --   -0.63510  -0.63309  -0.62778  -0.60868  -0.60081
 Alpha  occ. eigenvalues --   -0.59600  -0.59108  -0.58754  -0.58061  -0.57659
 Alpha  occ. eigenvalues --   -0.57295  -0.56556  -0.56141  -0.55744  -0.55220
 Alpha  occ. eigenvalues --   -0.55088  -0.54795  -0.54565  -0.54477  -0.53765
 Alpha  occ. eigenvalues --   -0.53503  -0.53217  -0.52855  -0.52640  -0.52573
 Alpha  occ. eigenvalues --   -0.52267  -0.52156  -0.52004  -0.51827  -0.51666
 Alpha  occ. eigenvalues --   -0.51448  -0.51338  -0.50945  -0.50798  -0.50542
 Alpha  occ. eigenvalues --   -0.50363  -0.50021  -0.49764  -0.49592  -0.49549
 Alpha  occ. eigenvalues --   -0.49323  -0.49194  -0.49032  -0.48905  -0.48712
 Alpha  occ. eigenvalues --   -0.48438  -0.48363  -0.48050  -0.48015  -0.47942
 Alpha  occ. eigenvalues --   -0.47764  -0.47227  -0.46789  -0.46735  -0.46319
 Alpha  occ. eigenvalues --   -0.46288  -0.45965  -0.45949  -0.45667  -0.45615
 Alpha  occ. eigenvalues --   -0.45416  -0.45140  -0.44992  -0.44770  -0.44685
 Alpha  occ. eigenvalues --   -0.44385  -0.44269  -0.44157  -0.44021  -0.43871
 Alpha  occ. eigenvalues --   -0.43733  -0.43499  -0.43421  -0.43195  -0.42952
 Alpha  occ. eigenvalues --   -0.42855  -0.42791  -0.42654  -0.42320  -0.42130
 Alpha  occ. eigenvalues --   -0.42077  -0.41791  -0.41502  -0.41456  -0.41045
 Alpha  occ. eigenvalues --   -0.40978  -0.40531  -0.40365  -0.40173  -0.39956
 Alpha  occ. eigenvalues --   -0.39762  -0.39340  -0.39291  -0.38898  -0.38491
 Alpha  occ. eigenvalues --   -0.38414  -0.38319  -0.38273  -0.38044  -0.37604
 Alpha  occ. eigenvalues --   -0.37375  -0.36812  -0.36800  -0.36498  -0.36036
 Alpha  occ. eigenvalues --   -0.35690  -0.34964  -0.34703  -0.34461  -0.34220
 Alpha  occ. eigenvalues --   -0.33820  -0.33206  -0.32992  -0.31505  -0.30752
 Alpha  occ. eigenvalues --   -0.30528  -0.30358  -0.29485  -0.28497  -0.23377
 Alpha  occ. eigenvalues --   -0.21196
 Alpha virt. eigenvalues --   -0.08781  -0.01198   0.00768   0.02639   0.02718
 Alpha virt. eigenvalues --    0.03363   0.04584   0.05918   0.06333   0.07340
 Alpha virt. eigenvalues --    0.08167   0.08487   0.08666   0.08926   0.09179

 Mulliken charges:
               1
     1  Mg   0.822953
     2  C    0.004766
     3  C   -0.074956
     4  C   -0.064302
     5  C   -0.085032
     6  N   -0.287699
     7  C   -0.034607
     8  C   -0.063474
     9  C   -0.105426
    10  C    0.046204
    11  C    0.073854
    12  C    0.089628
    13  C    0.090480
    14  C    0.162489
    15  O   -0.230887
    16  O   -0.370929
    17  N   -0.398834
    18  C    0.148376
    19  C   -0.158393
    20  C   -0.054947
    21  C    0.106681
    22  C    0.108040
    23  C    0.034970
    24  O   -0.176102
    25  C    0.039607
    26  N   -0.264132
    27  C    0.020478
    28  C   -0.037381
    29  C    0.004203
    30  C    0.027064
    31  C    0.071360
    32  C    0.003330
    33  C    0.023148
    34  N   -0.363463
    35  C    0.131117
    36  C   -0.149544
    37  C    0.008381
    38  C    0.100850
    39  C    0.128447
    40  C    0.019119
    41  O   -0.184167
    42  C    0.009582
    43  C    0.216820
    44  O   -0.229297
    45  O   -0.342361
    46  C    0.168609
    47  C    0.273772
    48  C   -0.089887
    49  C   -0.188625
    50  C    0.077034
    51  C    0.039767
    52  C    0.019530
    53  C    0.050874
    54  C   -0.126955
    55  C    0.063235
    56  C    0.059398
    57  C    0.030079
    58  C    0.044591
    59  C   -0.128064
    60  C    0.051390
    61  C    0.083775
    62  C   -0.032171
    63  C    0.057123
    64  C   -0.120817
    65  C    0.027885
    66  C    0.039313
    67  H   -0.022186
    68  H   -0.007535
    69  H   -0.041696
    70  H    0.045452
    71  H    0.007036
    72  H    0.021436
    73  H    0.027860
    74  H    0.033759
    75  H    0.004329
    76  H    0.006414
    77  H    0.013496
    78  H    0.037820
    79  H    0.003831
    80  H    0.024875
    81  H    0.044906
    82  H    0.059423
    83  H    0.026970
    84  H    0.011506
    85  H    0.013820
    86  H    0.008329
    87  H    0.018759
    88  H    0.013584
    89  H    0.029144
    90  H    0.005210
    91  H    0.006309
    92  H    0.016824
    93  H    0.014946
    94  H    0.026937
    95  H    0.029746
    96  H    0.012200
    97  H    0.034690
    98  H    0.042154
    99  H    0.046191
   100  H    0.044169
   101  H    0.048758
   102  H    0.029036
   103  H    0.039492
   104  H   -0.000148
   105  H    0.036136
   106  H    0.011504
   107  H    0.043603
   108  H    0.007824
   109  H   -0.000056
   110  H   -0.001792
   111  H   -0.001533
   112  H   -0.005522
   113  H   -0.001978
   114  H   -0.005878
   115  H   -0.002186
   116  H    0.010817
   117  H    0.001802
   118  H   -0.007944
   119  H   -0.016517
   120  H   -0.010394
   121  H    0.010295
   122  H   -0.015891
   123  H   -0.016961
   124  H   -0.007087
   125  H   -0.007905
   126  H   -0.001271
   127  H    0.006839
   128  H   -0.022478
   129  H   -0.007857
   130  H   -0.007097
   131  H   -0.016747
   132  H   -0.013167
   133  H   -0.004017
   134  H    0.010314
   135  H    0.003570
   136  H    0.004815
   137  H    0.012051
   138  H    0.013991
   139  H    0.004910
   140  H    0.002090
 Sum of Mulliken charges =  -0.00000

 Dipole moment (field-independent basis, Debye):
    X=             -4.5515    Y=              2.5550    Z=              2.6155  Tot=              5.8382
 Quadrupole moment (field-independent basis, Debye-Ang):
   XX=           -374.4352   YY=           -423.0927   ZZ=           -404.3765
   XY=             20.1675   XZ=             12.4241   YZ=             -2.5817

 Normal termination of Gaussian 16 at Fri Apr 29 22:20:19 2022.
