 Gaussian 16, Revision A.03,
 Gaussian 16:  ES64L-G16RevA.03 25-Dec-2016

 ---------------------------------
 #p PBE1PBE/Def2SVP td=(nstates=5)
 ---------------------------------

 -----------------------------------------------------
 step_501_chromophore_24 TDDFT with PBE1PBE functional
 -----------------------------------------------------
 Symbolic Z-matrix:
 Charge =  0 Multiplicity = 1

                         Standard orientation:
 ---------------------------------------------------------------------
 Center     Atomic      Atomic             Coordinates (Angstroms)
 Number     Number       Type             X           Y           Z
 ---------------------------------------------------------------------
      1         12           0        5.086441    0.946782    0.339901
      2          6           0        4.068494   -2.385325    0.051822
      3          6           0        1.804455    1.878422   -0.177160
      4          6           0        6.107754    4.175208   -0.090507
      5          6           0        8.376397   -0.123443    0.185672
      6          7           0        3.215916   -0.157771    0.079272
      7          6           0        3.026676   -1.476771    0.212465
      8          6           0        1.557947   -1.903478    0.350837
      9          6           0        0.812296   -0.539408    0.086786
     10          6           0        2.024940    0.548949    0.076852
     11          6           0       -0.060981   -0.445502   -1.182963
     12          6           0        1.208199   -2.561733    1.685641
     13          6           0        0.008354   -3.522008    1.594416
     14          6           0       -0.708186   -3.703017    0.248792
     15          8           0       -0.316532   -4.470277   -0.623112
     16          8           0       -1.973514   -3.066329    0.269528
     17          7           0        4.113417    2.790635    0.037349
     18          6           0        2.718198    2.982801   -0.088375
     19          6           0        2.464201    4.404112   -0.212405
     20          6           0        3.729780    5.099625   -0.255887
     21          6           0        4.718088    4.039018   -0.066144
     22          6           0        1.061129    4.945218   -0.190822
     23          6           0        4.052174    6.660488   -0.301915
     24          8           0        5.162729    7.120352   -0.191072
     25          6           0        2.871385    7.582674   -0.514907
     26          7           0        6.946454    1.872793   -0.008120
     27          6           0        7.138736    3.219062   -0.116189
     28          6           0        8.661517    3.596844   -0.230692
     29          6           0        9.320035    2.227653   -0.069945
     30          6           0        8.142144    1.277332    0.035291
     31          6           0        9.209148    4.468825   -1.431508
     32          6           0       10.223525    2.184266    1.184701
     33          6           0        9.575491    1.924094    2.562659
     34          7           0        6.120619   -0.874529    0.306250
     35          6           0        7.458955   -1.164901    0.245333
     36          6           0        7.682478   -2.571772    0.236458
     37          6           0        6.330846   -3.135639    0.150737
     38          6           0        5.487741   -2.093726    0.172514
     39          6           0        8.915234   -3.362162    0.257444
     40          6           0        5.553089   -4.350429   -0.050168
     41          8           0        5.914124   -5.532112   -0.059789
     42          6           0        4.050789   -3.946683   -0.118646
     43          6           0        3.435255   -4.383067   -1.367770
     44          8           0        3.555955   -3.839805   -2.460720
     45          8           0        2.881898   -5.625695   -1.186144
     46          6           0        2.570856   -6.466434   -2.358529
     47          6           0       -2.794955   -3.331520   -0.976647
     48          6           0       -4.092291   -2.529666   -0.789391
     49          6           0       -5.320146   -3.083038   -0.861285
     50          6           0       -5.598511   -4.442530   -1.469498
     51          6           0       -6.539595   -2.262100   -0.491463
     52          6           0       -7.121556   -2.540757    0.917506
     53          6           0       -7.150567   -1.325881    1.829349
     54          6           0       -8.515221   -1.165026    2.488495
     55          6           0       -8.665966   -2.178380    3.601900
     56          6           0       -8.729621    0.258616    3.011904
     57          6           0       -9.851483    1.007170    2.295538
     58          6           0       -9.299791    1.658339    1.022391
     59          6           0       -9.932368    1.096053   -0.298263
     60          6           0       -8.915405    1.142083   -1.421431
     61          6           0      -11.142037    1.921784   -0.613311
     62          6           0      -12.434731    1.254106   -0.215920
     63          6           0      -13.587772    1.541186   -1.198396
     64          6           0      -14.154188    3.058588   -1.003843
     65          6           0      -15.692452    2.995113   -0.683378
     66          6           0      -13.767737    3.965314   -2.231297
     67          1           0        0.748092    2.078152   -0.369709
     68          1           0        6.441024    5.213968   -0.042532
     69          1           0        9.411809   -0.466794    0.234770
     70          1           0        1.243788   -2.534966   -0.479895
     71          1           0        0.240835   -0.185708    0.944197
     72          1           0       -1.000701   -0.107662   -0.746412
     73          1           0       -0.175094   -1.425545   -1.645594
     74          1           0        0.379972    0.247313   -1.899773
     75          1           0        1.020159   -1.827123    2.467710
     76          1           0        2.056045   -3.141275    2.051848
     77          1           0       -0.655699   -3.079871    2.337435
     78          1           0        0.238888   -4.502337    2.013887
     79          1           0        0.412722    4.072669   -0.271191
     80          1           0        0.930960    5.628311   -1.030461
     81          1           0        0.834710    5.508977    0.715415
     82          1           0        2.455279    7.633058   -1.521623
     83          1           0        3.157310    8.572708   -0.159704
     84          1           0        2.137905    7.165823    0.175181
     85          1           0        8.780099    4.222160    0.653898
     86          1           0        9.904205    2.061404   -0.974326
     87          1           0       10.097467    4.067294   -1.917690
     88          1           0        9.514113    5.435997   -1.033179
     89          1           0        8.381641    4.635779   -2.121686
     90          1           0       10.751514    3.137071    1.189675
     91          1           0       10.960972    1.411735    0.964856
     92          1           0       10.085752    2.612265    3.236087
     93          1           0        9.756374    0.918702    2.942186
     94          1           0        8.490512    2.021704    2.575005
     95          1           0        8.756521   -4.201430    0.933700
     96          1           0        9.815000   -2.824549    0.556755
     97          1           0        9.045939   -3.870717   -0.697918
     98          1           0        3.610835   -4.425071    0.756261
     99          1           0        2.774866   -5.953495   -3.299053
    100          1           0        1.503692   -6.688162   -2.332031
    101          1           0        3.230542   -7.315138   -2.181394
    102          1           0       -2.979919   -4.404647   -1.028759
    103          1           0       -2.287397   -2.964118   -1.868399
    104          1           0       -4.051458   -1.552709   -0.307614
    105          1           0       -5.104147   -4.328862   -2.434210
    106          1           0       -6.653892   -4.594961   -1.693897
    107          1           0       -5.219421   -5.267930   -0.866950
    108          1           0       -7.349046   -2.248894   -1.221145
    109          1           0       -6.288354   -1.203648   -0.416241
    110          1           0       -6.530708   -3.332380    1.377039
    111          1           0       -8.075785   -3.032608    0.728203
    112          1           0       -6.987536   -0.372120    1.328260
    113          1           0       -6.361112   -1.482986    2.564550
    114          1           0       -9.225889   -1.373421    1.688926
    115          1           0       -8.080892   -3.095270    3.523268
    116          1           0       -9.718046   -2.445118    3.707186
    117          1           0       -8.232826   -1.748616    4.504468
    118          1           0       -7.830837    0.874249    3.034962
    119          1           0       -9.059067    0.250502    4.051770
    120          1           0      -10.147678    1.881314    2.874694
    121          1           0      -10.681174    0.325484    2.104470
    122          1           0       -8.214444    1.554690    1.018785
    123          1           0       -9.559472    2.714160    0.944196
    124          1           0      -10.134498    0.033594   -0.170652
    125          1           0       -8.558351    2.159629   -1.578596
    126          1           0       -9.402118    0.982440   -2.383815
    127          1           0       -8.089700    0.458270   -1.220860
    128          1           0      -11.165825    2.184628   -1.671077
    129          1           0      -11.237236    2.901765   -0.146370
    130          1           0      -12.605878    1.483329    0.836556
    131          1           0      -12.394302    0.166310   -0.145897
    132          1           0      -14.347140    0.772433   -1.056936
    133          1           0      -13.207042    1.289050   -2.188804
    134          1           0      -13.722591    3.458108   -0.086413
    135          1           0      -16.206039    3.741136   -1.290722
    136          1           0      -15.823127    3.205236    0.377765
    137          1           0      -16.262821    2.073659   -0.797969
    138          1           0      -14.606833    4.102682   -2.913515
    139          1           0      -12.899455    3.614063   -2.788412
    140          1           0      -13.389889    4.946671   -1.945230
 ---------------------------------------------------------------------

 SCF Done:  E(RPBE1PBE) =  -3005.37532338     A.U. after   15 cycles

 Excitation energies and oscillator strengths:

 Excited State   1:      Singlet-A      1.8751 eV  661.20 nm  f=0.3830  <S**2>=0.000
     245 -> 248        0.17464
     246 -> 247        0.69084
     246 <- 247       -0.10884
 This state for optimization and/or second-order correction.
 Total Energy, E(TD-HF/TD-DFT) =  -3005.30641291
 Copying the excited state density for this state as the 1-particle RhoCI density.

 Excited State   2:      Singlet-A      2.1478 eV  577.25 nm  f=0.1526  <S**2>=0.000
     245 -> 247        0.66660
     246 -> 248       -0.21029

 Excited State   3:      Singlet-A      2.7961 eV  443.42 nm  f=0.0085  <S**2>=0.000
     243 -> 247       -0.10087
     244 -> 247        0.69142

 Excited State   4:      Singlet-A      2.9939 eV  414.12 nm  f=0.0007  <S**2>=0.000
     242 -> 247        0.65136
     242 -> 249       -0.15523
     243 -> 247        0.19764

 Excited State   5:      Singlet-A      3.0274 eV  409.54 nm  f=0.0207  <S**2>=0.000
     242 -> 247       -0.19579
     243 -> 247        0.66193

 The electronic state is 1-A.
 Alpha  occ. eigenvalues --  -46.91553 -19.26048 -19.23594 -19.21286 -19.19979
 Alpha  occ. eigenvalues --  -19.18735 -19.18458 -14.41581 -14.41383 -14.38976
 Alpha  occ. eigenvalues --  -14.37776 -10.37369 -10.34927 -10.33177 -10.32003
 Alpha  occ. eigenvalues --  -10.30039 -10.28507 -10.28477 -10.28400 -10.28332
 Alpha  occ. eigenvalues --  -10.27859 -10.27397 -10.27348 -10.26466 -10.26114
 Alpha  occ. eigenvalues --  -10.25816 -10.25722 -10.25560 -10.25480 -10.25411
 Alpha  occ. eigenvalues --  -10.25346 -10.25204 -10.25136 -10.25129 -10.25091
 Alpha  occ. eigenvalues --  -10.25082 -10.24698 -10.24630 -10.24620 -10.24261
 Alpha  occ. eigenvalues --  -10.24020 -10.23896 -10.23679 -10.23487 -10.23465
 Alpha  occ. eigenvalues --  -10.23363 -10.23344 -10.23179 -10.23160 -10.23107
 Alpha  occ. eigenvalues --  -10.23105 -10.22810 -10.22795 -10.22738 -10.22578
 Alpha  occ. eigenvalues --  -10.22517 -10.22383 -10.22252 -10.22215 -10.22060
 Alpha  occ. eigenvalues --  -10.21960 -10.21847 -10.21838 -10.21826 -10.21692
 Alpha  occ. eigenvalues --  -10.21613  -3.13658  -1.86499  -1.86029  -1.85886
 Alpha  occ. eigenvalues --   -1.09818  -1.08954  -1.06170  -1.03371  -1.02493
 Alpha  occ. eigenvalues --   -1.00621  -0.98922  -0.97868  -0.97026  -0.95517
 Alpha  occ. eigenvalues --   -0.86241  -0.85561  -0.84626  -0.84027  -0.83468
 Alpha  occ. eigenvalues --   -0.83350  -0.82329  -0.81292  -0.80920  -0.80594
 Alpha  occ. eigenvalues --   -0.80275  -0.79401  -0.78845  -0.77645  -0.77204
 Alpha  occ. eigenvalues --   -0.76735  -0.76021  -0.75520  -0.75165  -0.74549
 Alpha  occ. eigenvalues --   -0.74211  -0.72348  -0.72031  -0.71238  -0.70338
 Alpha  occ. eigenvalues --   -0.69873  -0.69720  -0.69358  -0.69181  -0.68223
 Alpha  occ. eigenvalues --   -0.67545  -0.66761  -0.65404  -0.64868  -0.64039
 Alpha  occ. eigenvalues --   -0.62599  -0.62447  -0.60890  -0.60739  -0.59562
 Alpha  occ. eigenvalues --   -0.59432  -0.59088  -0.58845  -0.58335  -0.58094
 Alpha  occ. eigenvalues --   -0.57864  -0.57491  -0.57307  -0.55450  -0.54504
 Alpha  occ. eigenvalues --   -0.54105  -0.53613  -0.53337  -0.52664  -0.52247
 Alpha  occ. eigenvalues --   -0.51798  -0.51099  -0.50501  -0.50291  -0.49749
 Alpha  occ. eigenvalues --   -0.49496  -0.49354  -0.49077  -0.49001  -0.48241
 Alpha  occ. eigenvalues --   -0.47987  -0.47785  -0.47314  -0.47185  -0.47056
 Alpha  occ. eigenvalues --   -0.46821  -0.46588  -0.46460  -0.46368  -0.46266
 Alpha  occ. eigenvalues --   -0.45978  -0.45924  -0.45499  -0.45350  -0.45196
 Alpha  occ. eigenvalues --   -0.44899  -0.44583  -0.44306  -0.44154  -0.44074
 Alpha  occ. eigenvalues --   -0.43868  -0.43809  -0.43606  -0.43520  -0.43312
 Alpha  occ. eigenvalues --   -0.43025  -0.42993  -0.42675  -0.42647  -0.42575
 Alpha  occ. eigenvalues --   -0.42414  -0.41897  -0.41426  -0.41355  -0.41072
 Alpha  occ. eigenvalues --   -0.40965  -0.40675  -0.40531  -0.40361  -0.40204
 Alpha  occ. eigenvalues --   -0.40168  -0.39901  -0.39768  -0.39520  -0.39318
 Alpha  occ. eigenvalues --   -0.39131  -0.38985  -0.38842  -0.38711  -0.38562
 Alpha  occ. eigenvalues --   -0.38489  -0.38287  -0.38217  -0.38024  -0.37712
 Alpha  occ. eigenvalues --   -0.37629  -0.37576  -0.37475  -0.37151  -0.37030
 Alpha  occ. eigenvalues --   -0.36807  -0.36678  -0.36386  -0.36295  -0.35830
 Alpha  occ. eigenvalues --   -0.35777  -0.35465  -0.35159  -0.34992  -0.34837
 Alpha  occ. eigenvalues --   -0.34552  -0.34300  -0.34069  -0.33647  -0.33354
 Alpha  occ. eigenvalues --   -0.33290  -0.33071  -0.33036  -0.32982  -0.32601
 Alpha  occ. eigenvalues --   -0.32343  -0.31709  -0.31638  -0.31597  -0.31114
 Alpha  occ. eigenvalues --   -0.30568  -0.29859  -0.29610  -0.29458  -0.29342
 Alpha  occ. eigenvalues --   -0.28813  -0.28770  -0.27767  -0.26478  -0.26241
 Alpha  occ. eigenvalues --   -0.25671  -0.25438  -0.25071  -0.24225  -0.20370
 Alpha  occ. eigenvalues --   -0.18764
 Alpha virt. eigenvalues --   -0.11150  -0.04761  -0.03466  -0.01757  -0.01261
 Alpha virt. eigenvalues --   -0.00033   0.00165   0.01366   0.01897   0.03241
 Alpha virt. eigenvalues --    0.04528   0.04931   0.05142   0.05309   0.05602

 Mulliken charges:
               1
     1  Mg   0.971436
     2  C    0.008678
     3  C   -0.076281
     4  C   -0.062667
     5  C   -0.069198
     6  N   -0.389041
     7  C    0.030562
     8  C   -0.147470
     9  C   -0.166954
    10  C    0.081267
    11  C    0.010853
    12  C    0.042242
    13  C    0.023957
    14  C    0.215766
    15  O   -0.260914
    16  O   -0.397266
    17  N   -0.507169
    18  C    0.171632
    19  C   -0.188940
    20  C   -0.091085
    21  C    0.135544
    22  C    0.042053
    23  C    0.084238
    24  O   -0.214487
    25  C   -0.035141
    26  N   -0.375061
    27  C    0.055461
    28  C   -0.101349
    29  C   -0.074203
    30  C    0.065012
    31  C    0.010554
    32  C   -0.057752
    33  C   -0.050921
    34  N   -0.485185
    35  C    0.148765
    36  C   -0.171272
    37  C   -0.032962
    38  C    0.141948
    39  C    0.076378
    40  C    0.111755
    41  O   -0.229050
    42  C   -0.098925
    43  C    0.308311
    44  O   -0.264860
    45  O   -0.375599
    46  C    0.115833
    47  C    0.230717
    48  C   -0.103962
    49  C   -0.226438
    50  C    0.012118
    51  C   -0.026792
    52  C   -0.035927
    53  C   -0.007469
    54  C   -0.216584
    55  C    0.005678
    56  C    0.002559
    57  C   -0.036724
    58  C   -0.004401
    59  C   -0.221733
    60  C   -0.015065
    61  C    0.034897
    62  C   -0.095023
    63  C    0.000462
    64  C   -0.210286
    65  C   -0.029449
    66  C   -0.021558
    67  H    0.010376
    68  H    0.024265
    69  H   -0.009185
    70  H    0.088576
    71  H    0.043673
    72  H    0.048454
    73  H    0.056234
    74  H    0.060918
    75  H    0.035520
    76  H    0.040587
    77  H    0.046261
    78  H    0.068496
    79  H    0.034282
    80  H    0.054074
    81  H    0.071954
    82  H    0.084506
    83  H    0.054673
    84  H    0.040744
    85  H    0.051762
    86  H    0.045547
    87  H    0.044792
    88  H    0.040641
    89  H    0.057340
    90  H    0.038857
    91  H    0.038698
    92  H    0.044784
    93  H    0.042719
    94  H    0.056942
    95  H    0.057592
    96  H    0.038834
    97  H    0.062798
    98  H    0.079706
    99  H    0.066556
   100  H    0.065547
   101  H    0.070465
   102  H    0.055415
   103  H    0.066328
   104  H    0.029433
   105  H    0.064284
   106  H    0.039032
   107  H    0.069500
   108  H    0.039812
   109  H    0.033090
   110  H    0.031450
   111  H    0.029429
   112  H    0.028250
   113  H    0.031344
   114  H    0.033574
   115  H    0.025696
   116  H    0.039050
   117  H    0.029368
   118  H    0.024540
   119  H    0.017134
   120  H    0.023631
   121  H    0.042490
   122  H    0.015258
   123  H    0.016485
   124  H    0.031447
   125  H    0.020781
   126  H    0.027358
   127  H    0.041062
   128  H    0.010447
   129  H    0.023858
   130  H    0.026478
   131  H    0.015526
   132  H    0.019214
   133  H    0.028177
   134  H    0.046912
   135  H    0.030763
   136  H    0.032169
   137  H    0.037717
   138  H    0.040626
   139  H    0.031752
   140  H    0.029621
 Sum of Mulliken charges =  -0.00000

 Dipole moment (field-independent basis, Debye):
    X=             -4.4945    Y=              2.4260    Z=              2.6960  Tot=              5.7754
 Quadrupole moment (field-independent basis, Debye-Ang):
   XX=           -368.2202   YY=           -420.4140   ZZ=           -402.0136
   XY=             20.0066   XZ=             12.6243   YZ=             -2.5096

 Normal termination of Gaussian 16 at Fri Apr 29 22:37:33 2022.
