 Gaussian 16, Revision A.03,
 Gaussian 16:  ES64L-G16RevA.03 25-Dec-2016

 --------------------------------
 #p wB97XD/Def2SVP td=(nstates=5)
 --------------------------------

 ----------------------------------------------------
 step_501_chromophore_24 TDDFT with wB97XD functional
 ----------------------------------------------------
 Symbolic Z-matrix:
 Charge =  0 Multiplicity = 1

                         Standard orientation:
 ---------------------------------------------------------------------
 Center     Atomic      Atomic             Coordinates (Angstroms)
 Number     Number       Type             X           Y           Z
 ---------------------------------------------------------------------
      1         12           0        5.086441    0.946782    0.339901
      2          6           0        4.068494   -2.385325    0.051822
      3          6           0        1.804455    1.878422   -0.177160
      4          6           0        6.107754    4.175208   -0.090507
      5          6           0        8.376397   -0.123443    0.185672
      6          7           0        3.215916   -0.157771    0.079272
      7          6           0        3.026676   -1.476771    0.212465
      8          6           0        1.557947   -1.903478    0.350837
      9          6           0        0.812296   -0.539408    0.086786
     10          6           0        2.024940    0.548949    0.076852
     11          6           0       -0.060981   -0.445502   -1.182963
     12          6           0        1.208199   -2.561733    1.685641
     13          6           0        0.008354   -3.522008    1.594416
     14          6           0       -0.708186   -3.703017    0.248792
     15          8           0       -0.316532   -4.470277   -0.623112
     16          8           0       -1.973514   -3.066329    0.269528
     17          7           0        4.113417    2.790635    0.037349
     18          6           0        2.718198    2.982801   -0.088375
     19          6           0        2.464201    4.404112   -0.212405
     20          6           0        3.729780    5.099625   -0.255887
     21          6           0        4.718088    4.039018   -0.066144
     22          6           0        1.061129    4.945218   -0.190822
     23          6           0        4.052174    6.660488   -0.301915
     24          8           0        5.162729    7.120352   -0.191072
     25          6           0        2.871385    7.582674   -0.514907
     26          7           0        6.946454    1.872793   -0.008120
     27          6           0        7.138736    3.219062   -0.116189
     28          6           0        8.661517    3.596844   -0.230692
     29          6           0        9.320035    2.227653   -0.069945
     30          6           0        8.142144    1.277332    0.035291
     31          6           0        9.209148    4.468825   -1.431508
     32          6           0       10.223525    2.184266    1.184701
     33          6           0        9.575491    1.924094    2.562659
     34          7           0        6.120619   -0.874529    0.306250
     35          6           0        7.458955   -1.164901    0.245333
     36          6           0        7.682478   -2.571772    0.236458
     37          6           0        6.330846   -3.135639    0.150737
     38          6           0        5.487741   -2.093726    0.172514
     39          6           0        8.915234   -3.362162    0.257444
     40          6           0        5.553089   -4.350429   -0.050168
     41          8           0        5.914124   -5.532112   -0.059789
     42          6           0        4.050789   -3.946683   -0.118646
     43          6           0        3.435255   -4.383067   -1.367770
     44          8           0        3.555955   -3.839805   -2.460720
     45          8           0        2.881898   -5.625695   -1.186144
     46          6           0        2.570856   -6.466434   -2.358529
     47          6           0       -2.794955   -3.331520   -0.976647
     48          6           0       -4.092291   -2.529666   -0.789391
     49          6           0       -5.320146   -3.083038   -0.861285
     50          6           0       -5.598511   -4.442530   -1.469498
     51          6           0       -6.539595   -2.262100   -0.491463
     52          6           0       -7.121556   -2.540757    0.917506
     53          6           0       -7.150567   -1.325881    1.829349
     54          6           0       -8.515221   -1.165026    2.488495
     55          6           0       -8.665966   -2.178380    3.601900
     56          6           0       -8.729621    0.258616    3.011904
     57          6           0       -9.851483    1.007170    2.295538
     58          6           0       -9.299791    1.658339    1.022391
     59          6           0       -9.932368    1.096053   -0.298263
     60          6           0       -8.915405    1.142083   -1.421431
     61          6           0      -11.142037    1.921784   -0.613311
     62          6           0      -12.434731    1.254106   -0.215920
     63          6           0      -13.587772    1.541186   -1.198396
     64          6           0      -14.154188    3.058588   -1.003843
     65          6           0      -15.692452    2.995113   -0.683378
     66          6           0      -13.767737    3.965314   -2.231297
     67          1           0        0.748092    2.078152   -0.369709
     68          1           0        6.441024    5.213968   -0.042532
     69          1           0        9.411809   -0.466794    0.234770
     70          1           0        1.243788   -2.534966   -0.479895
     71          1           0        0.240835   -0.185708    0.944197
     72          1           0       -1.000701   -0.107662   -0.746412
     73          1           0       -0.175094   -1.425545   -1.645594
     74          1           0        0.379972    0.247313   -1.899773
     75          1           0        1.020159   -1.827123    2.467710
     76          1           0        2.056045   -3.141275    2.051848
     77          1           0       -0.655699   -3.079871    2.337435
     78          1           0        0.238888   -4.502337    2.013887
     79          1           0        0.412722    4.072669   -0.271191
     80          1           0        0.930960    5.628311   -1.030461
     81          1           0        0.834710    5.508977    0.715415
     82          1           0        2.455279    7.633058   -1.521623
     83          1           0        3.157310    8.572708   -0.159704
     84          1           0        2.137905    7.165823    0.175181
     85          1           0        8.780099    4.222160    0.653898
     86          1           0        9.904205    2.061404   -0.974326
     87          1           0       10.097467    4.067294   -1.917690
     88          1           0        9.514113    5.435997   -1.033179
     89          1           0        8.381641    4.635779   -2.121686
     90          1           0       10.751514    3.137071    1.189675
     91          1           0       10.960972    1.411735    0.964856
     92          1           0       10.085752    2.612265    3.236087
     93          1           0        9.756374    0.918702    2.942186
     94          1           0        8.490512    2.021704    2.575005
     95          1           0        8.756521   -4.201430    0.933700
     96          1           0        9.815000   -2.824549    0.556755
     97          1           0        9.045939   -3.870717   -0.697918
     98          1           0        3.610835   -4.425071    0.756261
     99          1           0        2.774866   -5.953495   -3.299053
    100          1           0        1.503692   -6.688162   -2.332031
    101          1           0        3.230542   -7.315138   -2.181394
    102          1           0       -2.979919   -4.404647   -1.028759
    103          1           0       -2.287397   -2.964118   -1.868399
    104          1           0       -4.051458   -1.552709   -0.307614
    105          1           0       -5.104147   -4.328862   -2.434210
    106          1           0       -6.653892   -4.594961   -1.693897
    107          1           0       -5.219421   -5.267930   -0.866950
    108          1           0       -7.349046   -2.248894   -1.221145
    109          1           0       -6.288354   -1.203648   -0.416241
    110          1           0       -6.530708   -3.332380    1.377039
    111          1           0       -8.075785   -3.032608    0.728203
    112          1           0       -6.987536   -0.372120    1.328260
    113          1           0       -6.361112   -1.482986    2.564550
    114          1           0       -9.225889   -1.373421    1.688926
    115          1           0       -8.080892   -3.095270    3.523268
    116          1           0       -9.718046   -2.445118    3.707186
    117          1           0       -8.232826   -1.748616    4.504468
    118          1           0       -7.830837    0.874249    3.034962
    119          1           0       -9.059067    0.250502    4.051770
    120          1           0      -10.147678    1.881314    2.874694
    121          1           0      -10.681174    0.325484    2.104470
    122          1           0       -8.214444    1.554690    1.018785
    123          1           0       -9.559472    2.714160    0.944196
    124          1           0      -10.134498    0.033594   -0.170652
    125          1           0       -8.558351    2.159629   -1.578596
    126          1           0       -9.402118    0.982440   -2.383815
    127          1           0       -8.089700    0.458270   -1.220860
    128          1           0      -11.165825    2.184628   -1.671077
    129          1           0      -11.237236    2.901765   -0.146370
    130          1           0      -12.605878    1.483329    0.836556
    131          1           0      -12.394302    0.166310   -0.145897
    132          1           0      -14.347140    0.772433   -1.056936
    133          1           0      -13.207042    1.289050   -2.188804
    134          1           0      -13.722591    3.458108   -0.086413
    135          1           0      -16.206039    3.741136   -1.290722
    136          1           0      -15.823127    3.205236    0.377765
    137          1           0      -16.262821    2.073659   -0.797969
    138          1           0      -14.606833    4.102682   -2.913515
    139          1           0      -12.899455    3.614063   -2.788412
    140          1           0      -13.389889    4.946671   -1.945230
 ---------------------------------------------------------------------

 SCF Done:  E(RwB97XD) =  -3007.88836357     A.U. after   17 cycles

 Excitation energies and oscillator strengths:

 Excited State   1:      Singlet-A      1.6568 eV  748.33 nm  f=0.3992  <S**2>=0.000
     245 -> 248        0.18755
     246 -> 247        0.68167
     245 <- 248        0.11631
 This state for optimization and/or second-order correction.
 Total Energy, E(TD-HF/TD-DFT) =  -3007.82747714
 Copying the excited state density for this state as the 1-particle RhoCI density.

 Excited State   2:      Singlet-A      2.0758 eV  597.27 nm  f=0.1640  <S**2>=0.000
     245 -> 247        0.65649
     246 -> 248       -0.23947

 Excited State   3:      Singlet-A      3.0950 eV  400.60 nm  f=0.0060  <S**2>=0.000
     243 -> 247       -0.12053
     244 -> 247        0.67658

 Excited State   4:      Singlet-A      3.3725 eV  367.63 nm  f=0.0033  <S**2>=0.000
     243 -> 247        0.66722
     246 -> 248        0.14746

 Excited State   5:      Singlet-A      3.5572 eV  348.54 nm  f=0.0002  <S**2>=0.000
     241 -> 247        0.57151
     241 -> 249       -0.32372
     241 -> 250        0.21543

 The electronic state is 1-A.
 Alpha  occ. eigenvalues --  -46.94479 -19.30558 -19.28126 -19.25915 -19.24861
 Alpha  occ. eigenvalues --  -19.23501 -19.23160 -14.46759 -14.46381 -14.43943
 Alpha  occ. eigenvalues --  -14.42637 -10.44114 -10.41769 -10.40065 -10.38825
 Alpha  occ. eigenvalues --  -10.36545 -10.34825 -10.34783 -10.34679 -10.34551
 Alpha  occ. eigenvalues --  -10.34247 -10.33820 -10.33771 -10.32723 -10.32593
 Alpha  occ. eigenvalues --  -10.32154 -10.32115 -10.31784 -10.31782 -10.31719
 Alpha  occ. eigenvalues --  -10.31573 -10.31546 -10.31545 -10.31475 -10.31424
 Alpha  occ. eigenvalues --  -10.31355 -10.31053 -10.30908 -10.30832 -10.30788
 Alpha  occ. eigenvalues --  -10.30522 -10.30189 -10.30131 -10.30112 -10.29846
 Alpha  occ. eigenvalues --  -10.29836 -10.29740 -10.29575 -10.29529 -10.29526
 Alpha  occ. eigenvalues --  -10.29389 -10.29211 -10.29173 -10.29024 -10.28930
 Alpha  occ. eigenvalues --  -10.28881 -10.28686 -10.28632 -10.28587 -10.28410
 Alpha  occ. eigenvalues --  -10.28379 -10.28281 -10.28207 -10.28198 -10.28140
 Alpha  occ. eigenvalues --  -10.27991  -3.20441  -1.94031  -1.93561  -1.93418
 Alpha  occ. eigenvalues --   -1.17175  -1.16343  -1.13705  -1.10821  -1.09808
 Alpha  occ. eigenvalues --   -1.07978  -1.06326  -1.05225  -1.04359  -1.02938
 Alpha  occ. eigenvalues --   -0.93825  -0.93222  -0.92289  -0.91651  -0.91119
 Alpha  occ. eigenvalues --   -0.90929  -0.89952  -0.88914  -0.88598  -0.88267
 Alpha  occ. eigenvalues --   -0.87892  -0.87046  -0.86493  -0.85264  -0.84857
 Alpha  occ. eigenvalues --   -0.84387  -0.83779  -0.83192  -0.82810  -0.82182
 Alpha  occ. eigenvalues --   -0.81816  -0.79984  -0.79662  -0.78858  -0.78011
 Alpha  occ. eigenvalues --   -0.77473  -0.77425  -0.76938  -0.76864  -0.75878
 Alpha  occ. eigenvalues --   -0.75157  -0.74294  -0.72945  -0.72474  -0.71605
 Alpha  occ. eigenvalues --   -0.70221  -0.69978  -0.68524  -0.68336  -0.67150
 Alpha  occ. eigenvalues --   -0.66986  -0.66564  -0.66327  -0.66031  -0.65522
 Alpha  occ. eigenvalues --   -0.65499  -0.65132  -0.64754  -0.62862  -0.62001
 Alpha  occ. eigenvalues --   -0.61597  -0.61058  -0.60734  -0.60038  -0.59634
 Alpha  occ. eigenvalues --   -0.59260  -0.58490  -0.57995  -0.57707  -0.57142
 Alpha  occ. eigenvalues --   -0.56968  -0.56768  -0.56485  -0.56389  -0.55649
 Alpha  occ. eigenvalues --   -0.55416  -0.55135  -0.54757  -0.54542  -0.54439
 Alpha  occ. eigenvalues --   -0.54191  -0.54047  -0.53844  -0.53753  -0.53609
 Alpha  occ. eigenvalues --   -0.53333  -0.53245  -0.52843  -0.52694  -0.52472
 Alpha  occ. eigenvalues --   -0.52310  -0.51945  -0.51662  -0.51499  -0.51480
 Alpha  occ. eigenvalues --   -0.51224  -0.51116  -0.50933  -0.50814  -0.50613
 Alpha  occ. eigenvalues --   -0.50304  -0.50291  -0.49941  -0.49916  -0.49835
 Alpha  occ. eigenvalues --   -0.49664  -0.49141  -0.48723  -0.48621  -0.48230
 Alpha  occ. eigenvalues --   -0.48177  -0.47870  -0.47808  -0.47628  -0.47450
 Alpha  occ. eigenvalues --   -0.47330  -0.47051  -0.46929  -0.46677  -0.46532
 Alpha  occ. eigenvalues --   -0.46299  -0.46144  -0.46037  -0.45924  -0.45741
 Alpha  occ. eigenvalues --   -0.45649  -0.45433  -0.45325  -0.45128  -0.44862
 Alpha  occ. eigenvalues --   -0.44768  -0.44741  -0.44603  -0.44258  -0.44042
 Alpha  occ. eigenvalues --   -0.43919  -0.43753  -0.43431  -0.43362  -0.42891
 Alpha  occ. eigenvalues --   -0.42845  -0.42434  -0.42219  -0.42122  -0.41864
 Alpha  occ. eigenvalues --   -0.41615  -0.41231  -0.41144  -0.40739  -0.40339
 Alpha  occ. eigenvalues --   -0.40322  -0.40163  -0.40104  -0.39946  -0.39514
 Alpha  occ. eigenvalues --   -0.39381  -0.38671  -0.38644  -0.38620  -0.37966
 Alpha  occ. eigenvalues --   -0.37531  -0.36921  -0.36538  -0.36422  -0.36209
 Alpha  occ. eigenvalues --   -0.35654  -0.35443  -0.34923  -0.33462  -0.32970
 Alpha  occ. eigenvalues --   -0.32505  -0.32395  -0.31670  -0.30682  -0.25285
 Alpha  occ. eigenvalues --   -0.22988
 Alpha virt. eigenvalues --   -0.07142   0.00732   0.02811   0.04765   0.05544
 Alpha virt. eigenvalues --    0.05850   0.06855   0.08127   0.08669   0.09892
 Alpha virt. eigenvalues --    0.11003   0.11688   0.11795   0.12069   0.12243

 Mulliken charges:
               1
     1  Mg   0.959715
     2  C   -0.002335
     3  C   -0.090001
     4  C   -0.074230
     5  C   -0.087295
     6  N   -0.357159
     7  C    0.005976
     8  C   -0.110442
     9  C   -0.147025
    10  C    0.069056
    11  C    0.025318
    12  C    0.049667
    13  C    0.034596
    14  C    0.206496
    15  O   -0.258112
    16  O   -0.396269
    17  N   -0.477772
    18  C    0.165068
    19  C   -0.178616
    20  C   -0.090149
    21  C    0.129181
    22  C    0.057157
    23  C    0.081984
    24  O   -0.208677
    25  C   -0.022275
    26  N   -0.337901
    27  C    0.039760
    28  C   -0.081500
    29  C   -0.049230
    30  C    0.051323
    31  C    0.022634
    32  C   -0.042452
    33  C   -0.033347
    34  N   -0.449923
    35  C    0.142339
    36  C   -0.165349
    37  C   -0.033350
    38  C    0.130844
    39  C    0.085523
    40  C    0.093639
    41  O   -0.219814
    42  C   -0.058961
    43  C    0.284784
    44  O   -0.259327
    45  O   -0.374224
    46  C    0.130422
    47  C    0.244353
    48  C   -0.112396
    49  C   -0.211945
    50  C    0.021991
    51  C   -0.001709
    52  C   -0.026277
    53  C    0.016531
    54  C   -0.183109
    55  C    0.015087
    56  C    0.019810
    57  C   -0.018074
    58  C    0.009733
    59  C   -0.185369
    60  C    0.006141
    61  C    0.048488
    62  C   -0.075830
    63  C    0.016940
    64  C   -0.185154
    65  C   -0.017445
    66  C   -0.008452
    67  H    0.001301
    68  H    0.019769
    69  H   -0.016065
    70  H    0.067223
    71  H    0.032699
    72  H    0.043439
    73  H    0.047425
    74  H    0.055388
    75  H    0.029727
    76  H    0.030895
    77  H    0.041063
    78  H    0.064716
    79  H    0.028928
    80  H    0.047625
    81  H    0.067299
    82  H    0.081843
    83  H    0.053438
    84  H    0.031579
    85  H    0.039512
    86  H    0.036076
    87  H    0.039652
    88  H    0.035404
    89  H    0.050988
    90  H    0.029942
    91  H    0.031047
    92  H    0.040115
    93  H    0.037174
    94  H    0.046665
    95  H    0.052939
    96  H    0.034178
    97  H    0.058196
    98  H    0.072051
    99  H    0.062756
   100  H    0.062853
   101  H    0.066865
   102  H    0.050020
   103  H    0.061593
   104  H    0.026516
   105  H    0.058031
   106  H    0.035099
   107  H    0.065022
   108  H    0.033219
   109  H    0.018781
   110  H    0.022460
   111  H    0.021540
   112  H    0.009691
   113  H    0.023563
   114  H    0.015230
   115  H    0.019821
   116  H    0.034154
   117  H    0.022170
   118  H    0.015710
   119  H    0.008869
   120  H    0.017217
   121  H    0.030258
   122  H    0.003693
   123  H    0.006795
   124  H    0.015017
   125  H    0.013593
   126  H    0.021034
   127  H    0.028003
   128  H   -0.003536
   129  H    0.013417
   130  H    0.016173
   131  H    0.006756
   132  H    0.011466
   133  H    0.018921
   134  H    0.035403
   135  H    0.024309
   136  H    0.026512
   137  H    0.032025
   138  H    0.034989
   139  H    0.024391
   140  H    0.024310
 Sum of Mulliken charges =  -0.00000

 Dipole moment (field-independent basis, Debye):
    X=             -4.5866    Y=              2.6068    Z=              2.6876  Tot=              5.9208
 Quadrupole moment (field-independent basis, Debye-Ang):
   XX=           -369.1803   YY=           -418.4558   ZZ=           -401.5211
   XY=             20.2890   XZ=             12.8204   YZ=             -2.5917

 Normal termination of Gaussian 16 at Fri Apr 29 23:01:11 2022.
