 Gaussian 16, Revision A.03,
 Gaussian 16:  ES64L-G16RevA.03 25-Dec-2016

 --------------------
 #p ZINDO=(nstates=5)
 --------------------

 -----------------------------
 step_501_chromophore_24 ZINDO
 -----------------------------
 Symbolic Z-matrix:
 Charge =  0 Multiplicity = 1

                         Standard orientation:
 ---------------------------------------------------------------------
 Center     Atomic      Atomic             Coordinates (Angstroms)
 Number     Number       Type             X           Y           Z
 ---------------------------------------------------------------------
      1         12           0        5.086441    0.946782    0.339901
      2          6           0        4.068494   -2.385325    0.051822
      3          6           0        1.804455    1.878422   -0.177160
      4          6           0        6.107754    4.175208   -0.090507
      5          6           0        8.376397   -0.123443    0.185672
      6          7           0        3.215916   -0.157771    0.079272
      7          6           0        3.026676   -1.476771    0.212465
      8          6           0        1.557947   -1.903478    0.350837
      9          6           0        0.812296   -0.539408    0.086786
     10          6           0        2.024940    0.548949    0.076852
     11          6           0       -0.060981   -0.445502   -1.182963
     12          6           0        1.208199   -2.561733    1.685641
     13          6           0        0.008354   -3.522008    1.594416
     14          6           0       -0.708186   -3.703017    0.248792
     15          8           0       -0.316532   -4.470277   -0.623112
     16          8           0       -1.973514   -3.066329    0.269528
     17          7           0        4.113417    2.790635    0.037349
     18          6           0        2.718198    2.982801   -0.088375
     19          6           0        2.464201    4.404112   -0.212405
     20          6           0        3.729780    5.099625   -0.255887
     21          6           0        4.718088    4.039018   -0.066144
     22          6           0        1.061129    4.945218   -0.190822
     23          6           0        4.052174    6.660488   -0.301915
     24          8           0        5.162729    7.120352   -0.191072
     25          6           0        2.871385    7.582674   -0.514907
     26          7           0        6.946454    1.872793   -0.008120
     27          6           0        7.138736    3.219062   -0.116189
     28          6           0        8.661517    3.596844   -0.230692
     29          6           0        9.320035    2.227653   -0.069945
     30          6           0        8.142144    1.277332    0.035291
     31          6           0        9.209148    4.468825   -1.431508
     32          6           0       10.223525    2.184266    1.184701
     33          6           0        9.575491    1.924094    2.562659
     34          7           0        6.120619   -0.874529    0.306250
     35          6           0        7.458955   -1.164901    0.245333
     36          6           0        7.682478   -2.571772    0.236458
     37          6           0        6.330846   -3.135639    0.150737
     38          6           0        5.487741   -2.093726    0.172514
     39          6           0        8.915234   -3.362162    0.257444
     40          6           0        5.553089   -4.350429   -0.050168
     41          8           0        5.914124   -5.532112   -0.059789
     42          6           0        4.050789   -3.946683   -0.118646
     43          6           0        3.435255   -4.383067   -1.367770
     44          8           0        3.555955   -3.839805   -2.460720
     45          8           0        2.881898   -5.625695   -1.186144
     46          6           0        2.570856   -6.466434   -2.358529
     47          6           0       -2.794955   -3.331520   -0.976647
     48          6           0       -4.092291   -2.529666   -0.789391
     49          6           0       -5.320146   -3.083038   -0.861285
     50          6           0       -5.598511   -4.442530   -1.469498
     51          6           0       -6.539595   -2.262100   -0.491463
     52          6           0       -7.121556   -2.540757    0.917506
     53          6           0       -7.150567   -1.325881    1.829349
     54          6           0       -8.515221   -1.165026    2.488495
     55          6           0       -8.665966   -2.178380    3.601900
     56          6           0       -8.729621    0.258616    3.011904
     57          6           0       -9.851483    1.007170    2.295538
     58          6           0       -9.299791    1.658339    1.022391
     59          6           0       -9.932368    1.096053   -0.298263
     60          6           0       -8.915405    1.142083   -1.421431
     61          6           0      -11.142037    1.921784   -0.613311
     62          6           0      -12.434731    1.254106   -0.215920
     63          6           0      -13.587772    1.541186   -1.198396
     64          6           0      -14.154188    3.058588   -1.003843
     65          6           0      -15.692452    2.995113   -0.683378
     66          6           0      -13.767737    3.965314   -2.231297
     67          1           0        0.748092    2.078152   -0.369709
     68          1           0        6.441024    5.213968   -0.042532
     69          1           0        9.411809   -0.466794    0.234770
     70          1           0        1.243788   -2.534966   -0.479895
     71          1           0        0.240835   -0.185708    0.944197
     72          1           0       -1.000701   -0.107662   -0.746412
     73          1           0       -0.175094   -1.425545   -1.645594
     74          1           0        0.379972    0.247313   -1.899773
     75          1           0        1.020159   -1.827123    2.467710
     76          1           0        2.056045   -3.141275    2.051848
     77          1           0       -0.655699   -3.079871    2.337435
     78          1           0        0.238888   -4.502337    2.013887
     79          1           0        0.412722    4.072669   -0.271191
     80          1           0        0.930960    5.628311   -1.030461
     81          1           0        0.834710    5.508977    0.715415
     82          1           0        2.455279    7.633058   -1.521623
     83          1           0        3.157310    8.572708   -0.159704
     84          1           0        2.137905    7.165823    0.175181
     85          1           0        8.780099    4.222160    0.653898
     86          1           0        9.904205    2.061404   -0.974326
     87          1           0       10.097467    4.067294   -1.917690
     88          1           0        9.514113    5.435997   -1.033179
     89          1           0        8.381641    4.635779   -2.121686
     90          1           0       10.751514    3.137071    1.189675
     91          1           0       10.960972    1.411735    0.964856
     92          1           0       10.085752    2.612265    3.236087
     93          1           0        9.756374    0.918702    2.942186
     94          1           0        8.490512    2.021704    2.575005
     95          1           0        8.756521   -4.201430    0.933700
     96          1           0        9.815000   -2.824549    0.556755
     97          1           0        9.045939   -3.870717   -0.697918
     98          1           0        3.610835   -4.425071    0.756261
     99          1           0        2.774866   -5.953495   -3.299053
    100          1           0        1.503692   -6.688162   -2.332031
    101          1           0        3.230542   -7.315138   -2.181394
    102          1           0       -2.979919   -4.404647   -1.028759
    103          1           0       -2.287397   -2.964118   -1.868399
    104          1           0       -4.051458   -1.552709   -0.307614
    105          1           0       -5.104147   -4.328862   -2.434210
    106          1           0       -6.653892   -4.594961   -1.693897
    107          1           0       -5.219421   -5.267930   -0.866950
    108          1           0       -7.349046   -2.248894   -1.221145
    109          1           0       -6.288354   -1.203648   -0.416241
    110          1           0       -6.530708   -3.332380    1.377039
    111          1           0       -8.075785   -3.032608    0.728203
    112          1           0       -6.987536   -0.372120    1.328260
    113          1           0       -6.361112   -1.482986    2.564550
    114          1           0       -9.225889   -1.373421    1.688926
    115          1           0       -8.080892   -3.095270    3.523268
    116          1           0       -9.718046   -2.445118    3.707186
    117          1           0       -8.232826   -1.748616    4.504468
    118          1           0       -7.830837    0.874249    3.034962
    119          1           0       -9.059067    0.250502    4.051770
    120          1           0      -10.147678    1.881314    2.874694
    121          1           0      -10.681174    0.325484    2.104470
    122          1           0       -8.214444    1.554690    1.018785
    123          1           0       -9.559472    2.714160    0.944196
    124          1           0      -10.134498    0.033594   -0.170652
    125          1           0       -8.558351    2.159629   -1.578596
    126          1           0       -9.402118    0.982440   -2.383815
    127          1           0       -8.089700    0.458270   -1.220860
    128          1           0      -11.165825    2.184628   -1.671077
    129          1           0      -11.237236    2.901765   -0.146370
    130          1           0      -12.605878    1.483329    0.836556
    131          1           0      -12.394302    0.166310   -0.145897
    132          1           0      -14.347140    0.772433   -1.056936
    133          1           0      -13.207042    1.289050   -2.188804
    134          1           0      -13.722591    3.458108   -0.086413
    135          1           0      -16.206039    3.741136   -1.290722
    136          1           0      -15.823127    3.205236    0.377765
    137          1           0      -16.262821    2.073659   -0.797969
    138          1           0      -14.606833    4.102682   -2.913515
    139          1           0      -12.899455    3.614063   -2.788412
    140          1           0      -13.389889    4.946671   -1.945230
 ---------------------------------------------------------------------

 SCF Done:  E(RZINDO/S) =  -474.255768335     A.U. after   20 cycles

 Excitation energies and oscillator strengths:

 Excited State   1:      Singlet-A      1.2473 eV  994.03 nm  f=0.6179  <S**2>=0.000
     175 ->178         0.19986
     176 ->177         0.65908
 This state for optimization and/or second-order correction.
 Total Energy, E(CIS/TDA) =  -474.209931483
 Copying the excited state density for this state as the 1-particle RhoCI density.

 Excited State   2:      Singlet-A      1.8713 eV  662.57 nm  f=0.1175  <S**2>=0.000
     175 ->177         0.58966
     176 ->178        -0.36200

 Excited State   3:      Singlet-A      2.9934 eV  414.19 nm  f=0.0193  <S**2>=0.000
     173 ->177        -0.39195
     174 ->177         0.55445

 Excited State   4:      Singlet-A      3.0278 eV  409.48 nm  f=0.0003  <S**2>=0.000
     169 ->177         0.27843
     169 ->179        -0.34918
     169 ->181         0.22655
     169 ->186        -0.15200
     169 ->187         0.13574
     170 ->177         0.19746
     170 ->179        -0.23683
     170 ->181         0.15398
     170 ->186        -0.10259

 Excited State   5:      Singlet-A      3.0431 eV  407.43 nm  f=1.1474  <S**2>=0.000
     173 ->177        -0.10196
     175 ->177         0.33826
     176 ->178         0.57528

 The electronic state is 1-A.
 Alpha  occ. eigenvalues --   -1.83877  -1.80676  -1.77664  -1.71130  -1.70767
 Alpha  occ. eigenvalues --   -1.69582  -1.68006  -1.62339  -1.58762  -1.57314
 Alpha  occ. eigenvalues --   -1.54657  -1.50977  -1.48638  -1.47449  -1.46768
 Alpha  occ. eigenvalues --   -1.43886  -1.42413  -1.39779  -1.39504  -1.38583
 Alpha  occ. eigenvalues --   -1.36037  -1.33691  -1.33482  -1.31848  -1.29614
 Alpha  occ. eigenvalues --   -1.28138  -1.24697  -1.22335  -1.19740  -1.17626
 Alpha  occ. eigenvalues --   -1.16649  -1.16327  -1.14965  -1.14637  -1.13760
 Alpha  occ. eigenvalues --   -1.13258  -1.10089  -1.08803  -1.04951  -1.03870
 Alpha  occ. eigenvalues --   -1.02832  -1.00655  -0.98850  -0.97414  -0.97098
 Alpha  occ. eigenvalues --   -0.96759  -0.94747  -0.93865  -0.92735  -0.92186
 Alpha  occ. eigenvalues --   -0.90836  -0.89843  -0.88751  -0.87844  -0.87357
 Alpha  occ. eigenvalues --   -0.85058  -0.83375  -0.82681  -0.81314  -0.80408
 Alpha  occ. eigenvalues --   -0.79648  -0.79026  -0.78312  -0.76311  -0.75900
 Alpha  occ. eigenvalues --   -0.75599  -0.74882  -0.74321  -0.74133  -0.73354
 Alpha  occ. eigenvalues --   -0.72601  -0.72329  -0.71966  -0.71427  -0.70576
 Alpha  occ. eigenvalues --   -0.70325  -0.69557  -0.68826  -0.68528  -0.68141
 Alpha  occ. eigenvalues --   -0.66765  -0.66249  -0.65923  -0.65630  -0.64805
 Alpha  occ. eigenvalues --   -0.64716  -0.64408  -0.64118  -0.63856  -0.63085
 Alpha  occ. eigenvalues --   -0.62834  -0.62743  -0.62454  -0.62028  -0.61791
 Alpha  occ. eigenvalues --   -0.61520  -0.61009  -0.60631  -0.60604  -0.60012
 Alpha  occ. eigenvalues --   -0.59959  -0.59084  -0.58950  -0.58758  -0.58256
 Alpha  occ. eigenvalues --   -0.57802  -0.57506  -0.57098  -0.56822  -0.56465
 Alpha  occ. eigenvalues --   -0.56135  -0.55783  -0.54955  -0.54773  -0.54482
 Alpha  occ. eigenvalues --   -0.54372  -0.53413  -0.53153  -0.52992  -0.52925
 Alpha  occ. eigenvalues --   -0.52160  -0.52091  -0.51961  -0.51911  -0.51658
 Alpha  occ. eigenvalues --   -0.51351  -0.51012  -0.50608  -0.50068  -0.49884
 Alpha  occ. eigenvalues --   -0.49660  -0.49577  -0.49247  -0.48918  -0.48835
 Alpha  occ. eigenvalues --   -0.48291  -0.48211  -0.47758  -0.47686  -0.47618
 Alpha  occ. eigenvalues --   -0.47551  -0.47090  -0.46889  -0.46660  -0.46440
 Alpha  occ. eigenvalues --   -0.46255  -0.46224  -0.45666  -0.45325  -0.45256
 Alpha  occ. eigenvalues --   -0.45140  -0.44892  -0.44615  -0.44425  -0.43785
 Alpha  occ. eigenvalues --   -0.43129  -0.42862  -0.42668  -0.42110  -0.42041
 Alpha  occ. eigenvalues --   -0.41945  -0.40983  -0.40342  -0.39420  -0.38483
 Alpha  occ. eigenvalues --   -0.37617  -0.37240  -0.35613  -0.34887  -0.34656
 Alpha  occ. eigenvalues --   -0.32696  -0.32604  -0.32164  -0.31412  -0.25904
 Alpha  occ. eigenvalues --   -0.21799
 Alpha virt. eigenvalues --   -0.08620  -0.01621  -0.00056   0.01108   0.01654
 Alpha virt. eigenvalues --    0.02492   0.03103   0.03271   0.04314   0.05092
 Alpha virt. eigenvalues --    0.06349   0.07017   0.07640   0.08296   0.08585

 Mulliken charges:
               1
     1  Mg   0.420570
     2  C   -0.067790
     3  C   -0.068308
     4  C   -0.050693
     5  C   -0.062841
     6  N   -0.273596
     7  C    0.145390
     8  C    0.003341
     9  C   -0.014745
    10  C    0.110869
    11  C   -0.051605
    12  C   -0.011543
    13  C    0.001904
    14  C    0.469923
    15  O   -0.505338
    16  O   -0.282812
    17  N   -0.340678
    18  C    0.100673
    19  C    0.000893
    20  C   -0.060517
    21  C    0.132118
    22  C   -0.044070
    23  C    0.333514
    24  O   -0.502294
    25  C   -0.034153
    26  N   -0.240665
    27  C    0.121264
    28  C   -0.005135
    29  C    0.006576
    30  C    0.134943
    31  C   -0.051744
    32  C   -0.024932
    33  C   -0.052535
    34  N   -0.355932
    35  C    0.108700
    36  C    0.037869
    37  C   -0.061020
    38  C    0.126586
    39  C   -0.032635
    40  C    0.340768
    41  O   -0.530848
    42  C    0.061041
    43  C    0.497729
    44  O   -0.527308
    45  O   -0.275129
    46  C    0.074627
    47  C    0.103604
    48  C   -0.108224
    49  C    0.009420
    50  C   -0.044385
    51  C   -0.028748
    52  C   -0.029205
    53  C   -0.026464
    54  C   -0.004152
    55  C   -0.054173
    56  C   -0.031567
    57  C   -0.036787
    58  C   -0.043573
    59  C   -0.007232
    60  C   -0.059872
    61  C   -0.023541
    62  C   -0.037042
    63  C   -0.039707
    64  C   -0.009141
    65  C   -0.061572
    66  C   -0.057276
    67  H    0.024815
    68  H    0.040906
    69  H    0.021362
    70  H    0.052300
    71  H    0.022743
    72  H    0.021027
    73  H    0.030263
    74  H    0.032809
    75  H    0.025829
    76  H    0.020249
    77  H    0.024109
    78  H    0.044310
    79  H    0.025594
    80  H    0.026700
    81  H    0.032957
    82  H    0.048740
    83  H    0.035996
    84  H    0.030906
    85  H    0.028699
    86  H    0.032688
    87  H    0.026851
    88  H    0.019621
    89  H    0.029027
    90  H    0.017023
    91  H    0.013645
    92  H    0.018230
    93  H    0.019158
    94  H    0.030347
    95  H    0.032980
    96  H    0.023872
    97  H    0.040692
    98  H    0.054113
    99  H    0.051810
   100  H    0.041150
   101  H    0.043904
   102  H    0.053429
   103  H    0.053173
   104  H    0.035169
   105  H    0.029507
   106  H    0.019730
   107  H    0.037917
   108  H    0.022113
   109  H    0.011878
   110  H    0.015605
   111  H    0.018018
   112  H    0.019967
   113  H    0.019646
   114  H    0.021594
   115  H    0.014043
   116  H    0.017453
   117  H    0.016951
   118  H    0.021084
   119  H    0.004630
   120  H    0.013544
   121  H    0.028678
   122  H    0.017849
   123  H    0.018435
   124  H    0.022519
   125  H    0.012342
   126  H    0.012643
   127  H    0.020216
   128  H    0.011903
   129  H    0.020196
   130  H    0.015488
   131  H    0.005274
   132  H    0.013213
   133  H    0.022111
   134  H    0.026722
   135  H    0.016247
   136  H    0.013466
   137  H    0.024173
   138  H    0.024091
   139  H    0.017854
   140  H    0.014914
 Sum of Mulliken charges =  -0.00000

 Dipole moment (field-independent basis, Debye):
    X=             -5.7586    Y=              3.9077    Z=              4.4511  Tot=              8.2610
 N-N= 4.362572657076D+03 E-N= 0.000000000000D+00  KE=-9.400020509137D+03
 Leave Link  601 at Fri Apr 29 23:16:50 2022, MaxMem=  6710886400 cpu:               1.1 elap:               0.1
 (Enter /sw/apps/gaussian-16.0/g16/l9999.exe)
 1\1\GINC-BP1-COMPUTE070\SP\RZINDO CIS\STO-3G\C55H74Mg1N4O6\OF15641\29-
 Apr-2022\0\\#p ZINDO=(nstates=5)\\step_501_chromophore_24 ZINDO\\0,1\M
 g,0,0.26,43.342,24.756\C,0,2.253,43.099,27.618\C,0,-2.442,42.42,26.694
 \C,0,-1.574,42.877,21.915\C,0,3.146,43.605,22.86\N,0,-0.011,42.927,26.
 887\C,0,0.884,43.1,27.868\C,0,0.292,43.094,29.285\C,0,-1.203,42.685,28
 .995\C,0,-1.298,42.759,27.37\C,0,-1.682,41.323,29.542\C,0,0.446,44.411
 ,30.046\C,0,0.46,44.232,31.575\C,0,0.3,42.825,32.168\O,0,1.232,42.039,

 Normal termination of Gaussian 16 at Fri Apr 29 23:16:50 2022.
