 Gaussian 16, Revision A.03,
 Gaussian 16:  ES64L-G16RevA.03 25-Dec-2016

 ------------------------------
 #p blyp/Def2SVP td=(nstates=5)
 ------------------------------

 -------------------------------------------------
 step_501_chromophore_8 TDDFT with blyp functional
 -------------------------------------------------
 Symbolic Z-matrix:
 Charge =  0 Multiplicity = 1

                         Standard orientation:
 ---------------------------------------------------------------------
 Center     Atomic      Atomic             Coordinates (Angstroms)
 Number     Number       Type             X           Y           Z
 ---------------------------------------------------------------------
      1         12           0       -4.800259   -0.992765    0.193134
      2          6           0       -3.632759    2.133236    1.159673
      3          6           0       -4.533201    0.203712   -3.169704
      4          6           0       -5.416799   -4.033212   -0.893531
      5          6           0       -4.284133   -2.119782    3.482688
      6          7           0       -4.041126    0.901565   -0.855934
      7          6           0       -3.707523    2.063225   -0.196364
      8          6           0       -3.328140    3.151115   -1.204746
      9          6           0       -3.899468    2.568758   -2.527120
     10          6           0       -4.144282    1.118682   -2.202080
     11          6           0       -5.206078    3.215761   -3.133693
     12          6           0       -1.815815    3.423168   -1.258330
     13          6           0       -1.401055    4.578271   -2.087101
     14          6           0        0.004309    5.219765   -1.773202
     15          8           0        0.182498    6.406921   -1.911373
     16          8           0        0.957402    4.295604   -1.262218
     17          7           0       -4.949057   -1.838044   -1.780807
     18          6           0       -4.835557   -1.181471   -3.016173
     19          6           0       -5.057931   -2.147762   -4.055372
     20          6           0       -5.184094   -3.433135   -3.410381
     21          6           0       -5.211715   -3.126107   -1.938529
     22          6           0       -4.973516   -1.797774   -5.566755
     23          6           0       -5.342143   -4.740221   -4.193669
     24          8           0       -5.517762   -4.751530   -5.400748
     25          6           0       -5.288630   -6.026659   -3.461751
     26          7           0       -5.055396   -2.769168    1.216439
     27          6           0       -5.349185   -3.877649    0.528376
     28          6           0       -5.323394   -5.129215    1.496193
     29          6           0       -4.907573   -4.572134    2.911804
     30          6           0       -4.672396   -3.014283    2.512141
     31          6           0       -6.572815   -6.048623    1.513225
     32          6           0       -3.602325   -5.244595    3.388381
     33          6           0       -3.448064   -5.366686    4.909233
     34          7           0       -4.105925   -0.220336    2.018180
     35          6           0       -4.069159   -0.739718    3.281913
     36          6           0       -3.726395    0.338650    4.216852
     37          6           0       -3.644760    1.465082    3.442989
     38          6           0       -3.808337    1.097669    2.126594
     39          6           0       -3.643494    0.218184    5.741965
     40          6           0       -3.360926    2.868234    3.478170
     41          8           0       -3.134397    3.625516    4.389536
     42          6           0       -3.356003    3.364522    1.993678
     43          6           0       -4.474713    4.334998    1.841656
     44          8           0       -5.615144    4.187504    2.183872
     45          8           0       -4.016029    5.430242    1.089341
     46          6           0       -5.000905    6.427976    0.781950
     47          6           0        2.303335    4.914102   -1.140468
     48          6           0        3.269951    3.865501   -0.725406
     49          6           0        4.398145    4.027148   -0.018259
     50          6           0        4.997730    5.300114    0.561600
     51          6           0        5.113882    2.723488    0.344227
     52          6           0        5.894783    1.856889   -0.780805
     53          6           0        5.117223    0.565759   -1.057117
     54          6           0        6.139976   -0.484486   -1.683591
     55          6           0        5.495544   -1.188042   -2.875614
     56          6           0        6.455657   -1.564994   -0.672740
     57          6           0        7.982825   -1.800724   -0.675907
     58          6           0        8.645036   -1.543399    0.649960
     59          6           0       10.009874   -2.198652    0.746615
     60          6           0       10.039164   -3.472736    1.656066
     61          6           0       11.088319   -1.245401    1.240840
     62          6           0       12.094591   -0.838083    0.142841
     63          6           0       13.573623   -0.863622    0.631931
     64          6           0       14.427881   -2.033491    0.024166
     65          6           0       15.003719   -1.724809   -1.354852
     66          6           0       15.567723   -2.385001    1.015677
     67          1           0       -4.511656    0.687965   -4.147744
     68          1           0       -5.642176   -5.081799   -1.101004
     69          1           0       -4.182202   -2.419504    4.527907
     70          1           0       -3.924587    4.022573   -0.938139
     71          1           0       -3.206116    2.523425   -3.366219
     72          1           0       -4.938696    3.422188   -4.169813
     73          1           0       -5.752479    3.932113   -2.519603
     74          1           0       -5.937713    2.411413   -3.208663
     75          1           0       -1.211359    2.636660   -1.710962
     76          1           0       -1.427246    3.548794   -0.247659
     77          1           0       -2.178897    5.334098   -1.978530
     78          1           0       -1.431273    4.286495   -3.136744
     79          1           0       -4.002700   -2.257485   -5.754640
     80          1           0       -4.812145   -0.746406   -5.805707
     81          1           0       -5.704854   -2.130459   -6.303575
     82          1           0       -4.391706   -5.953508   -2.846721
     83          1           0       -5.129068   -6.826600   -4.184935
     84          1           0       -6.222363   -6.035155   -2.898922
     85          1           0       -4.528929   -5.771408    1.114994
     86          1           0       -5.677493   -4.635777    3.680090
     87          1           0       -6.318135   -6.971264    0.990747
     88          1           0       -7.415217   -5.495621    1.099038
     89          1           0       -6.776977   -6.372237    2.533838
     90          1           0       -2.805404   -4.633543    2.965313
     91          1           0       -3.415401   -6.220687    2.940267
     92          1           0       -3.315826   -6.439517    5.053539
     93          1           0       -4.267995   -4.936951    5.484818
     94          1           0       -2.522300   -4.891802    5.234341
     95          1           0       -2.792028    0.701027    6.220374
     96          1           0       -3.641706   -0.863445    5.878846
     97          1           0       -4.629142    0.494339    6.116911
     98          1           0       -2.389505    3.843288    1.835846
     99          1           0       -4.747066    7.303282    1.379939
    100          1           0       -6.057385    6.200447    0.926024
    101          1           0       -4.909905    6.654440   -0.280029
    102          1           0        2.258764    5.757172   -0.450705
    103          1           0        2.601415    5.309403   -2.112141
    104          1           0        2.982659    2.848622   -0.993625
    105          1           0        4.464870    6.156365    0.149007
    106          1           0        6.027469    5.455025    0.241684
    107          1           0        4.960453    5.367207    1.649022
    108          1           0        4.365644    2.161799    0.902213
    109          1           0        5.865558    2.920383    1.109004
    110          1           0        6.825918    1.506520   -0.337154
    111          1           0        6.111990    2.413891   -1.692634
    112          1           0        4.360053    0.911225   -1.760809
    113          1           0        4.572105    0.185780   -0.192328
    114          1           0        6.896178    0.183163   -2.095092
    115          1           0        5.395057   -0.578833   -3.773690
    116          1           0        4.477312   -1.339593   -2.517276
    117          1           0        6.015285   -2.088940   -3.203446
    118          1           0        6.006000   -2.522574   -0.935724
    119          1           0        6.066453   -1.294479    0.309023
    120          1           0        8.423841   -1.097446   -1.382098
    121          1           0        8.123002   -2.823598   -1.025612
    122          1           0        7.867857   -1.928694    1.310501
    123          1           0        8.785294   -0.463485    0.665676
    124          1           0       10.337027   -2.516300   -0.243883
    125          1           0       11.063517   -3.724283    1.929383
    126          1           0        9.611772   -4.284869    1.068771
    127          1           0        9.437044   -3.321698    2.551825
    128          1           0       11.682210   -1.724994    2.018850
    129          1           0       10.603687   -0.461255    1.821498
    130          1           0       11.817185    0.200588   -0.035163
    131          1           0       12.008599   -1.456751   -0.750851
    132          1           0       13.605607   -0.726180    1.713019
    133          1           0       14.023388    0.094980    0.375983
    134          1           0       13.754832   -2.888978    0.002437
    135          1           0       14.211613   -1.295599   -1.968475
    136          1           0       15.458568   -2.551353   -1.901802
    137          1           0       15.630999   -0.837427   -1.275357
    138          1           0       16.165790   -3.215181    0.640297
    139          1           0       15.197761   -2.920409    1.889800
    140          1           0       16.165958   -1.496867    1.217748
 ---------------------------------------------------------------------

 SCF Done:  E(RB-LYP) =  -3007.38051077     A.U. after   21 cycles

 Excitation energies and oscillator strengths:

 Excited State   1:      Singlet-A      1.7832 eV  695.28 nm  f=0.0187  <S**2>=0.000
     244 -> 247        0.68510
     246 -> 247       -0.16436
 This state for optimization and/or second-order correction.
 Total Energy, E(TD-HF/TD-DFT) =  -3007.31497862
 Copying the excited state density for this state as the 1-particle RhoCI density.

 Excited State   2:      Singlet-A      1.8604 eV  666.42 nm  f=0.2541  <S**2>=0.000
     243 -> 247        0.23861
     244 -> 247        0.16440
     245 -> 248       -0.17679
     246 -> 247        0.62782
     246 <- 247       -0.13474

 Excited State   3:      Singlet-A      1.8896 eV  656.12 nm  f=0.0479  <S**2>=0.000
     243 -> 247        0.65312
     245 -> 247       -0.11252
     246 -> 247       -0.23578

 Excited State   4:      Singlet-A      2.0958 eV  591.58 nm  f=0.0844  <S**2>=0.000
     243 -> 247        0.12148
     245 -> 247        0.63292
     246 -> 248        0.25699

 Excited State   5:      Singlet-A      2.2708 eV  545.99 nm  f=0.0000  <S**2>=0.000
     242 -> 247        0.70703

 The electronic state is 1-A.
 Alpha  occ. eigenvalues --  -46.28014 -18.82221 -18.82022 -18.77623 -18.77363
 Alpha  occ. eigenvalues --  -18.75550 -18.75223 -14.03852 -14.03322 -14.01528
 Alpha  occ. eigenvalues --  -14.00834 -10.04617 -10.04050  -9.99443  -9.99103
 Alpha  occ. eigenvalues --   -9.97684  -9.97474  -9.97235  -9.96893  -9.96654
 Alpha  occ. eigenvalues --   -9.96364  -9.96299  -9.96286  -9.95446  -9.94442
 Alpha  occ. eigenvalues --   -9.94398  -9.94260  -9.94238  -9.94118  -9.94083
 Alpha  occ. eigenvalues --   -9.93678  -9.93525  -9.93477  -9.93475  -9.93362
 Alpha  occ. eigenvalues --   -9.93357  -9.93026  -9.92960  -9.92914  -9.92912
 Alpha  occ. eigenvalues --   -9.92737  -9.92697  -9.92618  -9.92601  -9.92509
 Alpha  occ. eigenvalues --   -9.92372  -9.92350  -9.92078  -9.92053  -9.91871
 Alpha  occ. eigenvalues --   -9.91720  -9.91610  -9.91531  -9.91121  -9.91082
 Alpha  occ. eigenvalues --   -9.91030  -9.90996  -9.90872  -9.90789  -9.90740
 Alpha  occ. eigenvalues --   -9.90653  -9.90560  -9.90463  -9.90390  -9.90291
 Alpha  occ. eigenvalues --   -9.90103  -2.92538  -1.72967  -1.72425  -1.72242
 Alpha  occ. eigenvalues --   -0.98027  -0.96968  -0.92086  -0.91445  -0.90873
 Alpha  occ. eigenvalues --   -0.90283  -0.86935  -0.86108  -0.85973  -0.85199
 Alpha  occ. eigenvalues --   -0.76215  -0.73865  -0.73424  -0.72891  -0.72442
 Alpha  occ. eigenvalues --   -0.72183  -0.72104  -0.71492  -0.71014  -0.70041
 Alpha  occ. eigenvalues --   -0.69551  -0.68961  -0.68232  -0.67907  -0.67612
 Alpha  occ. eigenvalues --   -0.66450  -0.66350  -0.65544  -0.65148  -0.64902
 Alpha  occ. eigenvalues --   -0.64118  -0.62769  -0.61958  -0.61479  -0.60828
 Alpha  occ. eigenvalues --   -0.60496  -0.60230  -0.60178  -0.59433  -0.58749
 Alpha  occ. eigenvalues --   -0.58371  -0.57365  -0.56978  -0.55542  -0.54580
 Alpha  occ. eigenvalues --   -0.53947  -0.53290  -0.52645  -0.52069  -0.52023
 Alpha  occ. eigenvalues --   -0.51552  -0.50888  -0.50676  -0.50558  -0.50142
 Alpha  occ. eigenvalues --   -0.49833  -0.49787  -0.48939  -0.48936  -0.46702
 Alpha  occ. eigenvalues --   -0.46423  -0.46347  -0.45545  -0.45179  -0.45033
 Alpha  occ. eigenvalues --   -0.44236  -0.43464  -0.43332  -0.42435  -0.42180
 Alpha  occ. eigenvalues --   -0.42103  -0.41960  -0.41783  -0.41566  -0.41267
 Alpha  occ. eigenvalues --   -0.41146  -0.40946  -0.40573  -0.40528  -0.40434
 Alpha  occ. eigenvalues --   -0.40104  -0.39780  -0.39642  -0.39406  -0.39302
 Alpha  occ. eigenvalues --   -0.39134  -0.39082  -0.38704  -0.38511  -0.38351
 Alpha  occ. eigenvalues --   -0.38258  -0.38141  -0.37782  -0.37528  -0.37367
 Alpha  occ. eigenvalues --   -0.37309  -0.37176  -0.36980  -0.36867  -0.36279
 Alpha  occ. eigenvalues --   -0.36136  -0.35996  -0.35908  -0.35752  -0.35641
 Alpha  occ. eigenvalues --   -0.35441  -0.35319  -0.35195  -0.34983  -0.34841
 Alpha  occ. eigenvalues --   -0.34711  -0.34403  -0.34184  -0.34112  -0.33912
 Alpha  occ. eigenvalues --   -0.33702  -0.33660  -0.33579  -0.33450  -0.33212
 Alpha  occ. eigenvalues --   -0.33148  -0.32938  -0.32791  -0.32625  -0.32366
 Alpha  occ. eigenvalues --   -0.32218  -0.31974  -0.31788  -0.31696  -0.31585
 Alpha  occ. eigenvalues --   -0.31460  -0.31410  -0.31232  -0.30980  -0.30793
 Alpha  occ. eigenvalues --   -0.30676  -0.30291  -0.30226  -0.30211  -0.29887
 Alpha  occ. eigenvalues --   -0.29726  -0.29442  -0.29327  -0.29226  -0.29161
 Alpha  occ. eigenvalues --   -0.28775  -0.28704  -0.28271  -0.28165  -0.27699
 Alpha  occ. eigenvalues --   -0.27586  -0.27456  -0.27316  -0.27031  -0.26891
 Alpha  occ. eigenvalues --   -0.26472  -0.26397  -0.25589  -0.25553  -0.25209
 Alpha  occ. eigenvalues --   -0.25012  -0.24571  -0.24424  -0.23901  -0.23431
 Alpha  occ. eigenvalues --   -0.23401  -0.23207  -0.22347  -0.22052  -0.21046
 Alpha  occ. eigenvalues --   -0.20424  -0.20211  -0.18726  -0.18340  -0.17784
 Alpha  occ. eigenvalues --   -0.16287
 Alpha virt. eigenvalues --   -0.11866  -0.07111  -0.05628  -0.04306  -0.03060
 Alpha virt. eigenvalues --   -0.02972  -0.02496  -0.02007  -0.01394   0.00077
 Alpha virt. eigenvalues --    0.01090   0.01428   0.01985   0.02494   0.02695

 Mulliken charges:
               1
     1  Mg   0.688784
     2  C    0.045914
     3  C   -0.045306
     4  C   -0.058469
     5  C   -0.061024
     6  N   -0.197782
     7  C   -0.146431
     8  C    0.142128
     9  C   -0.045785
    10  C   -0.023069
    11  C    0.145065
    12  C    0.122955
    13  C    0.116983
    14  C    0.107640
    15  O   -0.167234
    16  O   -0.312882
    17  N   -0.262916
    18  C    0.153948
    19  C   -0.114370
    20  C   -0.014142
    21  C    0.175158
    22  C    0.160189
    23  C   -0.108370
    24  O   -0.159910
    25  C    0.155656
    26  N   -0.238899
    27  C    0.003049
    28  C   -0.016344
    29  C    0.003937
    30  C    0.059320
    31  C    0.131214
    32  C    0.061802
    33  C    0.081435
    34  N   -0.250929
    35  C    0.075485
    36  C   -0.223133
    37  C    0.156172
    38  C    0.058012
    39  C    0.194077
    40  C   -0.092419
    41  O   -0.106612
    42  C    0.076508
    43  C    0.098338
    44  O   -0.144364
    45  O   -0.284701
    46  C    0.202616
    47  C    0.320612
    48  C   -0.105037
    49  C   -0.142235
    50  C    0.152259
    51  C    0.114831
    52  C    0.069404
    53  C    0.052574
    54  C   -0.067116
    55  C    0.093957
    56  C    0.149504
    57  C    0.011822
    58  C    0.154647
    59  C   -0.074833
    60  C    0.099412
    61  C    0.096076
    62  C    0.090575
    63  C    0.076114
    64  C   -0.049423
    65  C    0.125709
    66  C    0.099301
    67  H   -0.068099
    68  H   -0.078549
    69  H   -0.065488
    70  H   -0.040128
    71  H   -0.029480
    72  H   -0.003272
    73  H    0.000535
    74  H   -0.019436
    75  H   -0.025166
    76  H   -0.018596
    77  H   -0.013702
    78  H   -0.001623
    79  H    0.008899
    80  H   -0.031648
    81  H    0.020711
    82  H    0.002331
    83  H   -0.006053
    84  H    0.033916
    85  H   -0.019269
    86  H   -0.015421
    87  H   -0.009144
    88  H    0.003553
    89  H   -0.013601
    90  H   -0.022056
    91  H   -0.020804
    92  H   -0.008636
    93  H    0.002121
    94  H   -0.008593
    95  H    0.023983
    96  H   -0.037520
    97  H    0.010214
    98  H   -0.001070
    99  H    0.017315
   100  H    0.018357
   101  H    0.006795
   102  H    0.005775
   103  H    0.000386
   104  H   -0.026672
   105  H   -0.024728
   106  H   -0.004224
   107  H    0.011232
   108  H   -0.014736
   109  H   -0.054752
   110  H   -0.024825
   111  H   -0.011641
   112  H   -0.035384
   113  H   -0.027449
   114  H   -0.030043
   115  H   -0.031743
   116  H   -0.015918
   117  H   -0.015993
   118  H   -0.035707
   119  H   -0.034195
   120  H   -0.028851
   121  H   -0.032111
   122  H   -0.034432
   123  H   -0.033344
   124  H   -0.039567
   125  H   -0.011563
   126  H   -0.024103
   127  H   -0.013785
   128  H   -0.054946
   129  H   -0.042860
   130  H   -0.037324
   131  H   -0.015103
   132  H   -0.040100
   133  H   -0.055613
   134  H   -0.038956
   135  H   -0.034365
   136  H   -0.000901
   137  H   -0.026488
   138  H   -0.033998
   139  H   -0.026132
   140  H   -0.005663
 Sum of Mulliken charges =  -0.00000

 Dipole moment (field-independent basis, Debye):
    X=              1.2917    Y=             -2.9897    Z=              0.1157  Tot=              3.2588
 Quadrupole moment (field-independent basis, Debye-Ang):
   XX=           -397.1936   YY=           -407.2215   ZZ=           -428.3956
   XY=              9.0103   XZ=             -6.7194   YZ=            -39.1592

 Normal termination of Gaussian 16 at Thu May  5 01:56:51 2022.
