 Gaussian 16, Revision A.03,
 Gaussian 16:  ES64L-G16RevA.03 25-Dec-2016

 -----------------------------------
 #p cam-b3lyp/Def2SVP td=(nstates=5)
 -----------------------------------

 ------------------------------------------------------
 step_501_chromophore_8 TDDFT with cam-b3lyp functional
 ------------------------------------------------------
 Symbolic Z-matrix:
 Charge =  0 Multiplicity = 1

                         Standard orientation:
 ---------------------------------------------------------------------
 Center     Atomic      Atomic             Coordinates (Angstroms)
 Number     Number       Type             X           Y           Z
 ---------------------------------------------------------------------
      1         12           0       -4.800259   -0.992765    0.193134
      2          6           0       -3.632759    2.133236    1.159673
      3          6           0       -4.533201    0.203712   -3.169704
      4          6           0       -5.416799   -4.033212   -0.893531
      5          6           0       -4.284133   -2.119782    3.482688
      6          7           0       -4.041126    0.901565   -0.855934
      7          6           0       -3.707523    2.063225   -0.196364
      8          6           0       -3.328140    3.151115   -1.204746
      9          6           0       -3.899468    2.568758   -2.527120
     10          6           0       -4.144282    1.118682   -2.202080
     11          6           0       -5.206078    3.215761   -3.133693
     12          6           0       -1.815815    3.423168   -1.258330
     13          6           0       -1.401055    4.578271   -2.087101
     14          6           0        0.004309    5.219765   -1.773202
     15          8           0        0.182498    6.406921   -1.911373
     16          8           0        0.957402    4.295604   -1.262218
     17          7           0       -4.949057   -1.838044   -1.780807
     18          6           0       -4.835557   -1.181471   -3.016173
     19          6           0       -5.057931   -2.147762   -4.055372
     20          6           0       -5.184094   -3.433135   -3.410381
     21          6           0       -5.211715   -3.126107   -1.938529
     22          6           0       -4.973516   -1.797774   -5.566755
     23          6           0       -5.342143   -4.740221   -4.193669
     24          8           0       -5.517762   -4.751530   -5.400748
     25          6           0       -5.288630   -6.026659   -3.461751
     26          7           0       -5.055396   -2.769168    1.216439
     27          6           0       -5.349185   -3.877649    0.528376
     28          6           0       -5.323394   -5.129215    1.496193
     29          6           0       -4.907573   -4.572134    2.911804
     30          6           0       -4.672396   -3.014283    2.512141
     31          6           0       -6.572815   -6.048623    1.513225
     32          6           0       -3.602325   -5.244595    3.388381
     33          6           0       -3.448064   -5.366686    4.909233
     34          7           0       -4.105925   -0.220336    2.018180
     35          6           0       -4.069159   -0.739718    3.281913
     36          6           0       -3.726395    0.338650    4.216852
     37          6           0       -3.644760    1.465082    3.442989
     38          6           0       -3.808337    1.097669    2.126594
     39          6           0       -3.643494    0.218184    5.741965
     40          6           0       -3.360926    2.868234    3.478170
     41          8           0       -3.134397    3.625516    4.389536
     42          6           0       -3.356003    3.364522    1.993678
     43          6           0       -4.474713    4.334998    1.841656
     44          8           0       -5.615144    4.187504    2.183872
     45          8           0       -4.016029    5.430242    1.089341
     46          6           0       -5.000905    6.427976    0.781950
     47          6           0        2.303335    4.914102   -1.140468
     48          6           0        3.269951    3.865501   -0.725406
     49          6           0        4.398145    4.027148   -0.018259
     50          6           0        4.997730    5.300114    0.561600
     51          6           0        5.113882    2.723488    0.344227
     52          6           0        5.894783    1.856889   -0.780805
     53          6           0        5.117223    0.565759   -1.057117
     54          6           0        6.139976   -0.484486   -1.683591
     55          6           0        5.495544   -1.188042   -2.875614
     56          6           0        6.455657   -1.564994   -0.672740
     57          6           0        7.982825   -1.800724   -0.675907
     58          6           0        8.645036   -1.543399    0.649960
     59          6           0       10.009874   -2.198652    0.746615
     60          6           0       10.039164   -3.472736    1.656066
     61          6           0       11.088319   -1.245401    1.240840
     62          6           0       12.094591   -0.838083    0.142841
     63          6           0       13.573623   -0.863622    0.631931
     64          6           0       14.427881   -2.033491    0.024166
     65          6           0       15.003719   -1.724809   -1.354852
     66          6           0       15.567723   -2.385001    1.015677
     67          1           0       -4.511656    0.687965   -4.147744
     68          1           0       -5.642176   -5.081799   -1.101004
     69          1           0       -4.182202   -2.419504    4.527907
     70          1           0       -3.924587    4.022573   -0.938139
     71          1           0       -3.206116    2.523425   -3.366219
     72          1           0       -4.938696    3.422188   -4.169813
     73          1           0       -5.752479    3.932113   -2.519603
     74          1           0       -5.937713    2.411413   -3.208663
     75          1           0       -1.211359    2.636660   -1.710962
     76          1           0       -1.427246    3.548794   -0.247659
     77          1           0       -2.178897    5.334098   -1.978530
     78          1           0       -1.431273    4.286495   -3.136744
     79          1           0       -4.002700   -2.257485   -5.754640
     80          1           0       -4.812145   -0.746406   -5.805707
     81          1           0       -5.704854   -2.130459   -6.303575
     82          1           0       -4.391706   -5.953508   -2.846721
     83          1           0       -5.129068   -6.826600   -4.184935
     84          1           0       -6.222363   -6.035155   -2.898922
     85          1           0       -4.528929   -5.771408    1.114994
     86          1           0       -5.677493   -4.635777    3.680090
     87          1           0       -6.318135   -6.971264    0.990747
     88          1           0       -7.415217   -5.495621    1.099038
     89          1           0       -6.776977   -6.372237    2.533838
     90          1           0       -2.805404   -4.633543    2.965313
     91          1           0       -3.415401   -6.220687    2.940267
     92          1           0       -3.315826   -6.439517    5.053539
     93          1           0       -4.267995   -4.936951    5.484818
     94          1           0       -2.522300   -4.891802    5.234341
     95          1           0       -2.792028    0.701027    6.220374
     96          1           0       -3.641706   -0.863445    5.878846
     97          1           0       -4.629142    0.494339    6.116911
     98          1           0       -2.389505    3.843288    1.835846
     99          1           0       -4.747066    7.303282    1.379939
    100          1           0       -6.057385    6.200447    0.926024
    101          1           0       -4.909905    6.654440   -0.280029
    102          1           0        2.258764    5.757172   -0.450705
    103          1           0        2.601415    5.309403   -2.112141
    104          1           0        2.982659    2.848622   -0.993625
    105          1           0        4.464870    6.156365    0.149007
    106          1           0        6.027469    5.455025    0.241684
    107          1           0        4.960453    5.367207    1.649022
    108          1           0        4.365644    2.161799    0.902213
    109          1           0        5.865558    2.920383    1.109004
    110          1           0        6.825918    1.506520   -0.337154
    111          1           0        6.111990    2.413891   -1.692634
    112          1           0        4.360053    0.911225   -1.760809
    113          1           0        4.572105    0.185780   -0.192328
    114          1           0        6.896178    0.183163   -2.095092
    115          1           0        5.395057   -0.578833   -3.773690
    116          1           0        4.477312   -1.339593   -2.517276
    117          1           0        6.015285   -2.088940   -3.203446
    118          1           0        6.006000   -2.522574   -0.935724
    119          1           0        6.066453   -1.294479    0.309023
    120          1           0        8.423841   -1.097446   -1.382098
    121          1           0        8.123002   -2.823598   -1.025612
    122          1           0        7.867857   -1.928694    1.310501
    123          1           0        8.785294   -0.463485    0.665676
    124          1           0       10.337027   -2.516300   -0.243883
    125          1           0       11.063517   -3.724283    1.929383
    126          1           0        9.611772   -4.284869    1.068771
    127          1           0        9.437044   -3.321698    2.551825
    128          1           0       11.682210   -1.724994    2.018850
    129          1           0       10.603687   -0.461255    1.821498
    130          1           0       11.817185    0.200588   -0.035163
    131          1           0       12.008599   -1.456751   -0.750851
    132          1           0       13.605607   -0.726180    1.713019
    133          1           0       14.023388    0.094980    0.375983
    134          1           0       13.754832   -2.888978    0.002437
    135          1           0       14.211613   -1.295599   -1.968475
    136          1           0       15.458568   -2.551353   -1.901802
    137          1           0       15.630999   -0.837427   -1.275357
    138          1           0       16.165790   -3.215181    0.640297
    139          1           0       15.197761   -2.920409    1.889800
    140          1           0       16.165958   -1.496867    1.217748
 ---------------------------------------------------------------------

 SCF Done:  E(RCAM-B3LYP) =  -3007.18065267     A.U. after   17 cycles

 Excitation energies and oscillator strengths:

 Excited State   1:      Singlet-A      1.7654 eV  702.28 nm  f=0.3855  <S**2>=0.000
     245 -> 248       -0.17251
     246 -> 247        0.68746
     245 <- 248       -0.10347
 This state for optimization and/or second-order correction.
 Total Energy, E(TD-HF/TD-DFT) =  -3007.11577370
 Copying the excited state density for this state as the 1-particle RhoCI density.

 Excited State   2:      Singlet-A      2.2937 eV  540.55 nm  f=0.1166  <S**2>=0.000
     245 -> 247        0.63747
     246 -> 248        0.29039

 Excited State   3:      Singlet-A      3.2832 eV  377.63 nm  f=0.0029  <S**2>=0.000
     242 -> 247        0.21206
     243 -> 247        0.64818

 Excited State   4:      Singlet-A      3.5318 eV  351.06 nm  f=0.0068  <S**2>=0.000
     240 -> 247        0.42929
     240 -> 248        0.10149
     240 -> 249       -0.18224
     240 -> 251       -0.13605
     242 -> 247        0.41356
     243 -> 247       -0.15483
     246 -> 248       -0.12049

 Excited State   5:      Singlet-A      3.5605 eV  348.22 nm  f=0.0324  <S**2>=0.000
     240 -> 247        0.39934
     240 -> 249       -0.14533
     240 -> 251       -0.11098
     241 -> 247        0.15637
     241 -> 249        0.10167
     242 -> 247       -0.38425
     243 -> 247        0.15831
     246 -> 248        0.22476

 The electronic state is 1-A.
 Alpha  occ. eigenvalues --  -46.89654 -19.25050 -19.24891 -19.20629 -19.20451
 Alpha  occ. eigenvalues --  -19.18686 -19.18506 -14.42653 -14.42340 -14.40221
 Alpha  occ. eigenvalues --  -14.39087 -10.39981 -10.39460 -10.34855 -10.34132
 Alpha  occ. eigenvalues --  -10.32355 -10.31681 -10.31586 -10.31169 -10.31122
 Alpha  occ. eigenvalues --  -10.31115 -10.31077 -10.30551 -10.29535 -10.29231
 Alpha  occ. eigenvalues --  -10.28338 -10.28256 -10.28235 -10.28218 -10.28188
 Alpha  occ. eigenvalues --  -10.27895 -10.27789 -10.27738 -10.27714 -10.27520
 Alpha  occ. eigenvalues --  -10.27485 -10.27407 -10.26988 -10.26920 -10.26810
 Alpha  occ. eigenvalues --  -10.26538 -10.26494 -10.26488 -10.26253 -10.26121
 Alpha  occ. eigenvalues --  -10.26075 -10.26059 -10.26056 -10.25737 -10.25641
 Alpha  occ. eigenvalues --  -10.25430 -10.25426 -10.25289 -10.24747 -10.24734
 Alpha  occ. eigenvalues --  -10.24664 -10.24589 -10.24528 -10.24393 -10.24311
 Alpha  occ. eigenvalues --  -10.24231 -10.24128 -10.24020 -10.23982 -10.23974
 Alpha  occ. eigenvalues --  -10.23715  -3.18075  -1.92981  -1.92533  -1.92362
 Alpha  occ. eigenvalues --   -1.16567  -1.15398  -1.10313  -1.10113  -1.08777
 Alpha  occ. eigenvalues --   -1.08076  -1.04589  -1.03783  -1.03720  -1.02820
 Alpha  occ. eigenvalues --   -0.93252  -0.90708  -0.90240  -0.89668  -0.89243
 Alpha  occ. eigenvalues --   -0.88878  -0.88843  -0.88114  -0.87588  -0.86486
 Alpha  occ. eigenvalues --   -0.85990  -0.85703  -0.84486  -0.84061  -0.83934
 Alpha  occ. eigenvalues --   -0.82586  -0.82462  -0.81497  -0.80976  -0.80702
 Alpha  occ. eigenvalues --   -0.79887  -0.78359  -0.77530  -0.77205  -0.76246
 Alpha  occ. eigenvalues --   -0.75800  -0.75557  -0.75548  -0.74686  -0.73952
 Alpha  occ. eigenvalues --   -0.73326  -0.72345  -0.71867  -0.70384  -0.69104
 Alpha  occ. eigenvalues --   -0.68537  -0.67791  -0.67182  -0.66387  -0.66132
 Alpha  occ. eigenvalues --   -0.65669  -0.65123  -0.64771  -0.64660  -0.64181
 Alpha  occ. eigenvalues --   -0.63773  -0.63622  -0.62843  -0.62655  -0.60332
 Alpha  occ. eigenvalues --   -0.60188  -0.59815  -0.58997  -0.58811  -0.58334
 Alpha  occ. eigenvalues --   -0.57569  -0.56739  -0.56485  -0.55692  -0.55529
 Alpha  occ. eigenvalues --   -0.55261  -0.54895  -0.54615  -0.54379  -0.54173
 Alpha  occ. eigenvalues --   -0.54057  -0.53901  -0.53461  -0.53243  -0.53155
 Alpha  occ. eigenvalues --   -0.53071  -0.52619  -0.52530  -0.51890  -0.51871
 Alpha  occ. eigenvalues --   -0.51724  -0.51627  -0.51408  -0.50965  -0.50792
 Alpha  occ. eigenvalues --   -0.50647  -0.50389  -0.50293  -0.49947  -0.49710
 Alpha  occ. eigenvalues --   -0.49508  -0.49319  -0.49278  -0.49010  -0.48955
 Alpha  occ. eigenvalues --   -0.48831  -0.48146  -0.48066  -0.47969  -0.47622
 Alpha  occ. eigenvalues --   -0.47539  -0.47255  -0.47150  -0.47084  -0.46869
 Alpha  occ. eigenvalues --   -0.46757  -0.46448  -0.46355  -0.45911  -0.45781
 Alpha  occ. eigenvalues --   -0.45407  -0.45327  -0.45283  -0.45169  -0.45126
 Alpha  occ. eigenvalues --   -0.44759  -0.44625  -0.44563  -0.44065  -0.43952
 Alpha  occ. eigenvalues --   -0.43922  -0.43632  -0.43431  -0.43283  -0.43235
 Alpha  occ. eigenvalues --   -0.43141  -0.42866  -0.42621  -0.42395  -0.42337
 Alpha  occ. eigenvalues --   -0.42126  -0.41978  -0.41855  -0.41637  -0.41043
 Alpha  occ. eigenvalues --   -0.40894  -0.40605  -0.40517  -0.40378  -0.40258
 Alpha  occ. eigenvalues --   -0.39872  -0.39724  -0.39216  -0.39092  -0.38835
 Alpha  occ. eigenvalues --   -0.38582  -0.38279  -0.38148  -0.37935  -0.37661
 Alpha  occ. eigenvalues --   -0.37611  -0.37250  -0.37137  -0.36474  -0.36174
 Alpha  occ. eigenvalues --   -0.36137  -0.35246  -0.35039  -0.34408  -0.34402
 Alpha  occ. eigenvalues --   -0.33927  -0.33745  -0.33710  -0.31758  -0.31032
 Alpha  occ. eigenvalues --   -0.30635  -0.30115  -0.29941  -0.29779  -0.24662
 Alpha  occ. eigenvalues --   -0.21660
 Alpha virt. eigenvalues --   -0.09027  -0.01937   0.00933   0.02039   0.02781
 Alpha virt. eigenvalues --    0.04953   0.05280   0.05495   0.05679   0.06422
 Alpha virt. eigenvalues --    0.07595   0.08315   0.08644   0.08697   0.08983

 Mulliken charges:
               1
     1  Mg   0.819712
     2  C    0.007095
     3  C   -0.062852
     4  C   -0.089732
     5  C   -0.063240
     6  N   -0.264332
     7  C   -0.101682
     8  C    0.085500
     9  C   -0.103136
    10  C    0.006224
    11  C    0.083701
    12  C    0.072026
    13  C    0.053785
    14  C    0.188317
    15  O   -0.207857
    16  O   -0.377939
    17  N   -0.352324
    18  C    0.163970
    19  C   -0.119892
    20  C   -0.079771
    21  C    0.210336
    22  C    0.108919
    23  C   -0.024745
    24  O   -0.198869
    25  C    0.067354
    26  N   -0.318160
    27  C    0.038760
    28  C   -0.072146
    29  C   -0.046019
    30  C    0.073448
    31  C    0.071551
    32  C    0.009657
    33  C    0.015664
    34  N   -0.337700
    35  C    0.071616
    36  C   -0.220044
    37  C    0.071175
    38  C    0.098859
    39  C    0.148664
    40  C    0.009723
    41  O   -0.147413
    42  C   -0.000911
    43  C    0.189775
    44  O   -0.181716
    45  O   -0.348908
    46  C    0.163885
    47  C    0.286690
    48  C   -0.124791
    49  C   -0.165856
    50  C    0.092206
    51  C    0.053195
    52  C    0.017506
    53  C    0.004953
    54  C   -0.131163
    55  C    0.040555
    56  C    0.087959
    57  C   -0.033320
    58  C    0.099502
    59  C   -0.135479
    60  C    0.047738
    61  C    0.041215
    62  C    0.035598
    63  C    0.019369
    64  C   -0.112228
    65  C    0.065579
    66  C    0.039639
    67  H   -0.031184
    68  H   -0.042703
    69  H   -0.031445
    70  H   -0.004370
    71  H    0.005404
    72  H    0.021158
    73  H    0.026831
    74  H    0.008473
    75  H    0.006847
    76  H    0.011391
    77  H    0.018780
    78  H    0.026994
    79  H    0.035782
    80  H   -0.003395
    81  H    0.050493
    82  H    0.031060
    83  H    0.030806
    84  H    0.058551
    85  H    0.015023
    86  H    0.017526
    87  H    0.014274
    88  H    0.028318
    89  H    0.012825
    90  H    0.008833
    91  H    0.006428
    92  H    0.015322
    93  H    0.022987
    94  H    0.016224
    95  H    0.047814
    96  H   -0.016162
    97  H    0.035108
    98  H    0.043281
    99  H    0.039447
   100  H    0.044544
   101  H    0.024676
   102  H    0.033198
   103  H    0.028773
   104  H    0.007559
   105  H   -0.000742
   106  H    0.020507
   107  H    0.035524
   108  H    0.015434
   109  H   -0.021815
   110  H    0.000753
   111  H    0.015855
   112  H   -0.008002
   113  H    0.000663
   114  H    0.001962
   115  H   -0.006061
   116  H    0.007240
   117  H    0.007613
   118  H   -0.003368
   119  H   -0.004769
   120  H   -0.002482
   121  H   -0.005032
   122  H   -0.006237
   123  H   -0.006095
   124  H   -0.007311
   125  H    0.010773
   126  H   -0.000245
   127  H    0.009330
   128  H   -0.024182
   129  H   -0.012468
   130  H   -0.006726
   131  H    0.009708
   132  H   -0.009023
   133  H   -0.025088
   134  H   -0.009525
   135  H   -0.009623
   136  H    0.023703
   137  H   -0.002747
   138  H   -0.007875
   139  H   -0.000772
   140  H    0.016464
 Sum of Mulliken charges =  -0.00000

 Dipole moment (field-independent basis, Debye):
    X=              0.9970    Y=             -3.5773    Z=             -0.7852  Tot=              3.7958
 Quadrupole moment (field-independent basis, Debye-Ang):
   XX=           -395.6670   YY=           -403.5812   ZZ=           -427.1160
   XY=             11.6658   XZ=             -2.1828   YZ=            -39.2773

 Normal termination of Gaussian 16 at Thu May  5 00:52:11 2022.
